G3NPncore-PETIM betagalactose in water
88710
    1aaa     N1    1   2.223   4.514   4.373  0.6612 -0.1712  0.2007
    1aaa     C1    2   2.355   4.475   4.415 -0.6459 -0.4255 -0.2587
    1aaa     H1    3   2.361   4.472   4.525  1.1852 -1.3124 -0.3349
    1aaa     H2    4   2.357   4.369   4.385  0.1618 -0.9037  1.3561
    1aaa     C2    5   2.198   4.658   4.386 -0.8497  0.0514  0.3093
    1aaa     H3    6   2.184   4.681   4.492 -3.0415 -2.6090  0.7405
    1aaa     H4    7   2.286   4.703   4.340  0.6694 -2.4762  0.6006
    1aaa     C3    8   2.114   4.432   4.421  0.5860  0.1416 -0.1301
    1aaa     H5    9   2.021   4.467   4.373  0.8277  3.0728  1.3202
    1aaa     H6   10   2.125   4.326   4.395 -2.1373 -0.0543 -0.8220
    1aaa     C4   11   2.087   4.447   4.573  0.0159 -0.3812  0.3106
    1aaa     H7   12   2.184   4.444   4.625  0.4008 -1.3074 -0.4297
    1aaa     H8   13   2.048   4.547   4.592 -0.6377 -0.6384  0.3571
    1aaa     C5   14   2.484   4.535   4.353 -0.0275 -0.0429 -0.5339
    1aaa     H9   15   2.473   4.523   4.245  0.1421 -1.6080 -0.3945
    1aaa    H10   16   2.494   4.641   4.379  1.3150  0.1023 -1.5790
    1aaa     C6   17   2.061   4.711   4.325 -0.3966 -0.4711  0.3258
    1aaa    H11   18   2.043   4.666   4.227  0.8658  0.5127 -0.3676
    1aaa    H12   19   1.979   4.667   4.383 -0.1386  0.5244  1.4935
    1aaa     C7   20   2.048   4.862   4.324 -1.0420  0.2503  0.5568
    1aaa    H13   21   2.142   4.899   4.282 -0.2282 -2.2470  0.0106
    1aaa    H14   22   1.964   4.897   4.262 -1.7024 -2.2084 -0.0837
    1aaa     C8   23   1.983   4.345   4.625  0.5412  0.4053  0.4183
    1aaa    H15   24   1.890   4.353   4.567  2.1696  2.5640 -2.1026
    1aaa    H16   25   2.025   4.245   4.608  1.1036  0.4877  1.2947
    1aaa     C9   26   2.607   4.447   4.395  0.9853 -0.3006 -0.1321
    1aaa    H17   27   2.601   4.419   4.501  1.2146  0.9864  0.2416
    1aaa    H18   28   2.596   4.352   4.340  1.9925  0.3745 -1.5604
    2bbb     N1   29   1.918   5.271   4.770  0.1064 -0.2319  0.7747
    2bbb     C1   30   1.951   5.189   4.888  0.5304  0.0741 -0.1575
    2bbb     H1   31   1.914   5.087   4.869 -0.9099  0.7063 -0.8827
    2bbb     H2   32   1.900   5.236   4.973 -0.3363 -1.1551  0.0290
    2bbb     C2   33   1.770   5.284   4.755 -0.2408  0.8486  0.4331
    2bbb     H3   34   1.728   5.185   4.733  1.7169  0.1034 -0.1317
    2bbb     H4   35   1.756   5.342   4.663  3.2019 -0.2955 -0.9674
    2bbb     C3   36   1.986   5.224   4.645  0.5066  0.4388  0.0161
    2bbb     H5   37   2.093   5.249   4.652  0.1290  2.7507 -1.3528
    2bbb     H6   38   1.953   5.286   4.561 -1.4706  0.1879  0.5709
    2bbb     C4   39   1.968   5.075   4.616 -0.3126  0.1037  0.6855
    2bbb     H7   40   1.861   5.051   4.613 -0.1540 -0.6375  0.7238
    2bbb     H8   41   2.020   5.002   4.680 -2.3043 -0.7564  1.4047
    2bbb     C5   42   2.107   5.177   4.918 -0.0018 -0.0680 -0.1767
    2bbb     H9   43   2.153   5.273   4.892 -0.4607 -0.1284 -1.3201
    2bbb    H10   44   2.145   5.101   4.849 -0.5969  2.6287 -3.7744
    2bbb     C6   45   1.703   5.356   4.882 -0.2727  0.8181  0.4688
    2bbb    H11   46   1.770   5.434   4.920 -0.8538  0.8776  1.4069
    2bbb    H12   47   1.687   5.289   4.967 -0.3734 -0.8852 -0.8350
    2bbb     C7   48   2.037   5.039   4.480 -0.2205 -0.1885  0.4854
    2bbb    H13   49   2.143   5.063   4.493 -0.5150  1.0080  0.8083
    2bbb    H14   50   1.985   5.093   4.400  0.1686 -0.6755 -0.0964
    2bbb     C8   51   1.570   5.420   4.835 -0.0160  0.6634 -0.2118
    2bbb    H15   52   1.576   5.473   4.740 -3.8700  0.6036 -0.6257
    2bbb    H16   53   1.555   5.501   4.907 -0.9538 -0.5697  1.0456
    2bbb     C9   54   2.134   5.123   5.057 -0.2485 -0.1962 -0.0588
    2bbb    H17   55   2.091   5.187   5.136  2.6962 -0.1254  1.6114
    2bbb    H18   56   2.242   5.120   5.074 -0.2833  0.4852  0.3489
    2bbb     O1   57   2.022   4.897   4.460  0.4632  0.4586 -0.4352
    3bbb     N1   58   1.917   4.109   5.203  0.0680 -0.0775  0.1365
    3bbb     C1   59   1.867   4.204   5.303  0.5906 -0.1706  0.1897
    3bbb     H1   60   1.890   4.308   5.275 -2.4365  0.3407 -0.8201
    3bbb     H2   61   1.913   4.201   5.403  1.3734  1.5529 -0.0823
    3bbb     C2   62   2.065   4.090   5.202  0.6196  0.3377 -0.7121
    3bbb     H3   63   2.093   4.054   5.302  0.6518 -1.5233 -1.3627
    3bbb     H4   64   2.115   4.183   5.172  1.7480  0.5520  1.5869
    3bbb     C3   65   1.862   4.128   5.067  0.5905 -0.2742 -0.7039
    3bbb     H5   66   1.752   4.133   5.069  0.6024  1.4292 -2.2636
    3bbb     H6   67   1.879   4.039   5.004  1.4708 -0.0658 -0.7671
    3bbb     C4   68   1.911   4.265   4.991 -0.4781  0.2577 -0.0500
    3bbb     H7   69   2.019   4.274   5.009 -0.2472 -1.6848 -0.1649
    3bbb     H8   70   1.864   4.352   5.037  0.1124  0.4197  0.2583
    3bbb     C5   71   1.716   4.179   5.332 -0.1677 -0.1643 -0.0246
    3bbb     H9   72   1.708   4.072   5.354 -3.6083 -0.3780 -1.7762
    3bbb    H10   73   1.646   4.196   5.250 -1.8921 -0.6302  1.2823
    3bbb     C6   74   2.128   3.978   5.115 -0.1794 -0.0266 -0.2860
    3bbb    H11   75   2.112   3.996   5.008  0.3967 -2.1180 -0.7764
    3bbb    H12   76   2.085   3.879   5.136 -0.7223  0.4750  1.1046
    3bbb     C7   77   1.883   4.260   4.833  0.0189  0.0157  0.3588
    3bbb    H13   78   1.777   4.278   4.814 -0.1677 -1.0875  0.3054
    3bbb    H14   79   1.910   4.158   4.803 -1.0754 -0.4716  0.9608
    3bbb     C8   80   2.284   3.978   5.138  0.0027  0.4885  0.2029
    3bbb    H15   81   2.325   3.912   5.061  1.4304  1.7905 -0.2176
    3bbb    H16   82   2.319   3.953   5.239  1.6443 -3.0327 -1.0845
    3bbb     C9   83   1.671   4.268   5.450  1.2396 -0.2237 -0.3311
    3bbb    H17   84   1.749   4.252   5.525  2.4041 -0.7744 -1.6255
    3bbb    H18   85   1.574   4.234   5.489  0.8541 -0.6040 -1.5862
    3bbb     O1   86   1.967   4.364   4.772 -0.2399 -0.6582  0.7264
    4bbb     N1   87   3.095   4.249   4.468  0.1246 -0.3755  0.0422
    4bbb     C1   88   3.137   4.196   4.335  0.2375  0.0671  0.2030
    4bbb     H1   89   3.245   4.213   4.322 -0.2106  2.1219 -1.5033
    4bbb     H2   90   3.085   4.247   4.253 -1.2383 -1.6885 -0.0264
    4bbb     C2   91   3.193   4.198   4.575  0.3123  0.0401 -0.1138
    4bbb     H3   92   3.294   4.227   4.544  0.4286  0.6264  0.7510
    4bbb     H4   93   3.179   4.090   4.590 -1.5200  0.3376  0.5238
    4bbb     C3   94   3.103   4.403   4.459  0.4893 -0.6534  0.0120
    4bbb     H5   95   3.190   4.429   4.396 -0.2487 -1.3334 -1.3418
    4bbb     H6   96   3.121   4.455   4.554  4.2217 -1.8989  0.1538
    4bbb     C4   97   2.981   4.469   4.383  0.0028 -0.0797  0.4962
    4bbb     H7   98   2.993   4.455   4.275 -1.5849 -1.0295  0.4011
    4bbb     H8   99   2.992   4.577   4.399 -0.5399  0.1185 -0.3984
    4bbb     C5  100   3.095   4.052   4.304 -0.0361  0.3298 -0.5154
    4bbb     H9  101   3.129   3.985   4.385  1.0143 -0.6016 -1.6918
    4bbb    H10  102   3.144   4.014   4.214 -1.1466 -3.1690  0.2276
    4bbb     C6  103   3.174   4.261   4.716 -0.6125 -0.2952 -0.6981
    4bbb    H11  104   3.219   4.361   4.705  0.5676 -0.9673 -2.3829
    4bbb    H12  105   3.236   4.205   4.787  0.9162  1.6304 -0.4199
    4bbb     C7  106   2.843   4.419   4.427  0.5322 -0.4794 -0.3982
    4bbb    H13  107   2.851   4.409   4.536  4.6107 -0.4576 -0.5233
    4bbb    H14  108   2.833   4.319   4.382  0.3499 -1.3154  1.4180
    4bbb     C8  109   3.030   4.256   4.767 -0.4084 -0.1075 -0.9089
    4bbb    H15  110   2.996   4.152   4.780 -0.8011  0.0384 -0.7586
    4bbb    H16  111   2.954   4.300   4.701 -1.1170 -0.8296 -0.6044
    4bbb     C9  112   2.942   4.047   4.285  0.7209 -0.1146  0.3690
    4bbb    H17  113   2.905   4.111   4.204 -2.8635 -4.4494 -1.9005
    4bbb    H18  114   2.899   4.077   4.381  3.3616  1.1750  1.2501
    4bbb     O1  115   2.735   4.503   4.381 -0.3484  0.1651 -0.1529
    5bbb     N1  116   1.099   5.063   4.825 -0.2624  0.7056  0.5353
    5bbb     C1  117   1.105   4.920   4.803  0.6745  0.1262  0.5791
    5bbb     H1  118   1.000   4.898   4.782  0.7444  2.0144 -2.1571
    5bbb     H2  119   1.152   4.864   4.886  1.4720  0.2773  0.2394
    5bbb     C2  120   1.011   5.104   4.937  0.3111 -0.3993 -0.5813
    5bbb     H3  121   1.004   5.214   4.940  1.8435 -0.2226 -2.0198
    5bbb     H4  122   1.067   5.082   5.029  1.1661  1.9072 -0.4934
    5bbb     C3  123   1.234   5.132   4.826  0.4966 -0.2974  0.2975
    5bbb     H5  124   1.291   5.105   4.736  3.0405 -2.9945  2.5186
    5bbb     H6  125   1.285   5.096   4.917 -0.2782 -1.9850  0.0980
    5bbb     C4  126   1.217   5.289   4.834  0.2962  0.0257  0.1070
    5bbb     H7  127   1.180   5.308   4.935 -0.5666  0.0547 -0.2083
    5bbb     H8  128   1.133   5.305   4.765 -0.2943 -2.0468  0.2760
    5bbb     C5  129   1.178   4.873   4.676  0.0706 -0.2317 -0.3681
    5bbb     H9  130   1.287   4.871   4.683  0.0291 -1.8380  0.2311
    5bbb    H10  131   1.161   4.948   4.597 -2.0537  0.0306  0.2549
    5bbb     C6  132   0.870   5.040   4.943 -0.3292 -0.5962 -0.0670
    5bbb    H11  133   0.884   4.933   4.962 -0.0145 -0.5317  0.0576
    5bbb    H12  134   0.810   5.045   4.851 -0.1510 -0.7058 -0.1898
    5bbb     C7  135   1.335   5.379   4.792 -0.1807 -0.4406 -0.4003
    5bbb    H13  136   1.332   5.482   4.831  2.4284  0.2362 -1.7228
    5bbb    H14  137   1.346   5.378   4.683  1.0368 -3.3579 -0.3354
    5bbb     C8  138   0.796   5.098   5.059  0.4468  0.2440  0.4165
    5bbb    H15  139   0.691   5.069   5.042  0.1960  1.0755  0.4875
    5bbb    H16  140   0.795   5.207   5.045  1.9093  0.4171  1.4456
    5bbb     C9  141   1.129   4.738   4.624  0.3026 -0.0289 -0.1430
    5bbb    H17  142   1.197   4.705   4.544 -0.0435 -1.4212  0.1086
    5bbb    H18  143   1.030   4.751   4.578  0.3846 -0.9260 -0.5906
    5bbb     O1  144   1.463   5.326   4.844  0.8755 -0.2923  0.7404
    6bbb     N1  145   2.080   4.649   5.167 -0.1935  0.4424  0.2800
    6bbb     C1  146   2.110   4.583   5.033  0.6708 -0.2491  0.0352
    6bbb     H1  147   2.015   4.544   4.994 -0.4496  2.7011 -0.4549
    6bbb     H2  148   2.170   4.492   5.045  3.2676  1.1121 -1.6366
    6bbb     C2  149   2.092   4.548   5.281  0.0371  0.1268 -0.3465
    6bbb     H3  150   2.041   4.454   5.254  1.3930 -1.4215  2.1244
    6bbb     H4  151   2.043   4.591   5.369 -0.2332  0.6109 -0.7308
    6bbb     C3  152   1.962   4.738   5.174 -0.2902  0.3534  0.2057
    6bbb     H5  153   1.874   4.691   5.220  0.4734 -1.8891 -0.5135
    6bbb     H6  154   1.934   4.778   5.076 -0.5679  0.5647  0.3674
    6bbb     C4  155   1.990   4.859   5.262 -0.6869 -0.6331 -0.1314
    6bbb     H7  156   2.025   4.828   5.361 -1.3187  0.3947  0.4291
    6bbb     H8  157   1.899   4.919   5.271  0.4412  1.5277 -2.0626
    6bbb     C5  158   2.170   4.676   4.925  0.3728  0.1196  0.8003
    6bbb     H9  159   2.112   4.768   4.916  2.4386  1.3472 -0.8902
    6bbb    H10  160   2.145   4.630   4.829 -0.5686  0.4646  0.8736
    6bbb     C6  161   2.240   4.515   5.310 -0.1535 -0.1526  0.0642
    6bbb    H11  162   2.290   4.478   5.220  0.1770  0.7304 -0.1232
    6bbb    H12  163   2.240   4.424   5.372  0.4710  0.6595  1.3019
    6bbb     C7  164   2.109   4.936   5.203 -0.2577 -0.0476  0.4203
    6bbb    H13  165   2.197   4.875   5.180 -0.3166 -0.3629  1.0132
    6bbb    H14  166   2.129   5.020   5.272 -0.2754  1.9593 -1.8892
    6bbb     C8  167   2.316   4.626   5.385 -0.0590 -0.2003 -0.7520
    6bbb    H15  168   2.244   4.656   5.462  0.9756  0.4158  0.0087
    6bbb    H16  169   2.332   4.711   5.317  0.3120 -0.2377 -0.7132
    6bbb     C9  170   2.323   4.700   4.939  0.8672 -0.1189  0.1557
    6bbb    H17  171   2.375   4.615   4.984  0.7315  0.9540  2.4734
    6bbb    H18  172   2.343   4.779   5.012  2.7173 -0.8335  0.4715
    6bbb     O1  173   2.085   4.992   5.074  0.7581 -0.5106  0.2827
    7bbb     N1  174   2.498   4.168   4.774 -1.2253  0.2909  0.0809
    7bbb     C1  175   2.429   4.141   4.644 -0.2981 -0.6112 -0.7403
    7bbb     H1  176   2.488   4.069   4.586 -0.7620 -1.5271 -0.0884
    7bbb     H2  177   2.408   4.236   4.592  0.8592  0.9674  1.4945
    7bbb     C2  178   2.649   4.168   4.765  0.6079 -0.7150 -0.1881
    7bbb     H3  179   2.692   4.169   4.866 -2.5996 -2.0891  1.3146
    7bbb     H4  180   2.673   4.266   4.721 -0.4619 -0.6005 -0.5382
    7bbb     C3  181   2.437   4.272   4.857  0.2408 -0.0657 -0.3321
    7bbb     H5  182   2.328   4.275   4.855  0.1190  3.7900  2.1588
    7bbb     H6  183   2.464   4.372   4.820  0.5427  0.7550  1.9717
    7bbb     C4  184   2.490   4.257   5.007  0.0498 -0.2887  0.3703
    7bbb     H7  185   2.447   4.334   5.073  2.3646  0.6342  0.9098
    7bbb     H8  186   2.598   4.276   5.006 -0.2447  1.5680  0.0268
    7bbb     C5  187   2.293   4.073   4.657  0.1701 -0.0422 -0.4962
    7bbb     H9  188   2.219   4.149   4.685 -2.4592 -2.9809  1.0741
    7bbb    H10  189   2.288   3.997   4.735 -3.2706  0.2355 -0.2879
    7bbb     C6  190   2.723   4.064   4.684  0.2609  0.5697  0.3479
    7bbb    H11  191   2.831   4.076   4.671  0.1541  1.6695  0.3717
    7bbb    H12  192   2.684   4.056   4.581 -1.3490 -0.2162  0.9783
    7bbb     C7  193   2.469   4.114   5.063 -0.1591 -0.7458 -0.1030
    7bbb    H13  194   2.530   4.096   5.153 -0.9679  0.5202  0.7288
    7bbb    H14  195   2.490   4.041   4.983 -1.7885 -1.0801 -0.2551
    7bbb     C8  196   2.699   3.919   4.733 -0.3990 -0.1984  0.5108
    7bbb    H15  197   2.736   3.844   4.662  1.2496  0.3471  0.7694
    7bbb    H16  198   2.591   3.897   4.737 -0.7843  1.5673  0.8320
    7bbb     C9  199   2.233   4.007   4.531 -0.8974 -0.0177 -0.5263
    7bbb    H17  200   2.291   3.921   4.496 -2.7906 -1.0238 -1.3465
    7bbb    H18  201   2.249   4.083   4.454 -0.5752  2.8208  2.1016
    7bbb     O1  202   2.335   4.106   5.095 -0.1743  0.2728  0.0977
    8bbb     N1  203   1.434   4.806   5.366 -0.4795  0.1638  0.8460
    8bbb     C1  204   1.514   4.859   5.249 -0.0972 -0.2980  0.0668
    8bbb     H1  205   1.496   4.796   5.161  3.3921 -0.5844 -0.5857
    8bbb     H2  206   1.622   4.841   5.255  0.3630  2.4804  2.8370
    8bbb     C2  207   1.279   4.815   5.359 -0.4331 -0.0964  0.4977
    8bbb     H3  208   1.244   4.915   5.332 -0.1875 -0.0867  0.2147
    8bbb     H4  209   1.241   4.800   5.461 -0.1471  0.6327  0.7146
    8bbb     C3  210   1.479   4.666   5.404 -0.2141 -0.5597 -0.0939
    8bbb     H5  211   1.453   4.586   5.333  2.1432 -1.0683 -0.4948
    8bbb     H6  212   1.417   4.646   5.492 -1.1114  2.1361 -0.0236
    8bbb     C4  213   1.629   4.638   5.454  0.1820 -0.2541 -0.0540
    8bbb     H7  214   1.677   4.717   5.512  0.1894  1.3728 -2.1557
    8bbb     H8  215   1.696   4.635   5.366  1.1812 -0.6931  0.6935
    8bbb     C5  216   1.494   5.015   5.212 -0.1996  0.5509  0.9691
    8bbb     H9  217   1.522   5.076   5.299 -1.2023  1.1346  0.9018
    8bbb    H10  218   1.388   5.039   5.199 -0.7263 -2.0301 -0.0363
    8bbb     C6  219   1.217   4.720   5.260  0.0105  0.1909 -0.1361
    8bbb    H11  220   1.231   4.614   5.287 -0.5411  0.3684  0.9191
    8bbb    H12  221   1.257   4.744   5.161  0.7163 -1.4120 -0.2792
    8bbb     C7  222   1.651   4.503   5.512  0.1615  0.1569 -0.0234
    8bbb    H13  223   1.586   4.467   5.593  0.0849  0.5399  0.0909
    8bbb    H14  224   1.756   4.511   5.543  1.6247 -1.2994 -4.0072
    8bbb     C8  225   1.067   4.746   5.263  0.4309 -0.6653 -0.4856
    8bbb    H15  226   1.024   4.677   5.189 -1.2563 -0.6978  0.4831
    8bbb    H16  227   1.050   4.849   5.229 -1.7295 -1.3700 -1.7651
    8bbb     C9  228   1.576   5.040   5.082  0.0235 -0.3947 -0.3043
    8bbb    H17  229   1.684   5.034   5.101  0.6222 -1.0727 -3.4162
    8bbb    H18  230   1.553   5.140   5.044 -0.6364 -0.2136  0.5354
    8bbb     O1  231   1.648   4.407   5.411 -0.6201  0.0166  0.7172
    9bbb     N1  232   2.851   4.348   5.377 -0.1759  0.1985  0.4000
    9bbb     C1  233   2.892   4.217   5.435  0.4836 -0.2432 -1.0683
    9bbb     H1  234   2.964   4.232   5.517 -1.0656 -0.2668  0.3649
    9bbb     H2  235   2.951   4.150   5.372 -1.1577 -1.5654 -1.2642
    9bbb     C2  236   2.926   4.475   5.404  0.0352  0.4279 -0.6972
    9bbb     H3  237   2.892   4.557   5.340  0.0630 -0.3290 -1.7039
    9bbb     H4  238   3.033   4.463   5.385  0.3320  1.3733  0.2945
    9bbb     C3  239   2.829   4.319   5.228  0.0091 -0.6336 -0.3648
    9bbb     H5  240   2.763   4.389   5.176 -0.4791 -2.5385 -2.4559
    9bbb     H6  241   2.785   4.219   5.230  0.2445 -0.7297  0.2467
    9bbb     C4  242   2.956   4.330   5.139  0.4302  0.0234  0.3193
    9bbb     H7  243   3.048   4.293   5.187  0.2124 -0.9148  0.0459
    9bbb     H8  244   2.981   4.436   5.128 -0.0831  0.1462  0.2916
    9bbb     C5  245   2.768   4.136   5.496  0.8120  0.3415  0.3060
    9bbb     H9  246   2.690   4.127   5.419  0.3179  0.9078  0.7373
    9bbb    H10  247   2.725   4.184   5.584  0.5112 -0.0115  0.3498
    9bbb     C6  248   2.917   4.516   5.548  0.4791  0.1832  0.1681
    9bbb    H11  249   2.926   4.427   5.611 -1.1006 -0.3224 -0.2790
    9bbb    H12  250   2.813   4.546   5.560  0.7893  1.1296  0.5414
    9bbb     C7  251   2.926   4.270   4.996 -0.1010 -0.6116  0.4381
    9bbb    H13  252   2.832   4.308   4.954  0.5779  0.5572 -0.0604
    9bbb    H14  253   2.922   4.162   5.014  0.4643 -0.8889 -0.9445
    9bbb     C8  254   3.002   4.634   5.600  0.1103 -0.8638  0.0477
    9bbb    H15  255   2.940   4.723   5.618  1.7203  0.9614 -2.7006
    9bbb    H16  256   3.088   4.659   5.536 -0.0924 -2.1538 -0.7609
    9bbb     C9  257   2.809   3.990   5.531 -0.1744  0.6718 -0.6815
    9bbb    H17  258   2.852   3.932   5.448 -0.5820 -1.6236  0.6215
    9bbb    H18  259   2.723   3.933   5.569  0.6798 -1.0389 -1.2326
    9bbb     O1  260   3.026   4.324   4.901 -0.6538  0.2887 -0.9093
   10bbb     N1  261   2.505   3.730   4.268  0.0181  0.2173 -0.0952
   10bbb     C1  262   2.356   3.730   4.230 -0.3031  0.7688 -0.5463
   10bbb     H1  263   2.320   3.809   4.163 -0.9590  0.5901 -0.4042
   10bbb     H2  264   2.308   3.751   4.327  1.4467  2.1446  0.0954
   10bbb     C2  265   2.543   3.646   4.380  0.0865  0.2710  0.1594
   10bbb     H3  266   2.651   3.658   4.395  0.5564  0.2823 -2.7166
   10bbb     H4  267   2.522   3.542   4.352 -1.1335  0.4613  0.3492
   10bbb     C3  268   2.588   3.729   4.149 -0.4360 -0.4420 -0.0624
   10bbb     H5  269   2.543   3.801   4.079  0.5504  1.4283  1.1528
   10bbb     H6  270   2.579   3.634   4.095 -0.9183 -0.9421  0.8796
   10bbb     C4  271   2.736   3.756   4.164  0.1343 -0.1906 -0.5059
   10bbb     H7  272   2.780   3.745   4.064 -2.1008 -1.7429 -1.3783
   10bbb     H8  273   2.780   3.684   4.234  1.0814 -0.3684 -1.2536
   10bbb     C5  274   2.292   3.593   4.194 -0.0407 -0.4842 -0.7046
   10bbb     H9  275   2.187   3.622   4.184  0.5351  2.4854  0.8577
   10bbb    H10  276   2.309   3.520   4.274  0.1702 -0.1639 -0.4576
   10bbb     C6  277   2.480   3.677   4.518  0.2803  0.4872  0.0647
   10bbb    H11  278   2.373   3.654   4.516  0.3389  0.2497 -1.2411
   10bbb    H12  279   2.491   3.785   4.530  0.9142  0.4413 -0.0774
   10bbb     C7  280   2.768   3.897   4.219 -0.2136 -0.5899  0.6597
   10bbb    H13  281   2.717   3.909   4.315  2.2851 -1.2912  2.1697
   10bbb    H14  282   2.739   3.974   4.148 -2.3127 -1.5323  0.4352
   10bbb     C8  283   2.536   3.587   4.633 -0.1369  0.2224  0.4109
   10bbb    H15  284   2.646   3.587   4.629 -0.1244 -1.7192 -0.6729
   10bbb    H16  285   2.498   3.486   4.609 -0.3644  0.6069 -0.9289
   10bbb     C9  286   2.335   3.534   4.065 -0.4466 -0.4297 -0.3221
   10bbb    H17  287   2.434   3.488   4.074  0.3654  1.2665 -0.3775
   10bbb    H18  288   2.350   3.617   3.996  2.0007  0.9571  1.7220
   10bbb     O1  289   2.908   3.910   4.245 -0.6162  0.1097 -0.0615
   11bbb     N1  290   1.049   5.331   5.449 -0.2155  0.2306  0.3890
   11bbb     C1  291   1.058   5.451   5.365  0.1001  1.3744  0.1901
   11bbb     H1  292   1.103   5.535   5.419 -1.2340  1.2466  1.5719
   11bbb     H2  293   0.957   5.494   5.357 -1.1385 -1.5483 -1.2494
   11bbb     C2  294   1.006   5.360   5.585  0.0145  0.1476  0.7563
   11bbb     H3  295   0.961   5.272   5.632  1.9477 -1.1278  0.3406
   11bbb     H4  296   0.938   5.446   5.591  1.1262  0.9626  2.4531
   11bbb     C3  297   0.988   5.211   5.389 -0.2835 -1.0728 -0.3467
   11bbb     H5  298   0.996   5.126   5.457 -1.1580 -0.5645  0.4177
   11bbb     H6  299   1.032   5.180   5.294 -0.4131 -1.4077 -0.2981
   11bbb     C4  300   0.841   5.235   5.360 -0.5429  0.2037 -0.5302
   11bbb     H7  301   0.825   5.320   5.292 -2.9527  0.8262  0.7060
   11bbb     H8  302   0.790   5.264   5.452 -2.1714 -0.1051 -1.3029
   11bbb     C5  303   1.127   5.437   5.223 -0.1266  0.3660 -0.1152
   11bbb     H9  304   1.120   5.531   5.166 -0.7823  0.6320  0.3944
   11bbb    H10  305   1.072   5.363   5.164  0.4761 -1.2652  1.2879
   11bbb     C6  306   1.125   5.413   5.675  0.2216  0.2411  0.0872
   11bbb    H11  307   1.195   5.475   5.617 -0.7470 -1.0175 -2.6204
   11bbb    H12  308   1.187   5.325   5.698  0.6021 -0.2841 -2.5996
   11bbb     C7  309   0.772   5.107   5.295 -0.4950  0.0987 -0.0128
   11bbb    H13  310   0.668   5.126   5.265 -0.1259  1.6509 -0.4380
   11bbb    H14  311   0.778   5.033   5.375 -2.0804 -0.0651 -0.0211
   11bbb     C8  312   1.074   5.496   5.797  0.1595 -0.1412  0.0327
   11bbb    H15  313   0.999   5.564   5.756 -0.7724 -0.2276  1.5180
   11bbb    H16  314   1.153   5.561   5.838 -2.1828  3.3247 -0.5418
   11bbb     C9  315   1.278   5.386   5.226 -0.1781 -0.4853  0.0836
   11bbb    H17  316   1.308   5.400   5.122  0.0780 -0.5272  0.1502
   11bbb    H18  317   1.296   5.279   5.241 -1.6682 -0.8434 -0.4918
   11bbb     O1  318   0.850   5.056   5.188 -0.2451 -0.0650 -0.2562
   12bbb     N1  319   0.889   4.505   5.015  0.1439 -0.0759  0.3405
   12bbb     C1  320   0.824   4.377   5.020 -0.4354  0.5847  0.1490
   12bbb     H1  321   0.826   4.326   4.923  2.8433 -0.8835  0.8641
   12bbb     H2  322   0.721   4.397   5.052 -2.0819 -1.2016 -3.4326
   12bbb     C2  323   0.805   4.598   4.927  0.0617  0.2974 -0.0366
   12bbb     H3  324   0.797   4.554   4.827 -0.6774 -0.5060  0.3665
   12bbb     H4  325   0.865   4.689   4.917  1.8010 -0.8278 -0.2024
   12bbb     C3  326   1.039   4.503   4.981  0.7508  0.0132 -0.3485
   12bbb     H5  327   1.090   4.457   5.067 -1.8364 -0.3664  1.0782
   12bbb     H6  328   1.063   4.609   4.974 -2.0831  0.9183  1.7837
   12bbb     C4  329   1.074   4.429   4.845 -0.0564  0.3229 -0.2637
   12bbb     H7  330   1.034   4.328   4.832  1.1732 -0.1714 -0.3309
   12bbb     H8  331   1.183   4.424   4.857  0.0631  3.9758  1.2984
   12bbb     C5  332   0.890   4.272   5.118  0.1056  0.7616 -0.2631
   12bbb     H9  333   0.999   4.270   5.106  1.0400  4.4932  4.3974
   12bbb    H10  334   0.840   4.175   5.108  0.0047  0.9802 -2.2634
   12bbb     C6  335   0.660   4.640   4.968  0.1945  0.4856  0.1506
   12bbb    H11  336   0.604   4.546   4.968 -2.0809  1.7682  1.4346
   12bbb    H12  337   0.610   4.703   4.894  1.8388 -0.5865 -2.0063
   12bbb     C7  338   1.065   4.507   4.715  0.0490  0.5403  0.0628
   12bbb    H13  339   0.958   4.509   4.689  0.3031 -1.8188 -1.4615
   12bbb    H14  340   1.113   4.462   4.627  1.9225  0.9722  0.8131
   12bbb     C8  341   0.667   4.701   5.108  0.1752  0.2799 -0.4224
   12bbb    H15  342   0.755   4.768   5.106 -0.8780  1.7839  1.0803
   12bbb    H16  343   0.694   4.617   5.172 -0.5926  0.2152 -0.1832
   12bbb     C9  344   0.866   4.308   5.269 -0.0831  1.5125  0.3122
   12bbb    H17  345   0.892   4.415   5.273  2.4324  0.9504  1.0475
   12bbb    H18  346   0.936   4.255   5.335  0.6423  2.6755  0.5211
   12bbb     O1  347   1.122   4.640   4.737 -0.2207  0.1303 -0.2659
   13bbb     N1  348   2.713   4.853   5.226  0.9748  0.3663 -0.4479
   13bbb     C1  349   2.637   4.894   5.103  0.1968  0.1658  0.5977
   13bbb     H1  350   2.609   5.000   5.104  2.8055  0.9760  3.2276
   13bbb     H2  351   2.549   4.830   5.088  1.4540 -1.4694 -0.0134
   13bbb     C2  352   2.791   4.958   5.296 -1.1274 -0.0055 -0.1500
   13bbb     H3  353   2.730   4.995   5.379 -0.4638  0.9967 -0.0928
   13bbb     H4  354   2.813   5.036   5.221  2.9587  0.3082  1.1600
   13bbb     C3  355   2.640   4.754   5.308  0.1045 -0.8164 -0.4844
   13bbb     H5  356   2.556   4.802   5.359  1.9523  0.8892  1.0877
   13bbb     H6  357   2.700   4.729   5.396  0.1040  0.4767 -0.0988
   13bbb     C4  358   2.589   4.621   5.248  0.1899 -0.4308 -0.3915
   13bbb     H7  359   2.669   4.565   5.198 -0.7684 -0.5207 -1.8856
   13bbb     H8  360   2.509   4.634   5.174  1.4758 -1.4218 -2.0331
   13bbb     C5  361   2.725   4.878   4.975  0.3776  0.5546  0.2881
   13bbb     H9  362   2.802   4.956   4.970  0.1091  0.7431 -2.0111
   13bbb    H10  363   2.672   4.905   4.883 -1.8389 -0.2644  1.2516
   13bbb     C6  364   2.927   4.906   5.360  0.7083  0.1036  0.5874
   13bbb    H11  365   2.900   4.854   5.452 -1.4000  1.9316  1.0964
   13bbb    H12  366   2.979   4.995   5.398 -0.4998  0.3823  1.6481
   13bbb     C7  367   2.536   4.539   5.369 -1.0291  0.6366 -0.3568
   13bbb    H13  368   2.630   4.516   5.420  1.0276  1.5793 -3.4222
   13bbb    H14  369   2.484   4.448   5.334 -2.2915  1.2787 -0.2199
   13bbb     C8  370   3.017   4.825   5.258 -0.2014 -0.4258 -0.0086
   13bbb    H15  371   3.015   4.876   5.160 -1.0671  1.1754  0.8002
   13bbb    H16  372   2.970   4.726   5.254 -0.2368 -0.3924 -2.6169
   13bbb     C9  373   2.784   4.735   4.971 -0.2998  0.7847  0.0301
   13bbb    H17  374   2.706   4.658   4.969  1.8227 -1.5195  0.3873
   13bbb    H18  375   2.841   4.721   5.064  2.5208  0.2925 -1.6406
   13bbb     O1  376   2.442   4.596   5.455 -0.4935 -0.5538  0.1926
   14bbb     N1  377   2.506   5.104   4.633 -0.3647 -0.6394 -0.7178
   14bbb     C1  378   2.399   5.194   4.678  0.1693 -0.6156  0.2373
   14bbb     H1  379   2.309   5.138   4.706 -2.0044  3.0179  1.1977
   14bbb     H2  380   2.358   5.243   4.589  0.0981 -2.0700 -0.5594
   14bbb     C2  381   2.632   5.165   4.592 -0.2070 -0.0948  0.3805
   14bbb     H3  382   2.665   5.248   4.655 -3.9474  0.3692  1.9800
   14bbb     H4  383   2.599   5.209   4.497 -1.1506 -0.0979  0.6980
   14bbb     C3  384   2.462   4.988   4.558  0.5431  0.6062  0.3214
   14bbb     H5  385   2.515   4.977   4.463 -0.2196 -0.1829 -0.0283
   14bbb     H6  386   2.358   5.008   4.529  0.3302 -0.2469  0.4598
   14bbb     C4  387   2.472   4.859   4.632  0.9925  0.1128 -0.3902
   14bbb     H7  388   2.576   4.831   4.652  0.5536 -2.0549 -0.9128
   14bbb     H8  389   2.432   4.778   4.570 -0.8625 -0.2958  1.2618
   14bbb     C5  390   2.444   5.301   4.773  0.2068  0.2887 -0.0421
   14bbb     H9  391   2.354   5.361   4.791 -1.2270 -1.5090 -0.9072
   14bbb    H10  392   2.507   5.381   4.731 -0.6394  1.6119  1.1085
   14bbb     C6  393   2.758   5.069   4.578 -0.1666 -0.2870 -0.2512
   14bbb    H11  394   2.745   4.996   4.497  2.0555 -0.4720 -0.5067
   14bbb    H12  395   2.771   5.009   4.669  0.4509 -0.7813 -0.6563
   14bbb     C7  396   2.373   4.863   4.757  0.1164 -0.2248  0.3378
   14bbb    H13  397   2.269   4.873   4.724  0.3727 -1.1745 -0.8396
   14bbb    H14  398   2.386   4.944   4.830  1.2204  0.8533 -0.9834
   14bbb     C8  399   2.894   5.141   4.552 -0.2044  0.2648 -0.5610
   14bbb    H15  400   2.877   5.229   4.488  3.2040  0.5739 -1.1896
   14bbb    H16  401   2.971   5.074   4.514  1.8607  2.0505  0.2812
   14bbb     C9  402   2.509   5.234   4.896 -0.0364 -0.0494 -0.5653
   14bbb    H17  403   2.594   5.178   4.856  0.0112  1.4847 -2.8377
   14bbb    H18  404   2.444   5.152   4.928  1.9140 -0.9106  1.4867
   14bbb     O1  405   2.392   4.728   4.812  0.2798 -0.0995 -0.2833
   15bbb     N1  406   2.817   3.668   5.294  0.2290 -0.4544 -0.0667
   15bbb     C1  407   2.961   3.636   5.282  0.6181 -0.9682 -0.1524
   15bbb     H1  408   3.006   3.638   5.382 -0.3687 -1.1754  0.3114
   15bbb     H2  409   2.997   3.720   5.222 -1.9331 -0.8261 -1.6503
   15bbb     C2  410   2.754   3.578   5.407  0.2786 -0.7484  0.1251
   15bbb     H3  411   2.829   3.575   5.486 -0.6081 -0.5562  0.9855
   15bbb     H4  412   2.734   3.474   5.378 -0.4861 -0.7295  0.5451
   15bbb     C3  413   2.739   3.661   5.162 -0.9263 -0.2808 -0.0988
   15bbb     H5  414   2.632   3.680   5.178 -0.4160  2.1862  0.8886
   15bbb     H6  415   2.752   3.567   5.108  1.7137 -0.2020  0.2805
   15bbb     C4  416   2.794   3.775   5.070 -0.4893  0.1766  0.1559
   15bbb     H7  417   2.893   3.757   5.026 -0.9965  1.1652 -1.4683
   15bbb     H8  418   2.788   3.873   5.117 -0.5110  1.0053 -1.4947
   15bbb     C5  419   2.988   3.501   5.214 -0.0146 -0.4558  0.0181
   15bbb     H9  420   2.966   3.499   5.106  0.0330 -1.3349  0.0208
   15bbb    H10  421   2.927   3.422   5.259  0.3617 -0.9315 -0.2964
   15bbb     C6  422   2.623   3.638   5.458 -0.3369  0.3491 -0.1382
   15bbb    H11  423   2.550   3.643   5.376 -0.5196 -1.9408 -0.1731
   15bbb    H12  424   2.632   3.744   5.486 -0.3206  0.1738  0.5550
   15bbb     C7  425   2.697   3.788   4.943 -0.5172 -0.0679 -0.5561
   15bbb    H13  426   2.594   3.817   4.969 -0.2443  1.2920 -0.9286
   15bbb    H14  427   2.686   3.698   4.881 -0.1221  0.2277 -1.0639
   15bbb     C8  428   2.567   3.560   5.578 -0.2449  0.0516 -0.6733
   15bbb    H15  429   2.540   3.458   5.550  0.6228 -0.2485 -0.4251
   15bbb    H16  430   2.480   3.619   5.613  1.5751  1.9802  0.9143
   15bbb     C9  431   3.137   3.458   5.196  0.0405 -0.2280  0.3824
   15bbb    H17  432   3.197   3.484   5.284 -0.9635 -2.1430  1.7026
   15bbb    H18  433   3.164   3.519   5.109 -0.3112 -1.5196 -0.6683
   15bbb     O1  434   2.749   3.895   4.862  0.0572 -0.1698 -0.4638
   16bbb     N1  435   1.690   3.869   4.753 -0.4414  0.2175  0.3810
   16bbb     C1  436   1.699   3.782   4.874 -0.0231 -0.1233  0.4974
   16bbb     H1  437   1.739   3.845   4.954 -0.0192 -1.6838  1.7594
   16bbb     H2  438   1.764   3.695   4.858 -0.5067 -0.4515  0.2906
   16bbb     C2  439   1.580   3.973   4.754  0.2742 -0.0466  0.1374
   16bbb     H3  440   1.596   4.051   4.829  1.0600 -2.4515  2.6238
   16bbb     H4  441   1.479   3.941   4.780 -0.2525  3.5650  3.4364
   16bbb     C3  442   1.827   3.919   4.706  0.3912 -0.4131 -0.1004
   16bbb     H5  443   1.886   3.939   4.797 -1.2284 -0.2577  0.9715
   16bbb     H6  444   1.821   4.019   4.661  1.2950  1.6003  3.7403
   16bbb     C4  445   1.907   3.824   4.630  0.3047  0.1520  0.0411
   16bbb     H7  446   1.872   3.817   4.526  0.7669 -1.2930 -0.0336
   16bbb     H8  447   1.898   3.721   4.667 -1.8098  0.6179  1.0288
   16bbb     C5  448   1.569   3.715   4.925 -0.1983 -0.3369 -0.3413
   16bbb     H9  449   1.545   3.628   4.863  1.8977 -2.2353  1.3346
   16bbb    H10  450   1.479   3.776   4.909 -0.8940 -1.3961 -0.5773
   16bbb     C6  451   1.558   4.045   4.617  0.3022 -0.0552  0.1720
   16bbb    H11  452   1.541   3.969   4.539 -2.5435  0.8310 -0.1828
   16bbb    H12  453   1.661   4.077   4.595  1.5813 -1.3741  3.4703
   16bbb     C7  454   2.061   3.856   4.623 -1.0240 -0.1964  0.1185
   16bbb    H13  455   2.116   3.768   4.589  0.5653  0.5716  0.5926
   16bbb    H14  456   2.089   3.869   4.729 -0.8721 -0.5755  0.1273
   16bbb     C8  457   1.455   4.152   4.623 -0.3918  0.2855  0.3066
   16bbb    H15  458   1.463   4.213   4.532 -1.5435 -1.2014 -0.8225
   16bbb    H16  459   1.458   4.212   4.715 -2.5792  1.2653 -0.1954
   16bbb     C9  460   1.579   3.674   5.063  0.4856  0.4147 -0.0946
   16bbb    H17  461   1.602   3.761   5.126 -0.0693  1.0943 -0.8161
   16bbb    H18  462   1.668   3.611   5.075  1.2576  1.0150 -2.2236
   16bbb     O1  463   2.088   3.978   4.551  0.5485  0.1122  0.2634
   17bbb     N1  464   0.896   4.887   5.757  0.4235 -0.3496 -0.7066
   17bbb     C1  465   0.987   4.997   5.810 -0.4728  0.2501 -0.0946
   17bbb     H1  466   0.973   5.097   5.767 -0.0360  1.1812  1.7843
   17bbb     H2  467   1.086   4.955   5.791 -0.3560  0.2558  0.4834
   17bbb     C2  468   0.751   4.891   5.809 -0.2150  0.3805  0.2452
   17bbb     H3  469   0.747   4.894   5.919  1.3660  1.4375  0.2871
   17bbb     H4  470   0.706   4.800   5.766 -0.9720  0.8875 -0.0614
   17bbb     C3  471   0.907   4.883   5.606  0.2981 -0.1102 -0.4059
   17bbb     H5  472   1.014   4.875   5.588  0.6311 -1.2297  1.6502
   17bbb     H6  473   0.880   4.982   5.567 -1.7124  0.3641  1.9052
   17bbb     C4  474   0.829   4.769   5.540 -0.1441 -0.3905  0.9916
   17bbb     H7  475   0.721   4.789   5.536 -0.0478  0.0063 -2.2123
   17bbb     H8  476   0.832   4.673   5.593 -0.9268 -0.3113  1.1949
   17bbb     C5  477   0.987   5.028   5.968 -0.3212  0.7081 -0.8222
   17bbb     H9  478   0.886   5.055   5.999 -0.7070 -1.3886 -0.1151
   17bbb    H10  479   1.053   5.115   5.982  1.9442  0.1912 -6.0040
   17bbb     C6  480   0.658   5.003   5.761 -0.0269  0.2541 -0.0601
   17bbb    H11  481   0.556   4.980   5.795  0.6983 -0.7606  1.5120
   17bbb    H12  482   0.652   5.002   5.651 -0.0175 -0.3830 -0.0547
   17bbb     C7  483   0.872   4.751   5.395 -0.3618 -0.3489 -0.2383
   17bbb    H13  484   0.845   4.840   5.338 -0.9367 -0.3527  0.0201
   17bbb    H14  485   0.824   4.669   5.340 -1.7117  0.7899 -0.8087
   17bbb     C8  486   0.690   5.143   5.815 -0.5634 -0.1887 -0.0857
   17bbb    H15  487   0.793   5.170   5.788 -0.3442 -0.1339  0.7571
   17bbb    H16  488   0.690   5.132   5.925 -4.5294  1.3656  0.2349
   17bbb     C9  489   1.031   4.913   6.058 -0.2245 -0.0220  0.3290
   17bbb    H17  490   1.135   4.885   6.038 -0.5421 -0.1875 -1.2761
   17bbb    H18  491   0.963   4.830   6.034  0.6425 -0.5277 -0.4361
   17bbb     O1  492   1.014   4.722   5.394 -0.0257  0.2806  0.0273
   18bbb     N1  493   1.616   4.590   4.725 -0.0549  0.0333 -0.4270
   18bbb     C1  494   1.605   4.475   4.818  0.0080  0.2855 -0.8692
   18bbb     H1  495   1.699   4.471   4.873 -1.3168 -0.9357  1.4851
   18bbb     H2  496   1.592   4.377   4.770  2.1487 -0.4605 -0.0031
   18bbb     C2  497   1.698   4.558   4.609  0.4106 -0.1890  0.1585
   18bbb     H3  498   1.665   4.465   4.562 -1.4488  1.3619 -1.7933
   18bbb     H4  499   1.803   4.556   4.640  0.6626 -1.9683 -0.7108
   18bbb     C3  500   1.665   4.719   4.791 -0.8249  0.8285  0.5322
   18bbb     H5  501   1.767   4.743   4.757 -0.6031 -0.9942 -0.1887
   18bbb     H6  502   1.670   4.696   4.898 -3.0891 -2.7217  0.0056
   18bbb     C4  503   1.573   4.835   4.772  0.1764  0.7552  0.1780
   18bbb     H7  504   1.470   4.801   4.787  0.0452  1.9390  2.4374
   18bbb     H8  505   1.598   4.865   4.670  1.4851 -1.5203 -0.2323
   18bbb     C5  506   1.489   4.491   4.917  0.2523  0.7005 -0.7789
   18bbb     H9  507   1.394   4.499   4.862 -0.3659 -2.5662 -0.3756
   18bbb    H10  508   1.510   4.588   4.965 -0.6065  0.3596  0.3418
   18bbb     C6  509   1.688   4.671   4.496 -0.0008  0.1009 -0.1730
   18bbb    H11  510   1.771   4.739   4.517  0.8119 -1.5434  2.4480
   18bbb    H12  511   1.593   4.718   4.523  0.3088  0.3900  0.4240
   18bbb     C7  512   1.606   4.951   4.862  0.4028  0.8157 -0.0007
   18bbb    H13  513   1.574   5.045   4.816 -0.7379  0.8247  0.7593
   18bbb    H14  514   1.713   4.959   4.880  1.0001 -0.9868 -2.3281
   18bbb     C8  515   1.673   4.606   4.355  0.0396  0.3116  0.3944
   18bbb    H15  516   1.686   4.693   4.289  0.4916  0.3630  0.5510
   18bbb    H16  517   1.574   4.569   4.326  0.5193  1.0405 -2.5632
   18bbb     C9  518   1.492   4.374   5.025 -0.2078  0.5580  0.0946
   18bbb    H17  519   1.426   4.387   5.111 -2.4424 -1.7180 -1.1382
   18bbb    H18  520   1.591   4.365   5.073  0.1657  1.1671 -0.5452
   18bbb     O1  521   1.542   4.942   4.985  0.2131 -0.1207 -0.4850
   19bbb     N1  522   3.448   4.690   5.906 -0.1811 -0.3098  0.7330
   19bbb     C1  523   3.553   4.792   5.920  0.0163 -0.6201  0.1380
   19bbb     H1  524   3.496   4.884   5.898 -1.4315 -1.0833  1.7540
   19bbb     H2  525   3.640   4.785   5.853  0.8977 -0.6849  1.2619
   19bbb     C2  526   3.488   4.550   5.938  0.0476 -0.4632  0.2081
   19bbb     H3  527   3.405   4.484   5.911 -1.6956  1.0765  1.5791
   19bbb     H4  528   3.494   4.545   6.047 -1.2151  2.2292  0.4939
   19bbb     C3  529   3.318   4.731   5.976 -0.0985  0.6818  0.8312
   19bbb     H5  530   3.295   4.838   5.974  0.8178  0.8808  0.1955
   19bbb     H6  531   3.332   4.708   6.082 -0.8135  0.0913  0.8020
   19bbb     C4  532   3.193   4.655   5.925 -0.2964  0.2453 -0.3578
   19bbb     H7  533   3.111   4.652   5.999 -0.7541 -0.7001 -0.8731
   19bbb     H8  534   3.213   4.548   5.911 -0.1410  0.4563 -1.8781
   19bbb     C5  535   3.613   4.810   6.061  0.3229 -0.1565  0.4019
   19bbb     H9  536   3.676   4.722   6.075 -0.4468 -0.5828  1.4035
   19bbb    H10  537   3.526   4.809   6.128 -0.7273  1.4125 -0.8629
   19bbb     C6  538   3.615   4.501   5.862  0.1668  0.3863  0.3451
   19bbb    H11  539   3.635   4.396   5.883  1.9978  0.9997  1.9417
   19bbb    H12  540   3.695   4.559   5.910 -0.0727 -0.1856  1.4714
   19bbb     C7  541   3.132   4.702   5.789  0.4628  0.0436 -0.5561
   19bbb    H13  542   3.211   4.729   5.718  1.7690 -1.6721  0.1585
   19bbb    H14  543   3.068   4.790   5.805 -0.9209 -1.0307  0.0140
   19bbb     C8  544   3.613   4.542   5.709  0.1136 -0.4956  0.0592
   19bbb    H15  545   3.640   4.648   5.701 -1.5379 -0.1779 -2.7861
   19bbb    H16  546   3.511   4.533   5.671 -0.4648  0.9811  1.1458
   19bbb     C9  547   3.687   4.937   6.089  0.0628  0.0695  0.0962
   19bbb    H17  548   3.728   4.931   6.191 -0.9565 -0.2899  0.5002
   19bbb    H18  549   3.610   5.016   6.087 -1.2720 -1.2018 -1.1481
   19bbb     O1  550   3.057   4.599   5.727  0.0002 -0.3434  0.0202
   20bbb     N1  551   3.294   3.914   5.441  0.3988  0.3115  0.8754
   20bbb     C1  552   3.246   3.883   5.306 -0.5527 -0.4606  0.0074
   20bbb     H1  553   3.176   3.800   5.325 -1.9932  0.8855  0.8091
   20bbb     H2  554   3.332   3.855   5.243 -0.0381 -0.2224  0.6022
   20bbb     C2  555   3.410   4.004   5.449  0.1109 -0.2949 -0.0506
   20bbb     H3  556   3.420   4.024   5.557 -0.8826  0.2032 -0.0334
   20bbb     H4  557   3.379   4.093   5.391 -0.2002 -2.0812 -2.8058
   20bbb     C3  558   3.189   3.955   5.544 -0.0691  0.4316 -0.3326
   20bbb     H5  559   3.132   4.044   5.516 -0.3711  1.0192  1.9720
   20bbb     H6  560   3.231   3.970   5.644  0.2810  1.4182 -0.6262
   20bbb     C4  561   3.081   3.838   5.572 -0.6245 -0.4082  0.3949
   20bbb     H7  562   3.129   3.742   5.596 -0.6657 -1.3058 -2.6423
   20bbb     H8  563   3.035   3.810   5.476  0.1421 -0.6678  0.0930
   20bbb     C5  564   3.172   3.996   5.233 -0.4641 -0.0280  0.5271
   20bbb     H9  565   3.207   4.094   5.267  2.7840 -0.8269 -0.1376
   20bbb    H10  566   3.066   3.982   5.258 -1.0917 -1.9115 -2.6844
   20bbb     C6  567   3.543   3.952   5.386 -1.0893 -0.4682  0.2115
   20bbb    H11  568   3.532   3.950   5.277 -2.3473  0.5187  0.3132
   20bbb    H12  569   3.572   3.849   5.411 -3.6619 -1.9138 -2.1404
   20bbb     C7  570   2.972   3.878   5.678 -0.4258  0.3826  0.0144
   20bbb    H13  571   3.028   3.897   5.770  0.8255  1.8293 -0.9908
   20bbb    H14  572   2.900   3.799   5.699  2.2698 -2.0825  0.5602
   20bbb     C8  573   3.672   4.040   5.422  0.0250  0.2486  0.4123
   20bbb    H15  574   3.655   4.144   5.391  0.2592  0.0864 -0.2758
   20bbb    H16  575   3.753   4.005   5.358  0.2895 -0.8416  1.3136
   20bbb     C9  576   3.195   3.992   5.077 -0.2314 -0.5305  0.4191
   20bbb    H17  577   3.302   3.970   5.067 -0.2561 -0.4603 -0.0411
   20bbb    H18  578   3.169   4.092   5.041 -0.3789 -0.6693  0.1273
   20bbb     O1  579   2.906   3.995   5.633 -0.0255  0.5212 -0.8572
   21bbb     N1  580   2.324   3.522   5.164 -0.3542 -0.4494  0.3020
   21bbb     C1  581   2.403   3.417   5.237 -0.1498  0.8460 -0.1728
   21bbb     H1  582   2.361   3.403   5.337 -1.0321  0.8109 -0.5308
   21bbb     H2  583   2.509   3.445   5.242  0.5494 -1.7914  1.5125
   21bbb     C2  584   2.299   3.648   5.237  0.5035  0.1833 -0.0464
   21bbb     H3  585   2.225   3.702   5.177  0.6317  0.0868 -0.2938
   21bbb     H4  586   2.390   3.710   5.235  0.7125 -0.0895  0.6660
   21bbb     C3  587   2.391   3.549   5.032  0.2906 -0.2331  0.2888
   21bbb     H5  588   2.443   3.464   4.988 -0.3179 -0.0998 -0.7150
   21bbb     H6  589   2.471   3.623   5.045 -1.9604  2.4325 -0.1031
   21bbb     C4  590   2.293   3.598   4.923 -0.2659  0.2919  0.2018
   21bbb     H7  591   2.289   3.707   4.934  2.1640  0.4958 -0.3918
   21bbb     H8  592   2.194   3.552   4.935 -0.4477  0.1529 -1.4787
   21bbb     C5  593   2.397   3.276   5.173 -0.0953 -0.3935 -0.0389
   21bbb     H9  594   2.369   3.276   5.067 -1.3934  2.2764  0.2374
   21bbb    H10  595   2.325   3.216   5.231  0.5499  0.4058  1.6708
   21bbb     C6  596   2.244   3.626   5.379  0.2607  0.1173 -0.7214
   21bbb    H11  597   2.322   3.578   5.439 -1.2092  0.1869  1.3352
   21bbb    H12  598   2.160   3.557   5.389  0.6027 -0.0902  1.1893
   21bbb     C7  599   2.342   3.570   4.784 -0.2827 -0.0851 -0.5378
   21bbb    H13  600   2.269   3.616   4.716 -0.0848 -2.6212 -2.6307
   21bbb    H14  601   2.342   3.465   4.753  1.0235  0.4513 -2.5173
   21bbb     C8  602   2.199   3.752   5.454 -0.3928 -0.0243  1.0721
   21bbb    H15  603   2.169   3.713   5.552 -0.3132 -0.4030  0.9485
   21bbb    H16  604   2.120   3.796   5.391 -0.0186 -1.4096 -0.4433
   21bbb     C9  605   2.539   3.214   5.177  0.1095 -0.2533 -0.0267
   21bbb    H17  606   2.609   3.285   5.132 -1.1552  1.1379  0.1039
   21bbb    H18  607   2.535   3.123   5.116 -2.8219 -0.9758  1.0666
   21bbb     O1  608   2.479   3.620   4.768  0.3429 -0.1071  0.7074
   22bbb     N1  609   2.139   3.035   3.865  0.5485  0.3731 -0.1289
   22bbb     C1  610   2.209   2.907   3.907  0.6669 -0.0628  0.4916
   22bbb     H1  611   2.315   2.934   3.915  0.5341  0.3785  0.8294
   22bbb     H2  612   2.202   2.830   3.830 -0.4409  0.5794 -0.0804
   22bbb     C2  613   1.991   3.027   3.850  0.5225 -0.1633 -0.0650
   22bbb     H3  614   1.948   3.118   3.807 -0.2448 -0.7481 -0.5527
   22bbb     H4  615   1.933   3.018   3.943  1.7535 -1.0765  0.6470
   22bbb     C3  616   2.188   3.159   3.936  0.4345  0.4501  0.6605
   22bbb     H5  617   2.297   3.152   3.920  0.1412  1.2314 -2.1719
   22bbb     H6  618   2.166   3.165   4.043  0.9706 -0.8387  0.8751
   22bbb     C4  619   2.150   3.290   3.859 -0.7176 -0.7491  0.4079
   22bbb     H7  620   2.056   3.334   3.894 -1.1010 -0.1019 -1.3619
   22bbb     H8  621   2.141   3.262   3.754 -0.4608 -2.0189  0.7055
   22bbb     C5  622   2.154   2.857   4.043 -0.3499  0.1662 -0.6980
   22bbb     H9  623   2.057   2.807   4.037 -1.9962  2.5657  2.6013
   22bbb    H10  624   2.126   2.946   4.102  0.1103  2.0169 -3.1168
   22bbb     C6  625   1.938   2.917   3.759 -0.4723  0.4075  0.7731
   22bbb    H11  626   1.972   2.820   3.798 -1.7667 -0.5800 -0.4593
   22bbb    H12  627   1.992   2.934   3.665 -0.3940 -1.3432  0.4775
   22bbb     C7  628   2.243   3.409   3.875 -0.2116 -0.3154 -0.0050
   22bbb    H13  629   2.204   3.500   3.827 -1.7298 -0.7149  0.4097
   22bbb    H14  630   2.343   3.384   3.839 -0.0794 -0.4800  0.4664
   22bbb     C8  631   1.786   2.934   3.721  0.1351  0.3543 -0.9526
   22bbb    H15  632   1.753   2.870   3.638 -0.1715 -1.2344  0.3443
   22bbb    H16  633   1.767   3.033   3.678 -0.1607  1.4644  1.5260
   22bbb     C9  634   2.249   2.773   4.132 -0.5115 -0.0966 -0.6216
   22bbb    H17  635   2.328   2.843   4.162 -0.9757 -0.9249  2.9681
   22bbb    H18  636   2.293   2.686   4.081 -0.2923 -1.0027  1.0579
   22bbb     O1  637   2.245   3.435   4.016 -0.4095 -0.0210 -0.2196
   23bbb     N1  638   0.741   5.383   6.293  0.3987  0.0436  0.1838
   23bbb     C1  639   0.631   5.445   6.372 -0.3862  0.1643 -0.4292
   23bbb     H1  640   0.580   5.362   6.421  0.9172  0.1372  0.9750
   23bbb     H2  641   0.558   5.481   6.299  1.3679  0.4515 -2.1489
   23bbb     C2  642   0.824   5.295   6.386 -0.0007  0.1847  0.3662
   23bbb     H3  643   0.866   5.355   6.468 -0.7294  1.8638 -0.4228
   23bbb     H4  644   0.909   5.244   6.340 -0.4820  0.1536 -0.5130
   23bbb     C3  645   0.816   5.479   6.215  0.5645  0.1032 -0.0261
   23bbb     H5  646   0.893   5.532   6.274 -0.0167  2.7792 -1.5367
   23bbb     H6  647   0.744   5.553   6.180 -0.0955  0.1893  1.4476
   23bbb     C4  648   0.879   5.399   6.099 -0.4185  1.0966  0.5493
   23bbb     H7  649   0.807   5.342   6.040  2.0177  1.5969 -3.2074
   23bbb     H8  650   0.954   5.329   6.137 -1.2105  0.7954  1.6358
   23bbb     C5  651   0.674   5.553   6.477 -0.1057 -0.1851  0.1341
   23bbb     H9  652   0.731   5.631   6.425  1.7141 -2.7081 -1.9100
   23bbb    H10  653   0.738   5.511   6.555  0.8257 -1.2841 -1.1656
   23bbb     C6  654   0.743   5.182   6.459 -0.4374 -0.8371  0.0740
   23bbb    H11  655   0.670   5.213   6.534  0.0474 -2.4917  1.2686
   23bbb    H12  656   0.822   5.123   6.507 -1.3169 -0.5777  1.9248
   23bbb     C7  657   0.962   5.492   6.006  0.1561  0.1336 -0.4674
   23bbb    H13  658   1.057   5.523   6.051 -0.2116  0.6260 -0.0377
   23bbb    H14  659   0.906   5.581   5.977 -1.9056 -0.6439  0.9113
   23bbb     C8  660   0.676   5.084   6.368  0.3644  0.2596 -0.0099
   23bbb    H15  661   0.747   5.025   6.308  1.4047  1.1786  0.3034
   23bbb    H16  662   0.613   5.131   6.290 -1.0667  0.6428  1.3331
   23bbb     C9  663   0.544   5.616   6.539 -0.2988  0.9931 -0.2543
   23bbb    H17  664   0.480   5.533   6.571  1.6521 -0.6828 -0.5167
   23bbb    H18  665   0.489   5.670   6.461  1.4863  0.7769 -1.7561
   23bbb     O1  666   1.006   5.412   5.886  0.0971  0.0463 -1.1362
   24bbb     N1  667   1.563   5.523   5.699 -0.4969  0.5204 -0.5769
   24bbb     C1  668   1.579   5.670   5.709 -0.1114 -0.4152  0.0515
   24bbb     H1  669   1.641   5.715   5.630  0.1720 -0.0528  0.4784
   24bbb     H2  670   1.641   5.685   5.798 -3.0142  0.7202  2.0634
   24bbb     C2  671   1.526   5.461   5.828 -0.2832  1.0053 -0.2915
   24bbb     H3  672   1.497   5.357   5.808 -1.0186  1.4393 -1.6152
   24bbb     H4  673   1.436   5.514   5.863 -0.1476 -0.1920  2.0998
   24bbb     C3  674   1.494   5.466   5.587 -0.1961  0.7008  0.0977
   24bbb     H5  675   1.389   5.498   5.589 -0.9841 -1.6434 -0.6206
   24bbb     H6  676   1.508   5.358   5.583  4.8045  1.1644 -1.4168
   24bbb     C4  677   1.562   5.511   5.449 -1.0737 -0.3325  0.1456
   24bbb     H7  678   1.670   5.489   5.452 -1.5351 -2.9090  2.7045
   24bbb     H8  679   1.549   5.618   5.430  2.5072  0.4090  1.1152
   24bbb     C5  680   1.449   5.752   5.728  0.2889  0.1065  0.8841
   24bbb     H9  681   1.431   5.753   5.836 -2.6797 -1.9722  0.5130
   24bbb    H10  682   1.360   5.705   5.684  0.4975  0.4048  0.1169
   24bbb     C6  683   1.633   5.451   5.945 -0.0786  0.1760  0.7768
   24bbb    H11  684   1.653   5.552   5.983 -0.4141  1.0442 -1.2279
   24bbb    H12  685   1.727   5.410   5.907  1.3874  1.9776  2.2424
   24bbb     C7  686   1.496   5.437   5.334  0.1260  0.0214  0.2629
   24bbb    H13  687   1.503   5.331   5.360 -0.2537  0.1587  0.9409
   24bbb    H14  688   1.552   5.467   5.244  1.4548  2.7697  1.8810
   24bbb     C8  689   1.598   5.374   6.073  0.3729 -0.2024 -0.0022
   24bbb    H15  690   1.503   5.405   6.118  0.7702  0.4604  0.3775
   24bbb    H16  691   1.682   5.387   6.142  0.5224 -0.3925 -0.1462
   24bbb     C9  692   1.462   5.894   5.668  0.7255 -0.3287  0.2417
   24bbb    H17  693   1.488   5.876   5.563  0.2546 -1.4489  0.3036
   24bbb    H18  694   1.557   5.930   5.710 -0.1157 -0.1758  2.1148
   24bbb     O1  695   1.355   5.467   5.317 -0.2042  0.0469 -0.0053
   25bbb     N1  696   0.277   4.901   5.528 -0.0390 -0.1934 -0.0609
   25bbb     C1  697   0.261   4.872   5.670  0.0012 -0.9324 -0.5606
   25bbb     H1  698   0.153   4.859   5.690 -0.3977 -0.6553 -2.4030
   25bbb     H2  699   0.295   4.949   5.740 -1.1393  0.5172 -1.5317
   25bbb     C2  700   0.185   5.010   5.484  0.7195 -0.2313 -0.6537
   25bbb     H3  701   0.204   5.060   5.388 -0.5012 -0.1588 -0.8772
   25bbb     H4  702   0.183   5.091   5.557 -0.8256 -1.1171  0.3398
   25bbb     C3  703   0.415   4.924   5.480 -0.0896 -0.2228  1.3760
   25bbb     H5  704   0.475   4.842   5.522  1.4147  0.9186  1.5144
   25bbb     H6  705   0.467   5.016   5.508 -1.9380  1.1298  0.5586
   25bbb     C4  706   0.425   4.897   5.326 -0.1628 -0.0616  0.4454
   25bbb     H7  707   0.414   4.992   5.272 -0.0724  0.5032  1.4080
   25bbb     H8  708   0.333   4.845   5.295  0.6703 -0.8393 -0.7973
   25bbb     C5  709   0.310   4.731   5.705  0.1880  0.2795 -0.1391
   25bbb     H9  710   0.418   4.714   5.698  0.1383 -1.0442  1.7038
   25bbb    H10  711   0.270   4.662   5.628  0.5380  0.3999 -0.4320
   25bbb     C6  712   0.039   4.965   5.461 -0.3352 -0.6522 -0.0450
   25bbb    H11  713   0.011   4.897   5.543  0.3134 -0.8687  0.0033
   25bbb    H12  714   0.043   4.911   5.366 -0.5553 -3.1918  1.2895
   25bbb     C7  715   0.548   4.810   5.294  0.6946  0.1446  0.1703
   25bbb    H13  716   0.553   4.732   5.371  0.1431  0.0376  0.1012
   25bbb    H14  717   0.640   4.870   5.299  1.0433 -0.3778  0.0636
   25bbb     C8  718  -0.067   5.074   5.453  0.6611 -0.3786 -0.0352
   25bbb    H15  719  -0.034   5.138   5.370  1.2829 -0.4211  0.1777
   25bbb    H16  720  -0.055   5.134   5.543 -0.4325 -0.1512 -0.0270
   25bbb     C9  721   0.257   4.685   5.845  0.7213  0.1778  0.6538
   25bbb    H17  722   0.148   4.670   5.836  0.6836  1.1025 -0.9540
   25bbb    H18  723   0.259   4.772   5.912 -2.4356  1.1005 -0.2524
   25bbb     O1  724   0.544   4.753   5.162  0.5389  0.0710  0.2689
   26bbb     N1  725   0.313   4.392   5.311 -0.2728  0.0646 -0.8132
   26bbb     C1  726   0.240   4.379   5.178  0.2968  0.1133 -0.1015
   26bbb     H1  727   0.144   4.331   5.200  0.1909  0.6906  0.7728
   26bbb     H2  728   0.295   4.316   5.108 -3.4403 -2.9405 -0.6375
   26bbb     C2  729   0.243   4.480   5.414 -0.4736  0.9957 -0.1680
   26bbb     H3  730   0.267   4.585   5.392  0.8087  0.6157 -0.6775
   26bbb     H4  731   0.280   4.444   5.511  0.6068  0.2891 -0.8230
   26bbb     C3  732   0.458   4.404   5.305 -0.0766  0.0194 -0.0815
   26bbb     H5  733   0.484   4.511   5.311 -1.6328  0.5909 -2.1913
   26bbb     H6  734   0.500   4.371   5.209 -0.9802 -0.6510 -0.2582
   26bbb     C4  735   0.527   4.339   5.427 -0.5278 -0.4773  0.5034
   26bbb     H7  736   0.500   4.233   5.437  0.7356 -0.8683  0.0268
   26bbb     H8  737   0.491   4.394   5.514 -1.0143  0.3076 -0.1801
   26bbb     C5  738   0.213   4.516   5.112  0.0978 -0.2121 -0.6788
   26bbb     H9  739   0.306   4.532   5.056  2.0112 -0.5181  2.2021
   26bbb    H10  740   0.202   4.590   5.192  1.9732 -2.2460  1.6148
   26bbb     C6  741   0.089   4.494   5.420 -0.8347  0.8109 -0.7264
   26bbb    H11  742   0.046   4.394   5.434  0.1789  0.2847 -1.2911
   26bbb    H12  743   0.054   4.519   5.319  1.8674  0.5749 -1.8012
   26bbb     C7  744   0.683   4.357   5.412 -0.3249  0.0953  0.3232
   26bbb    H13  745   0.732   4.321   5.503  1.2307  0.5351 -0.3076
   26bbb    H14  746   0.701   4.465   5.403  0.4712 -0.0151  0.5456
   26bbb     C8  747   0.040   4.597   5.530 -0.0023  0.6691 -0.4286
   26bbb    H15  748   0.071   4.699   5.503  1.8729 -0.1305 -1.4966
   26bbb    H16  749   0.089   4.564   5.623 -0.8317 -3.5451 -1.2954
   26bbb     C9  750   0.097   4.517   5.013 -0.0342  0.0652 -0.0866
   26bbb    H17  751   0.016   4.469   5.068  0.4865  0.0203  0.6441
   26bbb    H18  752   0.120   4.447   4.931 -2.2563 -0.8372 -0.0103
   26bbb     O1  753   0.728   4.284   5.299 -0.3479 -0.6194  0.5540
   27bbb     N1  754   3.400   4.449   5.264 -0.6107  0.0252  0.8528
   27bbb     C1  755   3.426   4.425   5.403 -0.8415  0.0391 -0.7910
   27bbb     H1  756   3.435   4.521   5.455 -1.8189 -1.7876  3.2131
   27bbb     H2  757   3.516   4.364   5.417 -1.2412 -0.1250  1.6742
   27bbb     C2  758   3.436   4.331   5.180 -0.6937 -0.1012 -0.3005
   27bbb     H3  759   3.384   4.328   5.083 -0.1038 -1.9409 -0.6002
   27bbb     H4  760   3.396   4.236   5.216 -1.1496  0.2375  0.1141
   27bbb     C3  761   3.449   4.585   5.218  0.1084  0.1615 -0.4356
   27bbb     H5  762   3.448   4.582   5.108  0.1218 -2.4675 -0.4106
   27bbb     H6  763   3.551   4.607   5.251  0.3680  0.7198 -1.5260
   27bbb     C4  764   3.369   4.706   5.271 -0.4963  0.2990 -0.5452
   27bbb     H7  765   3.410   4.798   5.228 -0.6738  0.7946  0.3316
   27bbb     H8  766   3.396   4.715   5.377 -0.1633 -1.1568 -0.4804
   27bbb     C5  767   3.303   4.371   5.473 -1.2132 -0.2405 -0.2472
   27bbb     H9  768   3.277   4.273   5.431 -1.7677  0.1341 -0.8039
   27bbb    H10  769   3.211   4.430   5.461 -0.7717  0.7003  0.8251
   27bbb     C6  770   3.590   4.326   5.145  0.0297 -0.1165 -0.2069
   27bbb    H11  771   3.641   4.318   5.242  1.4654  2.9726 -0.5917
   27bbb    H12  772   3.625   4.416   5.094  1.2563 -0.3792  0.1409
   27bbb     C7  773   3.214   4.700   5.254 -0.3956 -0.0788  0.0359
   27bbb    H13  774   3.174   4.605   5.293  0.0219 -0.7211 -1.0316
   27bbb    H14  775   3.186   4.706   5.148 -2.0062 -0.9898  0.3767
   27bbb     C8  776   3.616   4.196   5.068 -0.3917 -0.1655 -0.8948
   27bbb    H15  777   3.570   4.203   4.969  1.4600  0.1830 -1.7709
   27bbb    H16  778   3.581   4.108   5.122  0.9974 -0.7198 -0.8542
   27bbb     C9  779   3.318   4.366   5.627 -0.5731 -0.0652  0.0158
   27bbb    H17  780   3.310   4.467   5.668  0.5119  0.0272  0.0443
   27bbb    H18  781   3.417   4.324   5.652 -0.3869 -0.5478 -1.3924
   27bbb     O1  782   3.146   4.815   5.317 -0.1781 -0.0911 -0.2684
   28bbb     N1  783   3.310   4.773   4.796 -0.3736  0.9824 -0.0159
   28bbb     C1  784   3.416   4.829   4.886 -0.2949  0.5342 -0.1528
   28bbb     H1  785   3.497   4.866   4.823 -0.5805  1.0238 -0.2356
   28bbb     H2  786   3.462   4.751   4.948 -1.8217 -1.3988 -1.3179
   28bbb     C2  787   3.372   4.687   4.691  0.2390  0.0236 -0.8030
   28bbb     H3  788   3.436   4.753   4.632 -1.0757  2.6544  0.5357
   28bbb     H4  789   3.291   4.641   4.634  0.7064 -1.2127 -0.5087
   28bbb     C3  790   3.191   4.731   4.874  0.3730  0.7442  0.4368
   28bbb     H5  791   3.129   4.815   4.910 -1.3562 -1.3597  2.7246
   28bbb     H6  792   3.213   4.671   4.963 -0.4916  0.7425  0.6604
   28bbb     C4  793   3.088   4.652   4.791  0.3174 -0.0597  0.3860
   28bbb     H7  794   3.142   4.560   4.765  2.0792  0.9263  0.4338
   28bbb     H8  795   3.072   4.710   4.699  1.8733 -0.0586  0.0954
   28bbb     C5  796   3.375   4.947   4.984 -0.8214  0.4215  0.2275
   28bbb     H9  797   3.312   4.905   5.063  0.5341 -2.3741 -0.0376
   28bbb    H10  798   3.314   5.009   4.917 -0.4407  0.3492 -0.1903
   28bbb     C6  799   3.466   4.578   4.746  0.2751 -1.2145 -0.1649
   28bbb    H11  800   3.418   4.520   4.826 -0.5551 -0.8425 -0.3822
   28bbb    H12  801   3.555   4.620   4.795 -0.7145 -2.2703  2.8084
   28bbb     C7  802   2.954   4.621   4.863  0.0994  0.0227  0.0707
   28bbb    H13  803   2.984   4.590   4.964 -0.8167  0.9424  0.6433
   28bbb    H14  804   2.911   4.541   4.803  1.6051  0.5490 -1.8055
   28bbb     C8  805   3.505   4.477   4.632 -0.7001 -0.1067 -0.2580
   28bbb    H15  806   3.535   4.537   4.544  0.6961  2.8008  2.0054
   28bbb    H16  807   3.427   4.409   4.597  0.7429 -2.0545  0.1052
   28bbb     C9  808   3.504   5.022   5.042  0.4704  0.3252  0.2827
   28bbb    H17  809   3.478   5.087   5.126  0.4897  1.3534 -0.4887
   28bbb    H18  810   3.575   4.945   5.074 -0.7626 -0.9368  0.0835
   28bbb     O1  811   2.868   4.733   4.853 -0.2534 -0.2656 -0.4571
   29bbb     N1  812   3.058   5.363   5.041 -0.0773 -0.5053  0.3908
   29bbb     C1  813   2.929   5.424   5.049  0.5821  0.3358  0.6904
   29bbb     H1  814   2.926   5.496   5.132  1.9859  0.7653  0.3989
   29bbb     H2  815   2.851   5.350   5.073  1.2229 -0.4837  0.2946
   29bbb     C2  816   3.091   5.302   5.170 -0.0804 -0.0127 -0.4992
   29bbb     H3  817   3.025   5.222   5.206 -1.9764  1.4840 -0.4176
   29bbb     H4  818   3.061   5.377   5.245 -1.7842 -0.1987 -0.9358
   29bbb     C3  819   3.089   5.278   4.922  0.4100 -0.1775  0.0712
   29bbb     H5  820   3.194   5.247   4.928  0.4806  0.2409  1.7042
   29bbb     H6  821   3.080   5.337   4.831  0.0990 -3.1371 -1.9524
   29bbb     C4  822   2.987   5.171   4.908 -0.4554 -0.3005  0.3584
   29bbb     H7  823   2.884   5.209   4.903 -0.2309  0.3591  0.5837
   29bbb     H8  824   2.991   5.088   4.978  2.2556 -0.5443  0.0251
   29bbb     C5  825   2.889   5.502   4.923  0.0621 -0.0186  0.0560
   29bbb     H9  826   2.829   5.446   4.850  0.5021  0.2203 -0.4879
   29bbb    H10  827   2.977   5.544   4.873 -0.1161  0.1524 -0.1169
   29bbb     C6  828   3.245   5.274   5.194 -0.1306  0.3621 -0.7284
   29bbb    H11  829   3.298   5.369   5.206  0.3845 -0.0669  0.4591
   29bbb    H12  830   3.296   5.228   5.108 -0.5966 -0.4578 -0.5685
   29bbb     C7  831   3.006   5.103   4.770  0.4950 -0.2810  0.3892
   29bbb    H13  832   2.962   5.002   4.774  0.7654 -0.4898 -1.2998
   29bbb    H14  833   3.109   5.085   4.737  0.2499 -0.3144 -0.3643
   29bbb     C8  834   3.259   5.194   5.326  0.0165 -0.0036  0.1763
   29bbb    H15  835   3.254   5.089   5.296  0.0699 -0.5464  1.9792
   29bbb    H16  836   3.170   5.212   5.388 -0.2016  2.3571 -0.7010
   29bbb     C9  837   2.803   5.627   4.951 -0.2200 -0.1230 -0.7230
   29bbb    H17  838   2.717   5.593   5.010  1.3205  0.9751  2.4028
   29bbb    H18  839   2.776   5.684   4.861 -0.0416  0.6060 -0.3257
   29bbb     O1  840   2.934   5.194   4.681  0.6039 -0.0990  0.1973
   30bbb     N1  841   2.588   5.267   5.420 -0.7009 -0.3131 -0.1467
   30bbb     C1  842   2.721   5.318   5.469  0.2756 -0.7791  1.2618
   30bbb     H1  843   2.706   5.391   5.550  1.4611  0.6014  0.2984
   30bbb     H2  844   2.766   5.372   5.385  0.3000 -2.0440  0.4398
   30bbb     C2  845   2.520   5.191   5.528 -0.2033 -0.6185  0.2436
   30bbb     H3  846   2.469   5.259   5.598  1.6289  3.1556 -1.7447
   30bbb     H4  847   2.591   5.127   5.582 -0.2727 -0.2477  0.7805
   30bbb     C3  848   2.507   5.375   5.358 -1.1144 -0.1680  0.4727
   30bbb     H5  849   2.515   5.461   5.426 -1.4519 -1.0812  1.7038
   30bbb     H6  850   2.399   5.358   5.360 -1.1160 -0.3671 -0.9774
   30bbb     C4  851   2.561   5.416   5.218  0.7265 -0.5732  1.1165
   30bbb     H7  852   2.658   5.465   5.229  0.1451  0.6572  0.9231
   30bbb     H8  853   2.504   5.504   5.185 -0.6555 -0.9236  2.4051
   30bbb     C5  854   2.833   5.226   5.520  0.4160 -0.0318  0.3932
   30bbb     H9  855   2.893   5.190   5.435 -0.2293  0.1420 -0.1513
   30bbb    H10  856   2.789   5.139   5.570  0.1952 -0.2621 -0.1903
   30bbb     C6  857   2.413   5.089   5.477  0.3891  0.5323 -0.6574
   30bbb    H11  858   2.460   5.004   5.426 -3.1193 -0.6979 -2.1625
   30bbb    H12  859   2.340   5.134   5.408 -0.3744  1.1269  0.5083
   30bbb     C7  860   2.563   5.297   5.125 -0.3642  0.3631  0.5669
   30bbb    H13  861   2.481   5.226   5.145 -0.7280  0.8254  0.7287
   30bbb    H14  862   2.656   5.239   5.130  0.3466  1.3324 -0.7820
   30bbb     C8  863   2.333   5.022   5.599 -0.3032  0.2623  0.3519
   30bbb    H15  864   2.398   4.966   5.668 -1.5560  0.2751  1.5862
   30bbb    H16  865   2.262   4.946   5.566  1.0249 -0.6955 -0.4104
   30bbb     C9  866   2.926   5.299   5.612  0.3384 -0.3119 -0.0419
   30bbb    H17  867   2.983   5.218   5.660  3.8536  1.0825 -1.5354
   30bbb    H18  868   2.866   5.340   5.695 -3.2427 -1.1028 -2.0062
   30bbb     O1  869   2.528   5.341   4.993 -0.3266 -0.1456 -0.1362
   31bbb     N1  870   2.776   3.337   6.140 -0.2998 -0.3698  0.7587
   31bbb     C1  871   2.682   3.325   6.252 -0.3258  0.5387 -0.1903
   31bbb     H1  872   2.738   3.297   6.343 -0.7554 -1.2906 -0.4487
   31bbb     H2  873   2.604   3.250   6.236 -1.2187  1.4528 -0.2396
   31bbb     C2  874   2.877   3.233   6.120  0.5642  0.3801  0.8609
   31bbb     H3  875   2.941   3.257   6.033 -1.0359 -0.9022 -0.7342
   31bbb     H4  876   2.823   3.140   6.100 -0.8313  1.5589 -1.3196
   31bbb     C3  877   2.699   3.348   6.010 -0.3336 -0.0653  0.2129
   31bbb     H5  878   2.595   3.371   6.035 -0.7970 -0.3641 -1.3465
   31bbb     H6  879   2.692   3.255   5.953  0.5625  0.0930 -0.1789
   31bbb     C4  880   2.733   3.461   5.907 -0.0560 -0.3467 -0.1551
   31bbb     H7  881   2.837   3.446   5.876 -0.1635  1.3510 -1.4955
   31bbb     H8  882   2.714   3.564   5.941 -1.8829  0.5547 -3.5164
   31bbb     C5  883   2.623   3.457   6.298 -0.2502 -0.1679  0.3475
   31bbb     H9  884   2.561   3.505   6.222  0.8298  0.6057 -0.0692
   31bbb    H10  885   2.709   3.524   6.316 -0.5903  0.3245  0.1501
   31bbb     C6  886   2.965   3.193   6.239 -0.3091 -0.5248  0.9477
   31bbb    H11  887   2.906   3.168   6.328  0.2180 -0.9078  1.1949
   31bbb    H12  888   3.023   3.276   6.281  0.8225 -1.1933  0.7398
   31bbb     C7  889   2.653   3.440   5.780 -0.5980  0.2911  0.6042
   31bbb    H13  890   2.550   3.413   5.805  0.1212 -4.0771 -0.2453
   31bbb    H14  891   2.693   3.352   5.728  0.3766  2.5288 -2.8227
   31bbb     C8  892   3.036   3.061   6.217  0.1263  0.2091 -0.0748
   31bbb    H15  893   2.957   2.986   6.227  0.2120 -0.1380 -1.7985
   31bbb    H16  894   3.107   3.037   6.298 -0.8549  1.6748  1.2982
   31bbb     C9  895   2.526   3.442   6.419 -0.9706  0.4361 -0.6200
   31bbb    H17  896   2.475   3.534   6.449 -1.0316 -0.4388  2.1949
   31bbb    H18  897   2.593   3.401   6.495  1.3501 -0.9980 -3.2332
   31bbb     O1  898   2.660   3.559   5.690  0.3649  0.1254 -0.2217
   32bbb     N1  899   3.218   2.869   5.231 -0.3405 -0.0265 -0.6875
   32bbb     C1  900   3.232   2.811   5.094  0.1933  0.3856 -0.5121
   32bbb     H1  901   3.271   2.710   5.107  1.5333  0.9777  0.3807
   32bbb     H2  902   3.314   2.866   5.045  0.4433 -0.0881 -0.6333
   32bbb     C2  903   3.153   2.801   5.344 -0.0901 -0.3104 -0.3386
   32bbb     H3  904   3.048   2.828   5.355 -0.0304  0.0211 -0.5461
   32bbb     H4  905   3.199   2.840   5.435  0.5797 -2.4635  0.3028
   32bbb     C3  906   3.189   3.012   5.235 -0.6455 -0.7800 -0.8405
   32bbb     H5  907   3.222   3.044   5.334  1.0125 -0.4116 -1.4772
   32bbb     H6  908   3.082   3.036   5.229 -0.3327  1.2928  0.8860
   32bbb     C4  909   3.266   3.105   5.137  0.0371  0.2472  0.4991
   32bbb     H7  910   3.230   3.095   5.034 -1.4943  1.0870  0.9228
   32bbb     H8  911   3.372   3.076   5.136  0.1560  0.6525 -0.2867
   32bbb     C5  912   3.092   2.823   5.019  0.2036  0.5858  0.0702
   32bbb     H9  913   3.044   2.919   5.037  0.5455  0.9741 -0.9911
   32bbb    H10  914   3.036   2.743   5.069  0.9658  1.3631  2.2301
   32bbb     C6  915   3.172   2.649   5.346  0.1925 -0.3103 -0.1411
   32bbb    H11  916   3.133   2.612   5.251 -0.1836  2.3820 -1.0996
   32bbb    H12  917   3.105   2.608   5.423  1.3137 -0.0517  1.0156
   32bbb     C7  918   3.269   3.257   5.162 -0.2290  0.0703 -0.3959
   32bbb    H13  919   3.329   3.305   5.083  0.2747 -0.8862 -0.6095
   32bbb    H14  920   3.324   3.284   5.253 -1.4477  0.0902  0.3576
   32bbb     C8  921   3.317   2.606   5.366 -0.5094  0.0754 -0.3471
   32bbb    H15  922   3.369   2.640   5.276  1.7450 -1.8448  0.1157
   32bbb    H16  923   3.316   2.496   5.366  0.4446  0.0484 -1.0207
   32bbb     C9  924   3.093   2.798   4.868  0.0311 -0.7753 -0.7794
   32bbb    H17  925   3.143   2.701   4.852 -0.3777 -1.1400  0.1212
   32bbb    H18  926   3.156   2.871   4.816  1.9384 -2.2688 -0.6915
   32bbb     O1  927   3.145   3.321   5.169 -0.2117  0.2070  0.2297
   33bbb     N1  928   1.030   3.821   4.750  0.7653 -0.1294 -0.7436
   33bbb     C1  929   0.897   3.876   4.779 -0.3501  0.2513  0.7360
   33bbb     H1  930   0.816   3.803   4.773 -0.4180  0.1439  2.5924
   33bbb     H2  931   0.870   3.948   4.701 -0.4879  1.9623  2.3130
   33bbb     C2  932   1.055   3.697   4.824  0.4018 -0.1815  0.2183
   33bbb     H3  933   0.971   3.627   4.824  1.6995 -1.8319 -1.0772
   33bbb     H4  934   1.076   3.705   4.931 -1.0484 -0.0717  0.5158
   33bbb     C3  935   1.137   3.924   4.746  0.2878 -0.5806  0.0975
   33bbb     H5  936   1.237   3.887   4.721  1.7120  2.0629  1.4875
   33bbb     H6  937   1.158   3.972   4.842  0.8636  2.3182 -1.3892
   33bbb     C4  938   1.101   4.043   4.651 -0.0403 -0.7986 -0.9189
   33bbb     H7  939   1.014   4.100   4.683 -0.9959 -2.0066 -1.2745
   33bbb     H8  940   1.080   3.994   4.555 -0.7627 -1.0967 -0.6117
   33bbb     C5  941   0.873   3.932   4.918  0.3518  0.4578 -0.0850
   33bbb     H9  942   0.782   3.992   4.905 -0.3501 -0.9355 -1.9661
   33bbb    H10  943   0.955   4.004   4.928  1.6152 -0.7423 -1.2822
   33bbb     C6  944   1.185   3.626   4.765 -0.4322  0.4450 -0.6781
   33bbb    H11  945   1.273   3.687   4.788 -0.5603  0.8794 -1.3264
   33bbb    H12  946   1.170   3.613   4.657 -0.7149  0.5338 -0.6504
   33bbb     C7  947   1.212   4.154   4.637 -0.0867 -0.4307 -0.0435
   33bbb    H13  948   1.224   4.207   4.732 -1.2029 -0.9816  0.4238
   33bbb    H14  949   1.187   4.221   4.554  0.3087  0.6000  0.6595
   33bbb     C8  950   1.212   3.487   4.830 -0.4348  0.0575  0.6393
   33bbb    H15  951   1.131   3.418   4.804  0.2079 -0.0090 -1.3257
   33bbb    H16  952   1.219   3.516   4.936 -1.1449 -2.4064  1.4279
   33bbb     C9  953   0.832   3.830   5.025 -0.1444 -0.0853  0.0202
   33bbb    H17  954   0.918   3.771   5.060  1.6199 -0.1180 -3.7937
   33bbb    H18  955   0.763   3.752   4.990 -2.3794  1.4321  0.8662
   33bbb     O1  956   1.335   4.079   4.618 -0.0733 -0.2183 -0.2921
   34bbb     N1  957   1.025   3.597   5.251 -0.3002 -0.4553  0.5840
   34bbb     C1  958   0.986   3.479   5.173  0.1407 -0.0450 -0.0621
   34bbb     H1  959   1.020   3.385   5.217  2.6148  0.8721  0.1458
   34bbb     H2  960   1.036   3.489   5.076  1.7702 -0.6228  0.6915
   34bbb     C2  961   1.000   3.564   5.396 -0.1023 -0.5137  0.2546
   34bbb     H3  962   1.060   3.475   5.418 -0.8334 -1.0892 -0.0518
   34bbb     H4  963   0.896   3.534   5.410  0.6482 -2.4032  2.4538
   34bbb     C3  964   1.170   3.645   5.228 -0.2387 -0.6858 -0.0341
   34bbb     H5  965   1.178   3.742   5.279 -0.2621 -0.7494  0.0911
   34bbb     H6  966   1.180   3.661   5.120  1.8941 -0.0490  0.2186
   34bbb     C4  967   1.280   3.542   5.265 -0.0032 -0.5004 -0.3678
   34bbb     H7  968   1.253   3.450   5.212 -0.9170 -0.3818 -0.1216
   34bbb     H8  969   1.276   3.519   5.372  2.5427 -0.1385 -0.1114
   34bbb     C5  970   0.835   3.450   5.155 -0.7872  0.1279  0.2195
   34bbb     H9  971   0.784   3.545   5.133  1.5019  1.1841 -0.7742
   34bbb    H10  972   0.792   3.412   5.249 -1.7796  0.6422 -0.0143
   34bbb     C6  973   1.034   3.668   5.497 -0.2223 -0.4115  0.5616
   34bbb    H11  974   1.015   3.769   5.456  1.4035 -1.0796 -2.1003
   34bbb    H12  975   1.141   3.662   5.519 -0.1280 -0.8543  0.0056
   34bbb     C7  976   1.425   3.578   5.240 -0.4437  0.5743  0.3023
   34bbb    H13  977   1.488   3.490   5.260 -2.4744 -1.5418 -1.8450
   34bbb    H14  978   1.455   3.663   5.302  0.2039 -0.4284  1.4089
   34bbb     C8  979   0.963   3.644   5.633  0.5671  0.2364 -0.0261
   34bbb    H15  980   1.009   3.705   5.713 -0.1874  1.1836 -0.2872
   34bbb    H16  981   0.972   3.539   5.662 -0.8636  0.0973 -0.0135
   34bbb     C9  982   0.813   3.343   5.049 -0.1609 -0.2619  0.1593
   34bbb    H17  983   0.706   3.317   5.046 -0.3941  0.7055 -1.5893
   34bbb    H18  984   0.870   3.258   5.088 -0.1756 -0.3243  0.0455
   34bbb     O1  985   1.450   3.608   5.101 -0.1563 -0.1874 -0.3375
   35bbb     N1  986   0.482   5.481   5.449 -0.0095  0.3472  0.0898
   35bbb     C1  987   0.543   5.472   5.314  0.2318  0.3032  0.5972
   35bbb     H1  988   0.470   5.499   5.236 -0.6523 -1.1912  0.8541
   35bbb     H2  989   0.572   5.368   5.290 -0.6409  0.3635 -0.8847
   35bbb     C2  990   0.344   5.432   5.462 -0.6371  0.4711 -0.0215
   35bbb     H3  991   0.311   5.393   5.559 -1.8870 -0.5672 -0.8179
   35bbb     H4  992   0.327   5.340   5.405 -0.1250  0.4598 -0.1569
   35bbb     C3  993   0.569   5.413   5.547  0.2606 -0.6962  0.5563
   35bbb     H5  994   0.672   5.431   5.514 -0.4202  2.6928 -0.1325
   35bbb     H6  995   0.542   5.307   5.539  1.4385 -0.8788 -2.2049
   35bbb     C4  996   0.555   5.470   5.686 -0.0831  0.3700 -0.4446
   35bbb     H7  997   0.452   5.506   5.703  0.5836  1.8680  0.6756
   35bbb     H8  998   0.606   5.567   5.681 -0.2017  0.3693 -2.3044
   35bbb     C5  999   0.661   5.563   5.282  0.5049 -0.5660 -0.6135
   35bbb     H9 1000   0.683   5.553   5.175 -1.6781  0.0731 -1.1799
   35bbb    H10 1001   0.746   5.538   5.347  0.5704  2.7904  0.7854
   35bbb     C6 1002   0.229   5.534   5.417 -0.3428  0.8534  0.2428
   35bbb    H11 1003   0.255   5.590   5.327 -2.5938 -1.3798 -1.9655
   35bbb    H12 1004   0.219   5.606   5.499 -0.1268  4.1043 -2.4062
   35bbb     C7 1005   0.614   5.389   5.803 -0.7033  0.1839  0.7177
   35bbb    H13 1006   0.568   5.410   5.900 -0.6760  1.1250  0.5429
   35bbb    H14 1007   0.719   5.421   5.804 -1.0511  1.7442 -1.8569
   35bbb     C8 1008   0.083   5.475   5.384 -0.5310 -0.2057 -0.7142
   35bbb    H15 1009   0.010   5.553   5.361  0.1807  0.5064 -0.5977
   35bbb    H16 1010   0.047   5.428   5.477 -0.1548  0.2035 -0.3590
   35bbb     C9 1011   0.628   5.709   5.323  0.3812  0.0287 -0.3190
   35bbb    H17 1012   0.641   5.727   5.430  1.6325  1.4787 -0.6890
   35bbb    H18 1013   0.523   5.724   5.296  0.5421  0.3225 -0.7934
   35bbb     O1 1014   0.602   5.252   5.775 -0.0952 -0.0695 -0.2452
   36bbb     N1 1015   1.135   4.538   6.398 -0.3215  0.4023 -0.3573
   36bbb     C1 1016   1.074   4.408   6.367  0.3800  0.1267  0.1064
   36bbb     H1 1017   0.979   4.387   6.417  0.3729 -0.8271 -0.2836
   36bbb     H2 1018   1.142   4.328   6.400 -1.2294 -0.7026  1.5988
   36bbb     C2 1019   1.241   4.521   6.503  0.3852 -0.2841 -0.3198
   36bbb     H3 1020   1.206   4.461   6.588 -0.0363  2.3568  1.4840
   36bbb     H4 1021   1.262   4.620   6.547 -0.8644  0.4858 -1.3983
   36bbb     C3 1022   1.052   4.657   6.405 -0.1102 -0.2642  0.6862
   36bbb     H5 1023   1.031   4.682   6.510  0.0219 -0.3736  0.7393
   36bbb     H6 1024   0.957   4.635   6.355 -0.4858  2.7143 -0.1420
   36bbb     C4 1025   1.096   4.777   6.317  0.4881 -0.1642  0.0520
   36bbb     H7 1026   1.148   4.734   6.230 -1.2152 -0.3043 -0.9352
   36bbb     H8 1027   1.177   4.830   6.367  1.0363 -0.1731 -0.7990
   36bbb     C5 1028   1.041   4.407   6.217 -0.1798  0.1721 -0.0715
   36bbb     H9 1029   1.115   4.453   6.150 -0.6653  0.4577 -0.4149
   36bbb    H10 1030   0.949   4.466   6.207 -1.1514 -1.3830 -0.5378
   36bbb     C6 1031   1.374   4.464   6.443  0.0410  0.1175  0.3133
   36bbb    H11 1032   1.349   4.364   6.405 -0.8493  0.5354 -0.2239
   36bbb    H12 1033   1.460   4.457   6.510  0.9007 -2.1046 -0.9133
   36bbb     C7 1034   0.977   4.867   6.285  0.7207 -0.1999 -0.0938
   36bbb    H13 1035   0.945   4.911   6.380 -1.3350 -0.5973 -0.5430
   36bbb    H14 1036   0.889   4.815   6.244 -0.3639  1.4205  0.0765
   36bbb     C8 1037   1.420   4.540   6.313 -0.1173 -0.7456 -0.1018
   36bbb    H15 1038   1.450   4.635   6.359 -0.4707 -0.6984  0.0298
   36bbb    H16 1039   1.331   4.564   6.254 -0.7554 -1.2647  0.6258
   36bbb     C9 1040   1.000   4.266   6.173 -0.7685  0.3566  0.2349
   36bbb    H17 1041   1.094   4.210   6.163 -1.2894 -0.8438  1.6835
   36bbb    H18 1042   0.948   4.209   6.251  1.5324 -1.7968  0.3202
   36bbb     O1 1043   1.013   4.964   6.189 -0.0234  0.0321  0.0685
   37bbb     N1 1044   1.685   4.132   4.164  0.2937 -0.1400 -0.0929
   37bbb     C1 1045   1.560   4.071   4.203  0.5944  0.0073  0.1866
   37bbb     H1 1046   1.572   4.008   4.291 -0.4879  1.4839  1.4616
   37bbb     H2 1047   1.528   3.994   4.131  1.9007 -0.1611 -0.2310
   37bbb     C2 1048   1.800   4.035   4.139  0.1845  0.5020  0.0776
   37bbb     H3 1049   1.888   4.087   4.098  0.0720  0.8166  0.2399
   37bbb     H4 1050   1.762   3.952   4.077 -0.4056 -0.6123  1.8658
   37bbb     C3 1051   1.712   4.254   4.241 -0.0350 -0.2904 -0.2857
   37bbb     H5 1052   1.747   4.238   4.343  0.6152 -0.2289 -0.4924
   37bbb     H6 1053   1.625   4.321   4.248 -1.1909 -1.8205  0.6487
   37bbb     C4 1054   1.817   4.339   4.171 -0.2775  0.0499  0.1623
   37bbb     H7 1055   1.815   4.315   4.064  0.4457 -1.9439  0.5517
   37bbb     H8 1056   1.919   4.320   4.207  0.3585  1.8172 -0.5931
   37bbb     C5 1057   1.427   4.154   4.214 -0.0306 -0.2079 -0.2991
   37bbb     H9 1058   1.400   4.202   4.119  0.6394  2.9410  1.0138
   37bbb    H10 1059   1.426   4.245   4.275  1.5692  1.0487 -2.0303
   37bbb     C6 1060   1.851   3.952   4.263 -0.1063 -0.4109 -0.2233
   37bbb    H11 1061   1.768   3.891   4.301  0.8598 -2.1459 -0.7577
   37bbb    H12 1062   1.861   4.022   4.347 -1.3159 -1.2636  0.6603
   37bbb     C7 1063   1.790   4.484   4.188 -0.2700 -0.1707 -0.2168
   37bbb    H13 1064   1.706   4.525   4.130 -0.8571 -0.4606  0.4111
   37bbb    H14 1065   1.879   4.530   4.145  0.7811  0.0956  2.1136
   37bbb     C8 1066   1.984   3.879   4.239 -0.2472 -0.3185  0.1014
   37bbb    H15 1067   2.039   3.862   4.332  1.3264  1.8471 -0.3660
   37bbb    H16 1068   2.056   3.939   4.182 -0.8027  0.0454 -0.2336
   37bbb     C9 1069   1.308   4.072   4.267  0.2342  0.2904  0.2875
   37bbb    H17 1070   1.217   4.125   4.236  1.5057  1.8262 -0.9913
   37bbb    H18 1071   1.304   4.075   4.377 -0.7064 -2.0321  0.3640
   37bbb     O1 1072   1.778   4.511   4.332  0.1340 -0.6621  0.5273
   38bbb     N1 1073   1.262   4.016   5.268 -0.0899  0.1857  0.1067
   38bbb     C1 1074   1.204   4.122   5.349 -0.2352 -0.0054 -0.5444
   38bbb     H1 1075   1.172   4.071   5.442 -2.4666  1.0811 -0.6499
   38bbb     H2 1076   1.114   4.165   5.304 -0.0754  0.9962  0.0791
   38bbb     C2 1077   1.399   3.965   5.300 -0.1549  0.0410 -1.1501
   38bbb     H3 1078   1.470   4.048   5.304 -0.1968  0.0507  2.1265
   38bbb     H4 1079   1.429   3.889   5.227  2.5167  1.6472 -1.8509
   38bbb     C3 1080   1.234   4.008   5.119 -0.8189  0.1426 -0.1261
   38bbb     H5 1081   1.129   3.985   5.096 -0.2198 -3.3024  0.0062
   38bbb     H6 1082   1.278   3.917   5.075  0.4357 -1.5286  4.0407
   38bbb     C4 1083   1.271   4.140   5.045 -0.8118 -0.9762 -0.6510
   38bbb     H7 1084   1.243   4.222   5.112  1.6269  0.3638 -1.1279
   38bbb     H8 1085   1.216   4.156   4.952 -0.5319  0.2167 -0.6237
   38bbb     C5 1086   1.298   4.238   5.390  0.3536 -0.5229 -0.2732
   38bbb     H9 1087   1.370   4.263   5.311 -0.1616  1.2105 -0.2234
   38bbb    H10 1088   1.356   4.188   5.469  1.8561 -1.9313 -2.1652
   38bbb     C6 1089   1.413   3.904   5.446 -0.1935 -0.1895  0.4403
   38bbb    H11 1090   1.362   3.807   5.452  1.3206 -1.2128 -2.0211
   38bbb    H12 1091   1.378   3.962   5.533 -0.7681 -1.5212  1.1279
   38bbb     C7 1092   1.427   4.145   5.021 -0.2396  0.7476 -0.3513
   38bbb    H13 1093   1.449   4.052   4.968  0.0455 -0.2710  1.4807
   38bbb    H14 1094   1.479   4.141   5.118 -1.3374  0.6552  0.2538
   38bbb     C8 1095   1.561   3.874   5.475  0.4417 -0.0500 -0.6632
   38bbb    H15 1096   1.618   3.966   5.498  1.4780 -1.3705  2.6732
   38bbb    H16 1097   1.600   3.819   5.389  0.1158 -1.0574 -0.1767
   38bbb     C9 1098   1.222   4.360   5.433  0.2329  0.5899  0.0790
   38bbb    H17 1099   1.165   4.398   5.347  1.9461 -0.5227 -1.6243
   38bbb    H18 1100   1.299   4.437   5.448  0.7111  0.0450  0.4775
   38bbb     O1 1101   1.453   4.255   4.947  0.1794  0.1297  0.4987
   39bbb     N1 1102   4.084   4.377   5.383 -0.3600  1.4127 -0.0547
   39bbb     C1 1103   4.072   4.229   5.352  0.0316 -0.2672 -0.3475
   39bbb     H1 1104   4.132   4.201   5.265  1.0821  0.6580  0.0523
   39bbb     H2 1105   3.968   4.220   5.316  0.3844 -0.2580 -1.4091
   39bbb     C2 1106   4.221   4.415   5.418  0.6635 -0.2969 -0.8606
   39bbb     H3 1107   4.249   4.356   5.506 -1.3375  1.1244  0.8188
   39bbb     H4 1108   4.236   4.520   5.446  0.4108 -0.7518  1.1051
   39bbb     C3 1109   3.989   4.417   5.483 -0.9041  0.4912 -0.4758
   39bbb     H5 1110   4.025   4.514   5.518  0.5454 -1.0821  2.8939
   39bbb     H6 1111   3.980   4.349   5.569  1.3672 -1.3181 -1.5397
   39bbb     C4 1112   3.847   4.431   5.426  0.6412 -0.6067 -1.2863
   39bbb     H7 1113   3.804   4.330   5.416  1.2447 -0.9263 -0.7749
   39bbb     H8 1114   3.854   4.475   5.325 -0.1252 -0.8650 -1.4585
   39bbb     C5 1115   4.095   4.129   5.475  0.5508 -0.1202 -0.8181
   39bbb     H9 1116   4.002   4.130   5.532 -0.1080 -2.3853 -1.7382
   39bbb    H10 1117   4.186   4.142   5.536  0.5356 -3.5297  0.1404
   39bbb     C6 1118   4.333   4.384   5.309  0.0075 -0.1281  0.4892
   39bbb    H11 1119   4.364   4.279   5.311  0.4446 -0.0367 -0.5525
   39bbb    H12 1120   4.424   4.436   5.343 -0.1136  0.8871 -0.6513
   39bbb     C7 1121   3.757   4.526   5.510 -0.2990 -0.6623  0.1467
   39bbb    H13 1122   3.668   4.562   5.458 -0.5722 -0.1626  0.9422
   39bbb    H14 1123   3.817   4.616   5.530 -0.9076  0.2784 -1.9730
   39bbb     C8 1124   4.291   4.429   5.173  0.3408  0.6615 -0.4622
   39bbb    H15 1125   4.259   4.534   5.168 -2.4420 -0.1420 -2.9128
   39bbb    H16 1126   4.194   4.381   5.150 -0.4630  1.2778  1.4523
   39bbb     C9 1127   4.095   3.980   5.425  0.2669  0.4053 -0.8202
   39bbb    H17 1128   4.174   3.980   5.348  0.3185  2.8245 -0.8620
   39bbb    H18 1129   4.007   3.955   5.366  0.4507 -1.6371 -0.3109
   39bbb     O1 1130   3.709   4.460   5.630  0.0642  0.0458  0.1954
   40bbb     N1 1131   4.143   4.724   5.836  0.4203  0.3015  0.0294
   40bbb     C1 1132   4.250   4.821   5.825 -0.0705  0.2240 -0.0475
   40bbb     H1 1133   4.214   4.908   5.881 -1.3492 -1.5819  2.0715
   40bbb     H2 1134   4.277   4.841   5.720  3.9261  2.0820  1.1416
   40bbb     C2 1135   4.171   4.582   5.789  0.0993 -0.7803 -0.4186
   40bbb     H3 1136   4.260   4.558   5.848 -0.8656 -0.6327  1.1375
   40bbb     H4 1137   4.199   4.575   5.683 -0.5582 -1.8799 -0.5362
   40bbb     C3 1138   4.019   4.774   5.771 -0.8167  0.1764 -0.3767
   40bbb     H5 1139   3.932   4.707   5.779  0.9704 -1.9911  2.9943
   40bbb     H6 1140   4.032   4.788   5.663 -1.4070  0.5951 -0.3992
   40bbb     C4 1141   3.955   4.908   5.826 -0.6572  0.0560 -0.2808
   40bbb     H7 1142   3.885   4.944   5.749 -0.4983  0.5517 -0.1944
   40bbb     H8 1143   4.025   4.988   5.849 -2.1345  0.6403  2.6757
   40bbb     C5 1144   4.374   4.767   5.885 -0.1230 -0.0295 -0.3003
   40bbb     H9 1145   4.454   4.839   5.867  0.5671 -0.3257  1.3801
   40bbb    H10 1146   4.414   4.681   5.830  2.3785  0.8368  0.0342
   40bbb     C6 1147   4.065   4.475   5.824 -0.0742  0.1765 -0.4421
   40bbb    H11 1148   4.112   4.379   5.798 -0.8845 -0.9142  1.8825
   40bbb    H12 1149   3.973   4.494   5.768 -0.8584  1.8072  1.3143
   40bbb     C7 1150   3.893   4.882   5.957  1.3250 -0.0787 -0.6660
   40bbb    H13 1151   3.961   4.893   6.042  1.8527 -0.4981 -1.0279
   40bbb    H14 1152   3.850   4.781   5.952 -3.1501  1.3511  2.5143
   40bbb     C8 1153   4.035   4.478   5.979 -0.5308 -0.1549 -0.4744
   40bbb    H15 1154   3.971   4.564   6.002 -1.7101 -1.0248 -0.3943
   40bbb    H16 1155   4.132   4.501   6.026 -0.4225 -1.8496  0.1940
   40bbb     C9 1156   4.356   4.753   6.037  0.1400 -0.3355  0.3762
   40bbb    H17 1157   4.282   4.679   6.071  0.2535  0.7522  3.2564
   40bbb    H18 1158   4.323   4.851   6.073  2.6491  0.6423  0.2064
   40bbb     O1 1159   3.778   4.968   5.981  0.2571 -0.6655 -0.7402
   41bbb     N1 1160   3.930   3.988   5.935  0.4755 -0.1828  0.7407
   41bbb     C1 1161   4.078   3.988   5.973  0.7018 -0.1652  0.1875
   41bbb     H1 1162   4.091   3.993   6.082  0.1196  0.2937  0.2432
   41bbb     H2 1163   4.116   4.084   5.935 -0.1343  0.3274  0.5516
   41bbb     C2 1164   3.853   3.863   5.965 -0.2967  0.2030  0.4845
   41bbb     H3 1165   3.884   3.779   5.901 -0.7305  1.3743 -1.3138
   41bbb     H4 1166   3.744   3.875   5.959 -0.3053 -0.1090 -0.0000
   41bbb     C3 1167   3.902   4.035   5.793 -0.4287  0.5765  0.1958
   41bbb     H5 1168   3.908   3.942   5.735  0.7142  0.8154 -0.0984
   41bbb     H6 1169   3.979   4.104   5.756  1.7502 -0.7625  1.9734
   41bbb     C4 1170   3.763   4.106   5.774 -0.6952 -0.5866  0.6870
   41bbb     H7 1171   3.758   4.198   5.835  0.0782  1.7027 -2.4493
   41bbb     H8 1172   3.683   4.042   5.815 -1.0721 -0.8580 -0.4533
   41bbb     C5 1173   4.154   3.867   5.906 -0.1071 -0.3142 -0.3281
   41bbb     H9 1174   4.141   3.859   5.798  2.4452 -0.8223 -0.6795
   41bbb    H10 1175   4.123   3.778   5.961 -2.2272  0.9766  0.7053
   41bbb     C6 1176   3.873   3.822   6.116 -0.7765 -0.0959  0.3469
   41bbb    H11 1177   3.866   3.906   6.187  2.3820 -0.7453  1.6161
   41bbb    H12 1178   3.980   3.802   6.126 -0.5265  1.4596  1.1468
   41bbb     C7 1179   3.723   4.141   5.630 -0.2342 -0.2428  0.6220
   41bbb    H13 1180   3.802   4.208   5.592 -0.2640 -0.5731 -0.0486
   41bbb    H14 1181   3.624   4.188   5.630 -1.6013 -2.8514 -1.2590
   41bbb     C8 1182   3.774   3.714   6.166 -0.1035 -0.4520  0.0073
   41bbb    H15 1183   3.684   3.769   6.135  0.9072  0.5086 -1.3717
   41bbb    H16 1184   3.787   3.713   6.275  1.6369  0.6698 -0.1392
   41bbb     C9 1185   4.303   3.880   5.923  0.5461  0.6056 -0.1747
   41bbb    H17 1186   4.352   3.795   5.872  1.4599  0.6924  0.5330
   41bbb    H18 1187   4.330   3.864   6.028  1.4284 -1.8596 -0.7101
   41bbb     O1 1188   3.711   4.021   5.555 -0.1511  0.0144  0.2613
   42bbb     N1 1189   3.131   3.552   4.668 -0.1356  0.0459  0.3254
   42bbb     C1 1190   3.224   3.437   4.671 -0.3442  0.6485 -0.7939
   42bbb     H1 1191   3.190   3.365   4.596 -0.7644 -0.6501  0.5904
   42bbb     H2 1192   3.214   3.382   4.765 -0.3852  1.0883 -0.5355
   42bbb     C2 1193   2.995   3.517   4.640  0.4757 -0.6278 -0.6761
   42bbb     H3 1194   2.926   3.601   4.634  0.4763 -0.7213 -2.8347
   42bbb     H4 1195   2.956   3.449   4.717 -0.6063  0.5819 -0.1404
   42bbb     C3 1196   3.147   3.633   4.792  0.0778 -0.1117 -0.3932
   42bbb     H5 1197   3.253   3.659   4.808  0.3323 -1.4678  0.2944
   42bbb     H6 1198   3.105   3.577   4.876  0.4263  1.7867  1.1302
   42bbb     C4 1199   3.066   3.765   4.794  0.0935 -0.3871 -0.3603
   42bbb     H7 1200   2.964   3.738   4.822 -1.1153  4.6495  1.0246
   42bbb     H8 1201   3.050   3.808   4.695  0.0152  1.9786  0.6061
   42bbb     C5 1202   3.369   3.455   4.617  0.3960  0.0388 -0.0922
   42bbb     H9 1203   3.420   3.525   4.683 -0.8354 -0.6839  1.7166
   42bbb    H10 1204   3.370   3.493   4.514  1.1696 -0.6165 -0.3436
   42bbb     C6 1205   2.969   3.432   4.509 -0.0572  0.3648  0.3271
   42bbb    H11 1206   2.997   3.327   4.525  1.2664  0.1140 -2.8803
   42bbb    H12 1207   3.040   3.461   4.431 -1.0323  2.3444  0.1025
   42bbb     C7 1208   3.130   3.891   4.865  0.8002 -0.1078 -0.0995
   42bbb    H13 1209   3.058   3.971   4.847  0.8419  0.5451  2.3202
   42bbb    H14 1210   3.230   3.919   4.831  1.5966 -0.7033  1.6347
   42bbb     C8 1211   2.821   3.417   4.453  0.0872 -0.2588  0.1393
   42bbb    H15 1212   2.783   3.511   4.411  2.1462 -0.3010 -2.0031
   42bbb    H16 1213   2.758   3.389   4.539  1.6948  1.0951  1.8646
   42bbb     C9 1214   3.448   3.317   4.621 -0.0906 -0.4956  0.3403
   42bbb    H17 1215   3.538   3.323   4.559  0.7875 -0.2513  1.6063
   42bbb    H18 1216   3.377   3.237   4.594  0.6177 -1.2048  0.5306
   42bbb     O1 1217   3.136   3.881   5.008 -0.8330  0.2179 -0.2990
   43bbb     N1 1218   2.327   4.207   5.713  0.2317  0.4183 -0.1716
   43bbb     C1 1219   2.259   4.341   5.733 -0.3132 -0.6815  0.1786
   43bbb     H1 1220   2.215   4.341   5.833  1.2751  1.3480  0.9378
   43bbb     H2 1221   2.179   4.342   5.658 -0.1679 -1.3354  0.0053
   43bbb     C2 1222   2.414   4.165   5.827 -0.4458 -0.1398  0.3355
   43bbb     H3 1223   2.498   4.236   5.832 -0.5006 -0.0399 -0.0887
   43bbb     H4 1224   2.449   4.062   5.815  4.6757  1.3988 -0.7929
   43bbb     C3 1225   2.374   4.195   5.571 -0.2517  0.5997  0.0873
   43bbb     H5 1226   2.462   4.258   5.558  1.3251 -1.8751 -2.2665
   43bbb     H6 1227   2.293   4.224   5.503 -0.6646 -2.5050 -0.9017
   43bbb     C4 1228   2.409   4.054   5.527 -0.3863 -0.1946 -0.1381
   43bbb     H7 1229   2.495   4.014   5.583 -1.0734 -1.0909  0.2946
   43bbb     H8 1230   2.445   4.056   5.423  0.2579 -0.3451  0.0759
   43bbb     C5 1231   2.348   4.465   5.726 -0.2632  0.0023  0.1693
   43bbb     H9 1232   2.280   4.547   5.699  0.4406  0.8636  0.9631
   43bbb    H10 1233   2.420   4.444   5.646  1.6601 -0.4909  1.9494
   43bbb     C6 1234   2.361   4.165   5.968  0.2078  0.0716 -0.4267
   43bbb    H11 1235   2.317   4.258   6.006  0.1630 -0.5024  1.0070
   43bbb    H12 1236   2.446   4.147   6.035 -0.1878 -0.0761  0.0405
   43bbb     C7 1237   2.292   3.953   5.544  0.0654 -0.3470  0.3697
   43bbb    H13 1238   2.206   4.015   5.515 -1.0076 -0.9186  2.1738
   43bbb    H14 1239   2.272   3.935   5.650 -1.2730  0.0047  0.1992
   43bbb     C8 1240   2.263   4.046   5.986  0.3152  0.0628  0.2703
   43bbb    H15 1241   2.321   3.954   5.984 -0.8752 -0.7147  0.4958
   43bbb    H16 1242   2.190   4.034   5.905 -0.3958  0.8293  0.7720
   43bbb     C9 1243   2.430   4.509   5.850  0.1798 -0.5382 -0.9212
   43bbb    H17 1244   2.476   4.607   5.833 -0.7874  0.8053  3.1042
   43bbb    H18 1245   2.507   4.434   5.869  1.2414  0.6175 -0.4657
   43bbb     O1 1246   2.310   3.835   5.472 -0.2770 -0.4791  0.1796
   44bbb     N1 1247   2.938   3.128   5.648 -0.7212  0.4297 -0.3299
   44bbb     C1 1248   2.977   3.266   5.669 -0.4555  0.4636  0.0632
   44bbb     H1 1249   3.041   3.268   5.758 -0.6788  0.5265  0.2233
   44bbb     H2 1250   2.900   3.340   5.693 -1.3253 -0.6924  0.9338
   44bbb     C2 1251   2.855   3.092   5.761  0.1690 -0.5477 -0.7421
   44bbb     H3 1252   2.761   3.148   5.753 -0.2029 -0.8989  0.8382
   44bbb     H4 1253   2.897   3.120   5.858 -2.0760 -3.6637  1.3328
   44bbb     C3 1254   2.897   3.085   5.512 -0.1802  0.3492 -0.5849
   44bbb     H5 1255   2.896   2.975   5.509  1.8257  0.3107 -1.8938
   44bbb     H6 1256   2.968   3.125   5.439  1.0340  0.1603  0.4648
   44bbb     C4 1257   2.757   3.148   5.478  0.0391 -0.1172 -0.4136
   44bbb     H7 1258   2.753   3.253   5.509  2.6441  0.1074 -0.5998
   44bbb     H8 1259   2.684   3.097   5.542  0.2999 -3.7548 -2.7225
   44bbb     C5 1260   3.069   3.336   5.561 -0.2384 -0.1635  0.0632
   44bbb     H9 1261   3.069   3.444   5.582  0.8706  0.0979 -1.2234
   44bbb    H10 1262   3.024   3.328   5.461 -0.3478 -0.3188  0.1252
   44bbb     C6 1263   2.828   2.944   5.783 -0.5022  0.8855 -0.4557
   44bbb    H11 1264   2.924   2.892   5.778 -1.2410 -0.9446  2.3191
   44bbb    H12 1265   2.767   2.914   5.697 -3.0101  1.4718  1.0168
   44bbb     C7 1266   2.708   3.143   5.333 -0.2003  0.0836 -0.6281
   44bbb    H13 1267   2.695   3.038   5.303  0.8640 -0.5325  0.9450
   44bbb    H14 1268   2.781   3.183   5.262 -0.8609  0.4548 -1.1108
   44bbb     C8 1269   2.758   2.914   5.920 -0.2105  0.4116  0.2457
   44bbb    H15 1270   2.832   2.939   5.998  0.1236 -0.5089  0.2381
   44bbb    H16 1271   2.728   2.809   5.930 -1.4961  0.7988  0.6704
   44bbb     C9 1272   3.211   3.275   5.539 -0.1312  0.0355  0.4452
   44bbb    H17 1273   3.195   3.175   5.496 -1.6280  0.1329  0.7262
   44bbb    H18 1274   3.248   3.327   5.450  2.8374 -0.0971  1.4870
   44bbb     O1 1275   2.581   3.202   5.319 -0.1357 -0.0860 -0.0536
   45bbb     N1 1276   1.730   2.846   4.254  0.8294 -0.0987 -0.2246
   45bbb     C1 1277   1.848   2.858   4.346 -0.1570  0.4015  0.1960
   45bbb     H1 1278   1.917   2.783   4.307 -0.7478 -0.9237  1.6254
   45bbb     H2 1279   1.829   2.828   4.449 -0.9954  2.0288  0.5515
   45bbb     C2 1280   1.625   2.755   4.316 -0.1140  0.0341  0.3231
   45bbb     H3 1281   1.658   2.655   4.346  2.0949  0.4959 -0.4031
   45bbb     H4 1282   1.541   2.748   4.245 -1.3492  1.3841  1.5658
   45bbb     C3 1283   1.757   2.820   4.112 -0.7465 -0.0638 -0.2362
   45bbb     H5 1284   1.837   2.746   4.102 -1.2301 -0.5025 -0.9799
   45bbb     H6 1285   1.804   2.912   4.076  1.2383 -1.2743 -0.9015
   45bbb     C4 1286   1.640   2.777   4.024  0.5190  0.3504 -0.1449
   45bbb     H7 1287   1.549   2.836   4.041  1.4230  2.0116 -0.8095
   45bbb     H8 1288   1.616   2.672   4.047  1.3129 -0.1361 -1.4351
   45bbb     C5 1289   1.904   2.997   4.345 -0.0302  0.2978  0.2818
   45bbb     H9 1290   1.824   3.064   4.378 -0.4913  0.0955 -0.4277
   45bbb    H10 1291   1.942   3.034   4.249 -0.2718  0.5335  0.2768
   45bbb     C6 1292   1.534   2.826   4.424  0.3097  0.1582 -0.0805
   45bbb    H11 1293   1.430   2.792   4.416 -0.6266  2.1054  2.4301
   45bbb    H12 1294   1.546   2.935   4.421 -1.2683  0.5267  3.2014
   45bbb     C7 1295   1.677   2.783   3.877  0.2991 -0.1449  0.2669
   45bbb    H13 1296   1.604   2.730   3.815 -1.6816  0.7151  1.7475
   45bbb    H14 1297   1.772   2.729   3.865  1.0340  0.8201  1.4768
   45bbb     C8 1298   1.584   2.777   4.566 -0.1258  0.1524  0.2768
   45bbb    H15 1299   1.680   2.826   4.585 -0.1426  0.4673 -0.4048
   45bbb    H16 1300   1.607   2.671   4.581 -0.6322 -0.2255 -1.3599
   45bbb     C9 1301   2.028   3.009   4.445 -0.3735 -0.5857  0.3393
   45bbb    H17 1302   2.077   3.104   4.418  1.3035 -1.4460  0.2336
   45bbb    H18 1303   2.097   2.927   4.418  0.5072  0.5644 -1.0961
   45bbb     O1 1304   1.703   2.920   3.841  0.3756  0.1565  0.2179
   46bbb     N1 1305   2.030   2.563   4.631  0.1970  0.2084  0.0408
   46bbb     C1 1306   1.992   2.613   4.764 -0.5334 -0.5408  0.1610
   46bbb     H1 1307   2.081   2.640   4.822 -0.8770  1.8450 -0.3302
   46bbb     H2 1308   1.952   2.525   4.816  3.8831 -1.6069  2.1563
   46bbb     C2 1309   1.917   2.500   4.551  0.1830  0.2074  0.0362
   46bbb     H3 1310   1.960   2.457   4.459  0.7450  1.7501 -0.4541
   46bbb     H4 1311   1.839   2.571   4.523 -0.6101 -1.4717 -2.3453
   46bbb     C3 1312   2.101   2.660   4.543 -0.2411 -0.2463 -0.7582
   46bbb     H5 1313   2.142   2.730   4.617 -1.7924 -0.1634  0.0493
   46bbb     H6 1314   2.027   2.717   4.487 -0.1690 -0.4016 -1.0144
   46bbb     C4 1315   2.211   2.595   4.455  0.0099 -0.4698  0.0443
   46bbb     H7 1316   2.173   2.505   4.405  1.6137 -1.9972  1.4585
   46bbb     H8 1317   2.279   2.560   4.533 -1.2594 -0.5450  1.1585
   46bbb     C5 1318   1.896   2.731   4.790  0.4120  0.6182  0.0218
   46bbb     H9 1319   1.799   2.710   4.743 -0.8090  2.5109  1.5029
   46bbb    H10 1320   1.941   2.817   4.740  2.1552 -1.4283 -2.1079
   46bbb     C6 1321   1.846   2.382   4.623 -0.1928 -0.0114  0.2944
   46bbb    H11 1322   1.812   2.425   4.718 -0.8440 -2.4305  1.2340
   46bbb    H12 1323   1.920   2.309   4.655  1.1385  1.1615  0.0047
   46bbb     C7 1324   2.286   2.672   4.352 -0.5129 -0.0731  0.5000
   46bbb    H13 1325   2.347   2.600   4.295 -1.4200 -1.7852  1.5884
   46bbb    H14 1326   2.347   2.756   4.389 -2.4608  0.2747  3.2599
   46bbb     C8 1327   1.717   2.325   4.556 -0.0909  0.4850  0.1501
   46bbb    H15 1328   1.695   2.224   4.593 -0.5578  0.2869 -0.6335
   46bbb    H16 1329   1.735   2.318   4.448 -1.5262  0.7667 -0.1409
   46bbb     C9 1330   1.893   2.757   4.943 -0.1924 -0.7863  0.3271
   46bbb    H17 1331   1.996   2.779   4.974 -1.0381  0.1597  2.7298
   46bbb    H18 1332   1.856   2.672   5.002 -0.2419  0.0017  1.4717
   46bbb     O1 1333   2.196   2.727   4.254  0.0724  0.1866  0.2443
   47ccc     C1 1334   0.556   4.709   6.223  0.6031 -0.4816  0.3079
   47ccc     C2 1335   0.456   4.784   6.127 -0.1148 -0.0365  0.2677
   47ccc     H1 1336   0.499   4.638   6.283 -0.4820  0.9088  0.9722
   47ccc     H2 1337   0.406   4.715   6.058 -2.6403  1.7469  0.1787
   47ccc     C3 1338   0.344   4.850   6.210  0.1370  0.3284  0.1625
   47ccc     C4 1339   0.398   4.954   6.304 -0.0102  0.0893 -0.2697
   47ccc     C5 1340   0.516   4.897   6.391  0.3340  0.6488  0.5599
   47ccc     H3 1341   0.423   5.036   6.236 -2.4186  0.7213 -0.4771
   47ccc     H4 1342   0.309   4.777   6.284  0.8664  0.8755  1.0607
   47ccc     H5 1343   0.469   4.831   6.464 -1.1194 -0.6073 -1.3902
   47ccc     O1 1344   0.593   5.002   6.450  0.0158  0.4393  0.3280
   47ccc     O2 1345   0.291   5.000   6.388 -0.1647 -0.0153 -0.1191
   47ccc     O3 1346   0.229   4.904   6.141 -0.3433  0.0690  0.8828
   47ccc     O4 1347   0.528   4.888   6.057 -0.6433  0.1784 -0.2297
   47ccc     C6 1348   0.672   4.635   6.156  0.2640 -0.1914  0.4230
   47ccc     H6 1349   0.212   4.969   6.211  0.0031  2.2438 -0.9386
   47ccc     H7 1350   0.609   4.836   6.043 -2.1983 -2.1772 -0.9039
   47ccc     H8 1351   0.333   5.058   6.453 -0.9341  2.0243 -1.3463
   47ccc     H9 1352   0.635   4.535   6.132 -2.4979  0.6573  0.8082
   47ccc    H10 1353   0.751   4.628   6.232  1.1681  0.9665 -0.3814
   47ccc     O5 1354   0.730   4.702   6.045  0.3944 -0.3316 -0.5237
   47ccc    H11 1355   0.803   4.645   6.017 -0.2626 -1.5597  0.1952
   47ccc     O6 1356   0.609   4.809   6.316 -0.1693 -0.0281  0.3290
   48ccc     C1 1357   0.283   5.744   6.856 -0.1628  0.7463 -0.2616
   48ccc     C2 1358   0.203   5.856   6.792  1.0158  0.4647  0.1951
   48ccc     H1 1359   0.348   5.792   6.930  1.7141  0.9046 -1.9388
   48ccc     H2 1360   0.135   5.909   6.860  0.9432  2.2351 -1.1631
   48ccc     C3 1361   0.292   5.955   6.717 -0.1990 -0.7739 -0.8641
   48ccc     C4 1362   0.418   5.901   6.643  0.5136  0.1780 -0.2910
   48ccc     C5 1363   0.476   5.787   6.725 -0.8072 -0.0005  0.5732
   48ccc     H3 1364   0.392   5.848   6.550 -1.2737 -1.5881  1.1137
   48ccc     H4 1365   0.332   6.008   6.804  1.0773 -2.9273 -0.0528
   48ccc     H5 1366   0.520   5.825   6.818  0.1777 -1.9131  0.9463
   48ccc     O1 1367   0.582   5.714   6.641 -0.1929 -0.0915 -0.0770
   48ccc     O2 1368   0.513   6.006   6.622  0.3268  0.0845  0.3880
   48ccc     O3 1369   0.212   6.046   6.627 -0.4801 -0.6478  0.3138
   48ccc     O4 1370   0.129   5.795   6.681  0.2127  0.3673 -0.2398
   48ccc     C6 1371   0.208   5.633   6.921 -0.5933  0.4289 -0.5680
   48ccc     H6 1372   0.277   6.087   6.567  1.1163 -1.0350  1.6844
   48ccc     H7 1373   0.121   5.869   6.619  1.9870  0.0215 -0.9620
   48ccc     H8 1374   0.585   5.972   6.565 -0.4688  1.2516 -1.4188
   48ccc     H9 1375   0.199   5.551   6.848 -0.4223 -0.0923 -0.0117
   48ccc    H10 1376   0.103   5.660   6.937  0.0602  2.3597  0.7974
   48ccc     O5 1377   0.270   5.596   7.041 -0.2539  0.1365  0.1029
   48ccc    H11 1378   0.211   5.532   7.085 -1.8278  1.1203 -0.4953
   48ccc     O6 1379   0.377   5.686   6.766 -0.2912  0.1124 -0.4689
   49ccc     C1 1380   1.341   5.106   6.300  0.2638  0.3384 -0.1756
   49ccc     C2 1381   1.437   5.080   6.417 -0.2841  0.0863  0.4892
   49ccc     H1 1382   1.321   5.004   6.264  2.5873 -0.1739 -0.1252
   49ccc     H2 1383   1.387   5.010   6.485  1.2105 -0.7049  0.8092
   49ccc     C3 1384   1.571   5.011   6.363 -1.5370 -0.9021 -0.0069
   49ccc     C4 1385   1.637   5.091   6.240  0.7134  0.8287  0.0698
   49ccc     C5 1386   1.528   5.135   6.138 -0.0225 -0.0097  0.5835
   49ccc     H3 1387   1.688   5.180   6.279 -2.4999  1.6730  2.9149
   49ccc     H4 1388   1.548   4.913   6.320 -0.5348 -0.9125 -0.5425
   49ccc     H5 1389   1.509   5.040   6.087  4.0023 -1.0303  0.6318
   49ccc     O1 1390   1.582   5.235   6.045  0.3876  0.1104  0.3415
   49ccc     O2 1391   1.740   5.016   6.168 -0.1175 -0.1282  0.5055
   49ccc     O3 1392   1.659   4.992   6.472  0.0017 -0.3825 -0.1520
   49ccc     O4 1393   1.467   5.199   6.483 -0.9855 -0.0063 -0.2572
   49ccc     C6 1394   1.200   5.153   6.327 -0.0772  0.6301 -0.3487
   49ccc     H6 1395   1.612   4.943   6.541  0.1977 -0.3648 -0.0080
   49ccc     H7 1396   1.506   5.177   6.570  1.6132  0.0797 -1.3104
   49ccc     H8 1397   1.813   5.034   6.230  2.2119 -0.7340 -1.8700
   49ccc     H9 1398   1.138   5.085   6.386 -0.6105  0.9341 -0.5526
   49ccc    H10 1399   1.166   5.164   6.223 -2.6975  0.3080  0.4113
   49ccc     O5 1400   1.211   5.279   6.385  0.7043 -0.2106 -0.3022
   49ccc    H11 1401   1.295   5.276   6.434  0.3156  1.3632  0.5425
   49ccc     O6 1402   1.405   5.190   6.195 -0.2421  0.4685  0.3008
   50ccc     C1 1403   1.232   5.995   5.333 -0.3239 -0.3877  0.7885
   50ccc     C2 1404   1.109   6.093   5.354  0.4532 -0.7295  0.4885
   50ccc     H1 1405   1.199   5.893   5.309  0.1223 -0.3065 -0.1841
   50ccc     H2 1406   1.036   6.097   5.272 -0.4443 -0.8402  1.2613
   50ccc     C3 1407   1.027   6.062   5.478  0.3892  0.2522  0.2940
   50ccc     C4 1408   1.116   6.054   5.604 -0.2804 -0.1237 -0.0082
   50ccc     C5 1409   1.243   5.963   5.575 -0.3421 -0.0932 -0.3297
   50ccc     H3 1410   1.150   6.157   5.619 -0.2276  0.3694 -2.9852
   50ccc     H4 1411   0.987   5.962   5.458 -0.6357  0.4308  1.3252
   50ccc     H5 1412   1.207   5.860   5.568  1.2362 -0.6350 -0.9047
   50ccc     O1 1413   1.341   5.974   5.684 -0.3306 -0.5192 -0.4015
   50ccc     O2 1414   1.032   5.994   5.701 -0.2038  0.0480  0.2489
   50ccc     O3 1415   0.904   6.132   5.497 -0.1917 -0.1867  0.1334
   50ccc     O4 1416   1.167   6.226   5.368 -0.3947  0.0869 -0.1555
   50ccc     C6 1417   1.316   6.028   5.208 -0.6445 -0.7125 -0.0908
   50ccc     H6 1418   0.869   6.092   5.579 -1.7470  1.0987  0.1528
   50ccc     H7 1419   1.251   6.211   5.322 -0.7787  2.5897 -1.8355
   50ccc     H8 1420   1.069   6.024   5.786 -0.5702  0.1310  0.3777
   50ccc     H9 1421   1.242   6.033   5.126  1.5524  0.0081 -2.1405
   50ccc    H10 1422   1.390   5.953   5.181  2.4818  2.0876  0.0643
   50ccc     O5 1423   1.384   6.155   5.232 -0.2587  0.0703 -1.0071
   50ccc    H11 1424   1.442   6.153   5.154  0.0209 -0.1964 -0.7948
   50ccc     O6 1425   1.311   5.994   5.453  0.4382  0.3717  0.5198
   51ccc     C1 1426  -0.362   5.189   5.733  0.0325 -0.0086  0.3657
   51ccc     C2 1427  -0.509   5.137   5.712  0.3480 -0.2096  0.2369
   51ccc     H1 1428  -0.365   5.298   5.716 -0.7552  0.5283  3.4235
   51ccc     H2 1429  -0.582   5.198   5.766 -0.4254 -1.6584  0.9056
   51ccc     C3 1430  -0.544   5.140   5.559 -0.0566 -0.3773  0.1352
   51ccc     C4 1431  -0.442   5.061   5.472 -0.6506 -0.4965 -0.0068
   51ccc     C5 1432  -0.299   5.113   5.502  0.0331  0.0268  0.3037
   51ccc     H3 1433  -0.445   4.956   5.506  0.9435  0.0824  2.1023
   51ccc     H4 1434  -0.528   5.245   5.529 -0.6966 -0.0525  0.8899
   51ccc     H5 1435  -0.291   5.217   5.466 -2.3233 -0.3675 -1.6089
   51ccc     O1 1436  -0.205   5.022   5.442  0.3287  0.0517  0.0836
   51ccc     O2 1437  -0.479   5.091   5.335  0.2078  0.0245  0.4391
   51ccc     O3 1438  -0.672   5.099   5.526  0.4272  0.3346 -0.6779
   51ccc     O4 1439  -0.513   5.002   5.762 -0.0274  0.6488 -0.1561
   51ccc     C6 1440  -0.332   5.193   5.878 -0.2969 -0.1938 -0.1841
   51ccc     H6 1441  -0.725   5.179   5.510  1.5967  1.4794  0.8402
   51ccc     H7 1442  -0.445   5.006   5.831 -1.8793 -3.0354  2.2343
   51ccc     H8 1443  -0.571   5.061   5.325  0.0864  0.3467  0.5922
   51ccc     H9 1444  -0.413   5.246   5.930 -0.8985 -2.0681  0.9100
   51ccc    H10 1445  -0.236   5.238   5.904 -0.4430 -0.2973  0.5812
   51ccc     O5 1446  -0.336   5.062   5.932  0.3038 -0.3951 -0.1100
   51ccc    H11 1447  -0.321   5.078   6.027  1.6892  1.4114 -0.5604
   51ccc     O6 1448  -0.268   5.116   5.643  0.2472  0.7929  0.4731
   52ccc     C1 1449   0.098   4.294   5.780 -0.1912  0.2263  0.4617
   52ccc     C2 1450   0.163   4.163   5.833 -0.7032  0.2964 -0.8622
   52ccc     H1 1451   0.133   4.305   5.676  0.6927  2.4896  0.9317
   52ccc     H2 1452   0.154   4.074   5.770  2.7563  0.7563 -2.2501
   52ccc     C3 1453   0.320   4.177   5.840  0.1943 -0.1754 -0.1413
   52ccc     C4 1454   0.365   4.318   5.890  0.7485  0.1735  0.0283
   52ccc     C5 1455   0.291   4.435   5.825 -0.3107 -0.7056 -0.4608
   52ccc     H3 1456   0.355   4.326   5.999 -0.2070 -2.6777  0.2223
   52ccc     H4 1457   0.348   4.169   5.734  2.6942 -0.1610  0.4601
   52ccc     H5 1458   0.317   4.434   5.719  1.1795 -0.1892 -0.1205
   52ccc     O1 1459   0.324   4.562   5.887 -0.7147  0.4799  0.3334
   52ccc     O2 1460   0.505   4.328   5.859  0.5469  0.0571  0.2121
   52ccc     O3 1461   0.382   4.067   5.910 -0.0251  0.3842 -0.0857
   52ccc     O4 1462   0.114   4.140   5.967  0.2971  0.2173  0.2633
   52ccc     C6 1463  -0.056   4.290   5.773 -0.0270 -0.4031 -0.1948
   52ccc     H6 1464   0.371   4.080   6.006 -3.1506 -0.2127 -0.2562
   52ccc     H7 1465   0.136   4.048   5.989 -2.3638 -0.8625 -1.1582
   52ccc     H8 1466   0.526   4.422   5.852 -1.8366  0.6855  0.6948
   52ccc     H9 1467  -0.099   4.367   5.838  0.9992  1.5589 -1.6977
   52ccc    H10 1468  -0.087   4.193   5.811  3.1480 -0.7936  1.6618
   52ccc     O5 1469  -0.095   4.320   5.635  0.0212  0.0158  0.2839
   52ccc    H11 1470  -0.075   4.414   5.623  0.8828 -0.1631  0.2358
   52ccc     O6 1471   0.153   4.415   5.838 -0.3887  0.1917 -0.2846
   53ccc     C1 1472  -0.138   4.819   5.855 -0.3882 -0.0344 -0.0817
   53ccc     C2 1473  -0.247   4.752   5.932 -0.3380  0.3874  0.4762
   53ccc     H1 1474  -0.183   4.905   5.804 -3.7129  0.4617  3.2622
   53ccc     H2 1475  -0.293   4.824   6.001 -1.6124 -0.6802  0.7785
   53ccc     C3 1476  -0.355   4.701   5.836  0.2698 -0.2186 -0.7485
   53ccc     C4 1477  -0.301   4.621   5.710 -0.0448 -0.2303  0.4875
   53ccc     C5 1478  -0.172   4.692   5.645 -0.4128  0.5759 -0.2282
   53ccc     H3 1479  -0.267   4.525   5.752  2.1843  0.1252 -0.3964
   53ccc     H4 1480  -0.390   4.800   5.802 -0.8385 -1.0350 -2.0598
   53ccc     H5 1481  -0.189   4.777   5.578  2.0424  0.1228 -1.5383
   53ccc     O1 1482  -0.103   4.585   5.561  0.1493 -1.2169 -0.3148
   53ccc     O2 1483  -0.411   4.616   5.619 -0.0656 -0.4384  0.6176
   53ccc     O3 1484  -0.472   4.636   5.897 -0.6336 -0.5055  0.2337
   53ccc     O4 1485  -0.192   4.634   5.999  0.2627  0.0826 -0.7057
   53ccc     C6 1486  -0.030   4.881   5.950  0.3207 -0.0777  0.0633
   53ccc     H6 1487  -0.435   4.562   5.949 -0.0360  1.2696  2.4820
   53ccc     H7 1488  -0.105   4.671   6.025  0.4411  0.8201 -2.2442
   53ccc     H8 1489  -0.488   4.596   5.674  1.2619 -1.2826  2.2353
   53ccc     H9 1490  -0.081   4.957   6.011  0.3309  1.6026 -1.9113
   53ccc    H10 1491   0.044   4.934   5.888  0.5052  0.5359  0.7869
   53ccc     O5 1492   0.020   4.785   6.045  0.2224  0.4573 -0.2264
   53ccc    H11 1493   0.099   4.830   6.080 -0.5457 -0.2713  2.7301
   53ccc     O6 1494  -0.081   4.734   5.753 -0.6982 -0.1685 -0.0911
   54ccc     C1 1495  -0.188   4.752   5.205  0.3926 -0.4154  0.7877
   54ccc     C2 1496  -0.236   4.882   5.137 -0.1848  0.2557 -0.4825
   54ccc     H1 1497  -0.110   4.772   5.280 -0.2936  0.3570  1.3077
   54ccc     H2 1498  -0.277   4.950   5.213 -1.0425 -0.7321 -0.0364
   54ccc     C3 1499  -0.124   4.961   5.067  0.4082 -0.4141  0.6405
   54ccc     C4 1500  -0.026   4.874   4.983  0.1626  0.6795 -0.6491
   54ccc     C5 1501  -0.000   4.734   5.057  0.6961  0.0340  0.4407
   54ccc     H3 1502  -0.070   4.857   4.883  0.0550  1.6448 -0.7747
   54ccc     H4 1503  -0.057   4.999   5.146  2.9728 -1.3669 -0.9267
   54ccc     H5 1504   0.063   4.752   5.145  0.1676  1.5212  0.5521
   54ccc     O1 1505   0.065   4.647   4.964  0.2531  0.1539  0.3603
   54ccc     O2 1506   0.103   4.946   4.981  0.3775  0.3848 -0.1507
   54ccc     O3 1507  -0.180   5.068   4.992 -0.2076 -0.7719 -0.5279
   54ccc     O4 1508  -0.334   4.864   5.037  0.0329 -0.3154  0.3204
   54ccc     C6 1509  -0.300   4.671   5.273  0.3902 -0.1111 -0.0799
   54ccc     H6 1510  -0.116   5.117   4.938  0.8751  0.7708  1.9771
   54ccc     H7 1511  -0.304   4.942   4.987  1.9247  0.3492  2.3458
   54ccc     H8 1512   0.164   4.890   4.929 -1.0236 -0.6744 -0.7045
   54ccc     H9 1513  -0.338   4.724   5.362 -0.5177  0.2665 -0.6757
   54ccc    H10 1514  -0.260   4.576   5.310 -0.7036 -0.0745  1.2954
   54ccc     O5 1515  -0.416   4.655   5.184  0.0444 -0.0444 -0.3618
   54ccc    H11 1516  -0.395   4.727   5.123 -1.6095  1.1375  0.3872
   54ccc     O6 1517  -0.118   4.671   5.106 -0.1808  0.3144  0.6182
   55ccc     C1 1518   3.803   3.826   5.013 -0.0844 -0.0849  0.2469
   55ccc     C2 1519   3.958   3.819   4.993  0.1286 -0.5140  0.0056
   55ccc     H1 1520   3.754   3.812   4.916  0.6090  1.1781 -0.3091
   55ccc     H2 1521   3.981   3.721   4.949 -0.8067 -0.2651 -1.1032
   55ccc     C3 1522   4.000   3.938   4.899  0.7887  0.4164 -0.7078
   55ccc     C4 1523   3.958   4.065   4.972 -0.0424 -0.0963 -0.3217
   55ccc     C5 1524   3.803   4.059   4.984 -0.0492  0.3113 -0.2534
   55ccc     H3 1525   3.990   4.062   5.076 -0.2989 -0.9600 -0.2654
   55ccc     H4 1526   3.940   3.935   4.807 -0.3123  0.5821 -0.0161
   55ccc     H5 1527   3.755   4.034   4.889 -1.2615 -1.8546  0.8395
   55ccc     O1 1528   3.759   4.187   5.042  0.1965  0.1826  0.7052
   55ccc     O2 1529   4.002   4.178   4.894  0.1698  0.7247 -0.3491
   55ccc     O3 1530   4.139   3.934   4.863 -0.2072 -0.0289 -0.3064
   55ccc     O4 1531   4.021   3.826   5.124  0.1117 -0.3846 -0.3939
   55ccc     C6 1532   3.744   3.716   5.106  0.4235  0.2010  0.0726
   55ccc     H6 1533   4.187   3.946   4.946 -1.4581 -1.0111  0.5921
   55ccc     H7 1534   3.954   3.773   5.170 -1.7899 -0.3933 -2.9432
   55ccc     H8 1535   3.970   4.259   4.937 -2.3692 -1.9067  3.3490
   55ccc     H9 1536   3.734   3.620   5.053 -0.5682 -0.1050  0.7683
   55ccc    H10 1537   3.643   3.747   5.135  0.5151 -2.0598  3.3604
   55ccc     O5 1538   3.818   3.701   5.230 -0.4022 -0.6512 -0.3421
   55ccc    H11 1539   3.765   3.666   5.304  0.3356 -0.2014  0.4275
   55ccc     O6 1540   3.761   3.952   5.075  0.1052  0.1128 -0.1040
   56ccc     C1 1541   3.306   4.179   6.015  0.8366  0.1035 -0.0369
   56ccc     C2 1542   3.183   4.099   6.053 -0.8411 -0.4822 -0.1364
   56ccc     H1 1543   3.305   4.277   6.063  0.0921  0.1059 -0.0423
   56ccc     H2 1544   3.194   4.089   6.161  0.2250  2.3471  0.1065
   56ccc     C3 1545   3.056   4.176   6.013 -0.0018  0.5833  0.4988
   56ccc     C4 1546   3.070   4.204   5.857  0.0446 -0.0306 -0.2869
   56ccc     C5 1547   3.200   4.270   5.824  0.0425 -0.2082 -0.0221
   56ccc     H3 1548   3.075   4.111   5.799  0.2830  1.1714 -2.2710
   56ccc     H4 1549   3.063   4.275   6.059 -0.6709  1.1726 -0.6037
   56ccc     H5 1550   3.198   4.369   5.872  0.6317 -0.7871  1.2267
   56ccc     O1 1551   3.208   4.286   5.676  0.0801 -0.0172 -0.4741
   56ccc     O2 1552   2.953   4.269   5.805  0.2825  0.0244  0.2046
   56ccc     O3 1553   2.931   4.109   6.040  0.1050  0.3221 -0.1043
   56ccc     O4 1554   3.177   3.970   5.983 -0.2367  0.3117 -0.4986
   56ccc     C6 1555   3.437   4.113   6.066 -0.2442 -0.2566 -0.1163
   56ccc     H6 1556   2.869   4.183   6.045 -1.3199 -0.8247 -0.1640
   56ccc     H7 1557   3.093   3.931   6.013  0.9886 -1.6408  0.6480
   56ccc     H8 1558   2.982   4.310   5.722  0.4442  0.6461  0.5710
   56ccc     H9 1559   3.479   4.039   5.996  0.7929  0.9054 -0.7709
   56ccc    H10 1560   3.420   4.061   6.161 -0.7175 -0.6893 -0.4358
   56ccc     O5 1561   3.535   4.215   6.082  0.3768 -0.3843  0.1720
   56ccc    H11 1562   3.618   4.165   6.091  0.5351 -0.3523 -0.9724
   56ccc     O6 1563   3.314   4.203   5.876  0.4541 -0.4020  0.7360
   57ccc     C1 1564   3.650   4.093   4.468  0.6840 -0.3335  0.5691
   57ccc     C2 1565   3.773   4.035   4.529  0.2634  0.9234  0.8367
   57ccc     H1 1566   3.682   4.122   4.367  0.0453 -1.2064  0.1067
   57ccc     H2 1567   3.820   3.966   4.457 -0.9404  0.7845  0.1522
   57ccc     C3 1568   3.881   4.140   4.552  0.0146 -0.2193  0.3930
   57ccc     C4 1569   3.818   4.259   4.635  0.1847  0.9204 -0.1023
   57ccc     C5 1570   3.683   4.311   4.582 -0.3843  0.8067 -1.0757
   57ccc     H3 1571   3.785   4.210   4.728  2.4727  0.2350  0.4146
   57ccc     H4 1572   3.897   4.185   4.453 -2.1671 -0.3006 -0.0474
   57ccc     H5 1573   3.711   4.361   4.489  1.0067  0.9885 -0.5857
   57ccc     O1 1574   3.629   4.404   4.674 -0.0366 -0.0287  0.5636
   57ccc     O2 1575   3.920   4.357   4.658  0.0862  0.0066  0.3029
   57ccc     O3 1576   4.004   4.072   4.597  0.2373 -0.5200  0.4041
   57ccc     O4 1577   3.747   3.977   4.654 -0.0053  0.1349  0.1702
   57ccc     C6 1578   3.540   3.996   4.436  0.2827  0.2065 -0.1860
   57ccc     H6 1579   4.023   3.999   4.536  3.1644 -1.3774  2.1110
   57ccc     H7 1580   3.661   3.934   4.636 -0.2655 -0.1210  1.8205
   57ccc     H8 1581   3.994   4.297   4.678  0.1095 -0.4293 -1.0319
   57ccc     H9 1582   3.584   3.927   4.363  0.7788 -1.5531  1.6998
   57ccc    H10 1583   3.454   4.050   4.395 -0.2369 -1.2909 -1.1542
   57ccc     O5 1584   3.514   3.919   4.554 -0.0902 -0.2543 -0.4577
   57ccc    H11 1585   3.432   3.874   4.524 -1.3057  2.4078 -1.4752
   57ccc     O6 1586   3.596   4.206   4.550 -0.0277 -0.4955  0.2713
   58ccc     C1 1587   3.842   5.228   5.128  0.0940 -0.4689 -0.4073
   58ccc     C2 1588   3.794   5.379   5.163 -1.0480  0.2992  0.4643
   58ccc     H1 1589   3.908   5.229   5.040 -1.9274  0.2050 -1.9964
   58ccc     H2 1590   3.878   5.446   5.180 -0.5461 -0.1380 -0.2583
   58ccc     C3 1591   3.710   5.437   5.041  0.8425 -0.3666 -0.3278
   58ccc     C4 1592   3.600   5.335   4.999  1.0508  0.3972  0.2751
   58ccc     C5 1593   3.665   5.199   4.971  0.3919  0.3933  0.1405
   58ccc     H3 1594   3.525   5.324   5.078  0.1382 -1.0784 -0.7441
   58ccc     H4 1595   3.783   5.457   4.961  0.9657  0.1226 -0.0962
   58ccc     H5 1596   3.734   5.217   4.887 -2.0130  0.2360 -1.9984
   58ccc     O1 1597   3.562   5.102   4.927  0.2685  0.1029 -0.1911
   58ccc     O2 1598   3.538   5.383   4.877 -0.4520 -0.2822  0.1633
   58ccc     O3 1599   3.650   5.569   5.071 -0.3674 -0.2919  0.2846
   58ccc     O4 1600   3.721   5.366   5.281  0.1575  0.2122 -0.3304
   58ccc     C6 1601   3.925   5.166   5.244 -0.0573  0.4453 -0.1692
   58ccc     H6 1602   3.574   5.550   5.129 -1.7591 -1.0471 -1.7110
   58ccc     H7 1603   3.727   5.451   5.328  0.6842 -1.3887  2.7423
   58ccc     H8 1604   3.503   5.469   4.905 -0.1466  0.2679 -1.0928
   58ccc     H9 1605   3.860   5.136   5.327  2.4114  1.2497  2.1828
   58ccc    H10 1606   3.986   5.245   5.288  0.8100 -0.7264  0.8164
   58ccc     O5 1607   4.000   5.049   5.198  0.0533  0.8415  0.1405
   58ccc    H11 1608   4.037   5.028   5.285  1.3468  1.5961 -0.2115
   58ccc     O6 1609   3.730   5.142   5.088  0.2219  0.0435  0.4026
   59ccc     C1 1610   3.376   5.159   5.753  0.0946  0.5283 -0.1204
   59ccc     C2 1611   3.504   5.228   5.789 -0.1351  0.3500  0.4720
   59ccc     H1 1612   3.399   5.052   5.743 -0.2148  0.0994  2.8875
   59ccc     H2 1613   3.542   5.186   5.883 -0.1735  2.6828  1.5929
   59ccc     C3 1614   3.612   5.184   5.684  0.5222  0.4670 -0.2377
   59ccc     C4 1615   3.566   5.218   5.539 -0.1958  0.4754  0.4330
   59ccc     C5 1616   3.421   5.169   5.510  0.0286 -0.4493 -0.0317
   59ccc     H3 1617   3.575   5.327   5.545  1.4170  0.3142  1.9338
   59ccc     H4 1618   3.622   5.075   5.677  1.1352  0.5751 -1.2841
   59ccc     H5 1619   3.422   5.059   5.499  1.7799 -0.3235 -1.6562
   59ccc     O1 1620   3.386   5.225   5.381  0.0783  0.5070 -0.2471
   59ccc     O2 1621   3.665   5.165   5.453 -0.2313  0.1948 -0.2039
   59ccc     O3 1622   3.747   5.231   5.715  0.0429 -0.4909  0.0493
   59ccc     O4 1623   3.492   5.374   5.794  0.6321  0.3904  0.6325
   59ccc     C6 1624   3.259   5.163   5.858  0.0176  0.6754 -0.1874
   59ccc     H6 1625   3.801   5.207   5.638  2.0200 -0.6100  1.3768
   59ccc     H7 1626   3.587   5.391   5.810  0.4244  0.0946  2.3077
   59ccc     H8 1627   3.682   5.230   5.383 -1.1940 -0.0260 -0.6717
   59ccc     H9 1628   3.225   5.267   5.849  1.9204  1.1877 -2.0576
   59ccc    H10 1629   3.296   5.130   5.956  0.6303  0.1014 -0.6011
   59ccc     O5 1630   3.155   5.070   5.808 -0.1835  0.4419  0.3589
   59ccc    H11 1631   3.169   5.054   5.714 -2.0829 -0.4415  0.1683
   59ccc     O6 1632   3.340   5.209   5.623 -0.6684  0.5613  0.0698
   60ccc     C1 1633   2.634   5.977   5.104 -0.4674 -0.6067  0.1141
   60ccc     C2 1634   2.712   6.074   5.203  0.8592  0.5653  1.1706
   60ccc     H1 1635   2.567   5.922   5.171 -2.0886 -1.7282 -2.2657
   60ccc     H2 1636   2.636   6.126   5.263 -1.0180  0.8581 -1.2995
   60ccc     C3 1637   2.800   5.988   5.293  0.3803 -0.3603  0.2541
   60ccc     C4 1638   2.886   5.891   5.213  0.3079 -0.0211 -0.0180
   60ccc     C5 1639   2.791   5.796   5.128  1.0410  0.2908  0.1601
   60ccc     H3 1640   2.947   5.946   5.140  0.7092 -0.4554 -0.0137
   60ccc     H4 1641   2.732   5.917   5.342  0.8013 -0.3160  0.9092
   60ccc     H5 1642   2.711   5.747   5.184  0.9037  0.4509  0.1050
   60ccc     O1 1643   2.875   5.711   5.051 -0.4517  0.1151 -0.0268
   60ccc     O2 1644   2.958   5.807   5.304 -0.0204  0.0464  0.9275
   60ccc     O3 1645   2.888   6.053   5.389 -0.7111 -0.3275  0.2630
   60ccc     O4 1646   2.792   6.166   5.123  0.4138 -0.4148  0.0523
   60ccc     C6 1647   2.563   6.056   4.995 -0.4865  0.3311  0.4051
   60ccc     H6 1648   2.824   6.108   5.438 -1.6869 -0.8932 -0.3327
   60ccc     H7 1649   2.744   6.162   5.039  1.9194  1.8628 -1.0166
   60ccc     H8 1650   3.020   5.755   5.249  0.0946  0.4702  0.6519
   60ccc     H9 1651   2.496   6.124   5.050  0.1718 -0.7998  2.7219
   60ccc    H10 1652   2.505   5.985   4.936  2.2674 -0.1841 -1.8570
   60ccc     O5 1653   2.664   6.123   4.919 -0.1462 -0.5045 -0.2645
   60ccc    H11 1654   2.702   6.055   4.860  0.1527 -0.0327 -0.6311
   60ccc     O6 1655   2.726   5.890   5.044  0.0496 -0.4189  0.4779
   61ccc     C1 1656   2.158   4.946   5.965  0.0491 -0.3257 -0.8063
   61ccc     C2 1657   2.022   5.017   5.997 -0.7019 -0.5279  0.2008
   61ccc     H1 1658   2.233   4.981   6.036  0.2718  1.6859 -1.9699
   61ccc     H2 1659   2.001   5.009   6.104 -1.1661 -0.1389  0.1460
   61ccc     C3 1660   2.038   5.170   5.975 -0.2665  0.1716  0.2461
   61ccc     C4 1661   2.099   5.202   5.838 -0.3197  0.0972 -0.5638
   61ccc     C5 1662   2.224   5.110   5.805 -0.6361 -0.3909  0.1744
   61ccc     H3 1663   2.020   5.177   5.766 -1.9240  2.3739  0.2399
   61ccc     H4 1664   2.105   5.199   6.056  1.4754  0.3330 -1.1971
   61ccc     H5 1665   2.310   5.151   5.859  0.5282  0.3661 -2.1084
   61ccc     O1 1666   2.250   5.121   5.664  0.6937 -0.5773 -0.0909
   61ccc     O2 1667   2.127   5.341   5.827 -0.3271  0.1093  0.4298
   61ccc     O3 1668   1.916   5.248   5.989  0.1505  0.1220  0.2226
   61ccc     O4 1669   1.923   4.976   5.907 -0.1989  0.3241  0.0497
   61ccc     C6 1670   2.147   4.792   5.996  0.2984 -0.7558  0.4764
   61ccc     H6 1671   1.939   5.330   6.037 -1.1507  1.4142 -1.2529
   61ccc     H7 1672   1.940   4.882   5.888  2.5795  0.9134 -0.8897
   61ccc     H8 1673   2.163   5.355   5.738  2.4979 -1.8864  1.1346
   61ccc     H9 1674   2.118   4.787   6.102  1.2067  0.9297  0.8526
   61ccc    H10 1675   2.250   4.758   5.983  1.1826  1.2308  1.8525
   61ccc     O5 1676   2.038   4.733   5.911 -0.3153  0.4810  1.1023
   61ccc    H11 1677   2.044   4.639   5.934 -2.0825  0.2478  0.7198
   61ccc     O6 1678   2.205   4.971   5.833  0.4873 -0.4791 -0.2532
   62ccc     C1 1679   3.048   5.673   5.782 -0.0083 -0.5369 -0.2362
   62ccc     C2 1680   3.095   5.773   5.677 -0.1425 -0.5720  0.2571
   62ccc     H1 1681   3.130   5.654   5.851  0.0981 -0.5760 -0.3727
   62ccc     H2 1682   3.130   5.865   5.726  0.0826 -0.9259  0.7782
   62ccc     C3 1683   3.197   5.713   5.583 -0.4931 -0.2230 -0.9723
   62ccc     C4 1684   3.154   5.578   5.519 -0.2386  0.1763 -0.9989
   62ccc     C5 1685   3.084   5.489   5.631  0.2525  0.1754 -0.2983
   62ccc     H3 1686   3.073   5.595   5.448 -0.4867  0.7585 -0.5822
   62ccc     H4 1687   3.283   5.684   5.645 -0.9500 -2.6635 -1.3695
   62ccc     H5 1688   3.165   5.435   5.681 -0.3503 -0.7256 -0.2834
   62ccc     O1 1689   3.014   5.391   5.547 -0.1113  0.0313  0.6582
   62ccc     O2 1690   3.278   5.523   5.468 -0.2620  0.2570  0.5261
   62ccc     O3 1691   3.232   5.800   5.473 -0.2514 -0.0375  0.4590
   62ccc     O4 1692   2.980   5.810   5.603 -0.0145 -0.8145  0.3903
   62ccc     C6 1693   2.935   5.729   5.875 -0.2338 -0.0902  0.2214
   62ccc     H6 1694   3.260   5.746   5.397  1.7804 -1.7569  2.3110
   62ccc     H7 1695   2.904   5.792   5.662 -0.2970  0.7510  0.5501
   62ccc     H8 1696   3.257   5.431   5.442 -0.7693 -0.4026  2.9924
   62ccc     H9 1697   2.973   5.828   5.903  0.3094  0.0985 -1.0968
   62ccc    H10 1698   2.910   5.656   5.953 -0.9272 -0.5022 -0.3734
   62ccc     O5 1699   2.815   5.753   5.801 -0.0847 -0.0558 -0.1923
   62ccc    H11 1700   2.763   5.797   5.871  1.0489 -1.5536  1.6807
   62ccc     O6 1701   2.987   5.563   5.710  0.4743 -0.7790  0.4282
   63ccc     C1 1702   3.092   2.695   6.039  0.4395 -0.5971  0.3493
   63ccc     C2 1703   3.243   2.669   6.013 -0.0410 -0.2334 -0.1003
   63ccc     H1 1704   3.039   2.704   5.943 -0.0653  0.5480  0.7162
   63ccc     H2 1705   3.256   2.589   5.938  2.8475 -0.5570  0.6189
   63ccc     C3 1706   3.320   2.787   5.954  0.2464 -0.8960 -0.4541
   63ccc     C4 1707   3.273   2.923   6.026 -0.9293  0.2751  0.6661
   63ccc     C5 1708   3.118   2.934   6.023  1.2011  0.1755  0.5995
   63ccc     H3 1709   3.306   2.899   6.128  1.3193  0.1221 -0.0226
   63ccc     H4 1710   3.281   2.790   5.851  0.4960  0.1664 -0.5347
   63ccc     H5 1711   3.085   2.936   5.918  1.1507 -2.7402  0.4784
   63ccc     O1 1712   3.088   3.066   6.085 -0.5076  0.0108 -0.7252
   63ccc     O2 1713   3.336   3.036   5.964  0.1135  0.0050  0.6954
   63ccc     O3 1714   3.465   2.767   5.944 -0.0902 -0.1051  0.3158
   63ccc     O4 1715   3.306   2.633   6.139 -0.3321 -0.0682  0.7205
   63ccc     C6 1716   3.023   2.575   6.115 -0.5676 -0.2333 -0.6652
   63ccc     H6 1717   3.472   2.705   5.869 -1.9861  1.3537 -1.1808
   63ccc     H7 1718   3.388   2.684   6.133  0.4344 -1.3390 -0.1455
   63ccc     H8 1719   3.309   3.120   6.006  0.9031 -0.1433  1.5567
   63ccc     H9 1720   3.057   2.569   6.219 -2.2959 -0.0365 -0.0634
   63ccc    H10 1721   3.036   2.477   6.068 -0.7433 -1.2645  1.3470
   63ccc     O5 1722   2.889   2.623   6.126  0.3501  0.1936  0.1007
   63ccc    H11 1723   2.902   2.713   6.159 -0.0885  0.7231 -1.1015
   63ccc     O6 1724   3.069   2.821   6.103 -0.7010  0.0580  0.1820
   64ccc     C1 1725   2.222   3.494   6.142  0.4941 -0.1620  0.3729
   64ccc     C2 1726   2.085   3.429   6.161 -0.7490  0.6271 -0.1588
   64ccc     H1 1727   2.268   3.444   6.056  1.1992 -0.5704  0.9686
   64ccc     H2 1728   2.019   3.421   6.074 -2.8893  0.4052  1.4100
   64ccc     C3 1729   2.098   3.278   6.211 -0.3314 -0.1817  0.0254
   64ccc     C4 1730   2.208   3.263   6.316  0.4261  0.0252  0.0726
   64ccc     C5 1731   2.334   3.348   6.281 -0.1951 -0.1456  0.2462
   64ccc     H3 1732   2.160   3.288   6.411 -0.9745  0.5851 -0.7515
   64ccc     H4 1733   2.120   3.223   6.119 -0.3435 -0.6975  0.3229
   64ccc     H5 1734   2.385   3.320   6.189  1.9387  0.5174  1.1734
   64ccc     O1 1735   2.428   3.338   6.395  0.2892  0.7184 -0.7650
   64ccc     O2 1736   2.246   3.124   6.313 -0.2819  0.7078  0.4024
   64ccc     O3 1737   1.967   3.222   6.257  0.2594 -0.3677  0.0114
   64ccc     O4 1738   2.008   3.506   6.253 -0.6945 -0.4348 -0.4062
   64ccc     C6 1739   2.217   3.641   6.106 -0.4783 -0.2709 -0.5714
   64ccc     H6 1740   1.982   3.131   6.289 -1.8267 -0.8178 -0.1771
   64ccc     H7 1741   2.039   3.599   6.254  0.5998 -0.8144  1.9730
   64ccc     H8 1742   2.275   3.113   6.405  0.0338 -0.0325  0.2212
   64ccc     H9 1743   2.169   3.650   6.007  0.6833 -0.3380 -1.1503
   64ccc    H10 1744   2.319   3.678   6.095 -1.3759  2.6335 -0.1585
   64ccc     O5 1745   2.146   3.718   6.206  0.0067  0.6046  0.0918
   64ccc    H11 1746   2.219   3.728   6.269  0.8344  2.0894 -1.0268
   64ccc     O6 1747   2.301   3.478   6.263  0.3006 -0.3678  0.8822
   65ccc     C1 1748   3.728   2.624   5.426 -0.5721  0.0916 -0.9031
   65ccc     C2 1749   3.763   2.503   5.511  0.1619  0.0102  0.0063
   65ccc     H1 1750   3.751   2.712   5.486  0.6369 -0.2562 -0.8295
   65ccc     H2 1751   3.871   2.496   5.530  1.0852  2.1157 -3.5749
   65ccc     C3 1752   3.696   2.518   5.645  0.7546 -0.2789 -0.5275
   65ccc     C4 1753   3.542   2.538   5.623  0.0733 -0.2379 -0.1275
   65ccc     C5 1754   3.507   2.647   5.520  0.0906  0.1010  0.5621
   65ccc     H3 1755   3.506   2.445   5.576  0.7252 -0.7671  0.4050
   65ccc     H4 1756   3.732   2.609   5.695 -3.2901  0.2685  1.8273
   65ccc     H5 1757   3.524   2.747   5.561 -0.1572 -0.2958  1.6599
   65ccc     O1 1758   3.362   2.660   5.490  0.2190 -0.1103 -0.1573
   65ccc     O2 1759   3.474   2.566   5.751 -0.0580  0.1976  0.4538
   65ccc     O3 1760   3.716   2.406   5.733 -0.2216  0.3840  0.2552
   65ccc     O4 1761   3.718   2.378   5.446 -0.2986  0.2577 -0.0558
   65ccc     C6 1762   3.792   2.620   5.285  0.1329  0.2677 -0.4065
   65ccc     H6 1763   3.653   2.420   5.805  1.2351  0.9307  1.4870
   65ccc     H7 1764   3.743   2.312   5.514  0.1155  1.0485  0.5771
   65ccc     H8 1765   3.389   2.517   5.745 -0.7200  1.4246 -0.5287
   65ccc     H9 1766   3.740   2.539   5.231 -0.7729  0.8853 -0.4731
   65ccc    H10 1767   3.896   2.586   5.286 -0.2785 -1.2384  2.4801
   65ccc     O5 1768   3.771   2.750   5.228 -0.4297 -0.1744  0.5050
   65ccc    H11 1769   3.676   2.764   5.249 -0.6405  1.6428 -1.3145
   65ccc     O6 1770   3.587   2.633   5.399  0.2224  0.0300  0.1923
   66ccc     C1 1771   2.995   2.922   4.472 -0.1459 -0.0854 -0.7925
   66ccc     C2 1772   2.855   2.878   4.424 -0.1234 -0.5729  0.9181
   66ccc     H1 1773   3.070   2.855   4.428 -1.7915 -0.5996 -2.9680
   66ccc     H2 1774   2.854   2.860   4.316 -1.6354  1.9253  0.4183
   66ccc     C3 1775   2.791   2.753   4.483  0.2015  0.1609  0.3588
   66ccc     C4 1776   2.810   2.757   4.636  0.0776  0.0654 -0.1216
   66ccc     C5 1777   2.953   2.789   4.678  0.0566  0.2814 -0.2157
   66ccc     H3 1778   2.742   2.830   4.682 -0.0286  0.3822 -0.7645
   66ccc     H4 1779   2.842   2.660   4.453  1.5736  0.8586  0.4354
   66ccc     H5 1780   3.017   2.706   4.645 -2.2546 -2.4183  1.6403
   66ccc     O1 1781   2.959   2.800   4.820  0.2803 -0.5091  0.6179
   66ccc     O2 1782   2.784   2.625   4.680  0.1983 -0.7110  0.5622
   66ccc     O3 1783   2.650   2.744   4.447 -0.0286 -0.5920 -0.3601
   66ccc     O4 1784   2.771   2.989   4.456 -0.1621  0.1975 -0.2516
   66ccc     C6 1785   3.028   3.071   4.437  0.4145  1.0673  0.2440
   66ccc     H6 1786   2.642   2.671   4.383 -0.1893  0.0073 -1.0351
   66ccc     H7 1787   2.682   2.960   4.428 -0.4486  1.2058 -0.3991
   66ccc     H8 1788   2.694   2.604   4.649  0.4760  0.6245 -1.3591
   66ccc     H9 1789   2.966   3.142   4.492  1.0547  1.4541  0.4770
   66ccc    H10 1790   3.002   3.085   4.331 -1.3710  0.5765  0.5821
   66ccc     O5 1791   3.164   3.086   4.447 -0.3329 -0.3538 -0.4031
   66ccc    H11 1792   3.198   3.056   4.533  0.5227  0.8195 -0.3058
   66ccc     O6 1793   2.994   2.915   4.615  0.6234 -0.6007 -0.2624
   67ccc     C1 1794   1.531   3.166   4.600  0.0301 -0.5056  0.5131
   67ccc     C2 1795   1.518   3.227   4.461 -0.7175 -0.7070  0.0034
   67ccc     H1 1796   1.458   3.084   4.607  0.0181 -0.3715  2.6292
   67ccc     H2 1797   1.555   3.155   4.387  1.8822 -1.4964  1.9077
   67ccc     C3 1798   1.370   3.279   4.441 -0.4375  0.0988  0.4612
   67ccc     C4 1799   1.312   3.371   4.550 -0.9762 -0.0883 -0.2353
   67ccc     C5 1800   1.361   3.323   4.692 -0.0921  0.3708  0.2416
   67ccc     H3 1801   1.367   3.465   4.537 -1.5583  0.2185 -0.5279
   67ccc     H4 1802   1.323   3.180   4.447  1.0504 -0.6408  0.4365
   67ccc     H5 1803   1.295   3.241   4.724 -0.2781  0.1124 -0.7781
   67ccc     O1 1804   1.339   3.437   4.782 -0.4698 -0.9885  0.8729
   67ccc     O2 1805   1.169   3.377   4.533  0.5736 -0.1254  0.5685
   67ccc     O3 1806   1.341   3.353   4.314 -0.5827 -0.4952 -0.1007
   67ccc     O4 1807   1.601   3.346   4.463 -0.1489  0.4577  0.0660
   67ccc     C6 1808   1.667   3.111   4.641  0.1097 -0.0731 -0.4621
   67ccc     H6 1809   1.349   3.286   4.244  1.0632  0.5748 -1.0054
   67ccc     H7 1810   1.662   3.319   4.534 -0.4745 -0.3735  0.0415
   67ccc     H8 1811   1.150   3.416   4.446 -0.6696  0.3200  1.0279
   67ccc     H9 1812   1.689   3.022   4.581 -0.8901 -0.7445  0.1381
   67ccc    H10 1813   1.666   3.078   4.746 -1.0465  0.7783 -0.1789
   67ccc     O5 1814   1.773   3.215   4.621  0.8921 -0.1027  0.4332
   67ccc    H11 1815   1.837   3.202   4.693  0.8868  0.9349  0.6414
   67ccc     O6 1816   1.504   3.279   4.691 -0.1760 -0.1881 -0.2703
   68ccc     C1 1817   0.595   3.660   5.307 -0.2920  0.4580 -0.5285
   68ccc     C2 1818   0.524   3.736   5.426  0.1859 -0.3838 -0.1235
   68ccc     H1 1819   0.685   3.625   5.359 -1.3214 -0.8846  0.4396
   68ccc     H2 1820   0.524   3.664   5.509  2.6308 -0.5579 -0.1990
   68ccc     C3 1821   0.601   3.867   5.465  0.0273 -0.0808  0.6089
   68ccc     C4 1822   0.676   3.940   5.349  0.2331 -0.7773  0.1619
   68ccc     C5 1823   0.745   3.838   5.254 -0.1296  0.3585 -0.6095
   68ccc     H3 1824   0.602   3.993   5.288  0.4036  1.8372  2.0553
   68ccc     H4 1825   0.682   3.840   5.533  0.5302 -0.8187 -0.2578
   68ccc     H5 1826   0.827   3.785   5.304  1.2921  1.6287 -1.4879
   68ccc     O1 1827   0.789   3.909   5.139 -0.1141 -0.2562 -0.8064
   68ccc     O2 1828   0.769   4.031   5.410 -0.2724  0.2539  0.1234
   68ccc     O3 1829   0.510   3.961   5.533 -0.0861 -0.3865  0.0338
   68ccc     O4 1830   0.399   3.776   5.377 -0.0757  0.4904 -0.5995
   68ccc     C6 1831   0.522   3.540   5.249 -0.9401 -0.1404 -0.1341
   68ccc     H6 1832   0.569   3.997   5.603 -2.0793  0.8214  1.1783
   68ccc     H7 1833   0.379   3.842   5.446 -1.1630 -0.9856  0.5729
   68ccc     H8 1834   0.770   4.110   5.353  0.5567 -1.0149 -1.7254
   68ccc     H9 1835   0.511   3.462   5.325  0.8769  0.2021  0.5080
   68ccc    H10 1836   0.580   3.503   5.164 -0.8643  2.3096 -1.2344
   68ccc     O5 1837   0.399   3.580   5.197 -0.3208 -0.2942 -0.1396
   68ccc    H11 1838   0.400   3.662   5.249 -2.2261 -0.0918 -0.3414
   68ccc     O6 1839   0.638   3.744   5.208 -1.0281 -0.2291 -0.1468
   69ccc     C1 1840   0.768   3.671   5.997  0.2429 -0.2685  0.7018
   69ccc     C2 1841   0.718   3.525   6.016  0.0524  0.0904  0.0058
   69ccc     H1 1842   0.689   3.747   6.004  0.9591  0.6280 -0.4510
   69ccc     H2 1843   0.668   3.508   6.112 -0.7123  1.3787 -0.1329
   69ccc     C3 1844   0.615   3.493   5.905 -0.6560  0.2272  0.1540
   69ccc     C4 1845   0.684   3.513   5.770 -0.4893  0.4539  0.1960
   69ccc     C5 1846   0.739   3.655   5.757  0.3188 -0.4510  0.9930
   69ccc     H3 1847   0.771   3.447   5.759 -1.1515 -0.1767 -1.6789
   69ccc     H4 1848   0.534   3.567   5.900  1.1314  2.2243 -2.6367
   69ccc     H5 1849   0.664   3.733   5.767  1.0732  0.5465 -0.7950
   69ccc     O1 1850   0.818   3.678   5.631  0.0115 -0.3214  0.0680
   69ccc     O2 1851   0.584   3.485   5.662 -0.3809  0.4152  0.0730
   69ccc     O3 1852   0.565   3.358   5.918  0.4852 -0.0436  0.0300
   69ccc     O4 1853   0.820   3.423   5.997  0.1137 -0.2538 -1.0154
   69ccc     C6 1854   0.881   3.703   6.101  0.1487 -0.3660  0.1933
   69ccc     H6 1855   0.484   3.354   5.864  0.3618 -0.3910  0.2331
   69ccc     H7 1856   0.785   3.344   6.042  1.1623 -0.4311 -0.4842
   69ccc     H8 1857   0.575   3.389   5.659 -0.5388  0.4456 -0.5133
   69ccc     H9 1858   0.975   3.649   6.085  0.2736  0.4575 -2.2730
   69ccc    H10 1859   0.847   3.667   6.199  2.7725  1.7090  1.9876
   69ccc     O5 1860   0.900   3.841   6.103  0.2198  0.0227  0.0780
   69ccc    H11 1861   0.991   3.852   6.071 -0.7250  1.2750 -2.5376
   69ccc     O6 1862   0.829   3.679   5.866  0.0565  0.4990 -0.7267
   70ccc     C1 1863   0.796   3.123   4.688  0.1716  0.3027 -0.6165
   70ccc     C2 1864   0.872   3.178   4.568  0.4729  0.1821  0.2261
   70ccc     H1 1865   0.688   3.129   4.674  0.2074 -0.8775 -1.6040
   70ccc     H2 1866   0.850   3.119   4.479 -0.2086 -1.1946  1.2575
   70ccc     C3 1867   0.821   3.324   4.549 -0.2306  0.2263  0.3777
   70ccc     C4 1868   0.844   3.409   4.672 -0.4102  0.1402  1.2734
   70ccc     C5 1869   0.791   3.338   4.802 -0.3245  0.3290  0.1884
   70ccc     H3 1870   0.951   3.434   4.679 -0.3235  0.1223  0.1007
   70ccc     H4 1871   0.713   3.318   4.533 -0.1427 -0.1472 -0.1271
   70ccc     H5 1872   0.681   3.346   4.805 -0.5350 -1.0214 -1.7678
   70ccc     O1 1873   0.844   3.396   4.920  0.2607 -0.3029  0.0671
   70ccc     O2 1874   0.780   3.535   4.649  0.3807 -0.5584 -0.4090
   70ccc     O3 1875   0.873   3.389   4.430  0.4043 -0.1306 -0.6118
   70ccc     O4 1876   1.017   3.170   4.596 -0.3590 -0.2979 -0.5212
   70ccc     C6 1877   0.828   2.978   4.706 -0.6356 -0.1669  0.2904
   70ccc     H6 1878   0.796   3.412   4.375 -1.3226  0.8930  2.0658
   70ccc     H7 1879   1.056   3.255   4.570 -1.6173  0.8978  1.2521
   70ccc     H8 1880   0.846   3.586   4.599  2.6499 -1.9915  0.9690
   70ccc     H9 1881   0.931   2.966   4.740 -0.8020 -1.7343  0.3500
   70ccc    H10 1882   0.832   2.922   4.612  1.6102  0.1193  0.1704
   70ccc     O5 1883   0.732   2.937   4.800  0.1362 -0.6162  0.5799
   70ccc    H11 1884   0.741   3.002   4.873  0.4568 -1.1894  1.0629
   70ccc     O6 1885   0.833   3.199   4.806 -0.0767 -0.7910 -0.5740
   71ccc     C1 1886   0.039   5.560   4.977  0.2464 -0.1248  0.4801
   71ccc     C2 1887  -0.024   5.447   4.893 -0.4976 -0.5061 -0.4062
   71ccc     H1 1888   0.136   5.585   4.932 -0.0784 -1.4420 -1.0197
   71ccc     H2 1889  -0.024   5.477   4.788 -0.4621  0.4102 -0.1539
   71ccc     C3 1890   0.059   5.320   4.917  0.0025 -0.0110 -0.5368
   71ccc     C4 1891   0.067   5.283   5.065 -0.3856 -0.0202  1.1844
   71ccc     C5 1892   0.115   5.404   5.144 -0.0300  0.3135 -0.4544
   71ccc     H3 1893  -0.036   5.256   5.091 -1.5537  2.3022 -0.7333
   71ccc     H4 1894   0.160   5.339   4.879  0.0854  0.8110  0.0600
   71ccc     H5 1895   0.222   5.412   5.120  0.6386 -2.2891  1.2132
   71ccc     O1 1896   0.090   5.366   5.286  0.0978  0.0398 -0.0621
   71ccc     O2 1897   0.160   5.172   5.088  0.0809  0.0447 -0.3307
   71ccc     O3 1898  -0.005   5.212   4.843  0.6216  0.1007  0.2665
   71ccc     O4 1899  -0.157   5.433   4.944  0.2683  0.3760  0.2227
   71ccc     C6 1900  -0.024   5.695   4.957 -0.2335 -0.2316 -0.1806
   71ccc     H6 1901   0.023   5.219   4.751 -0.2569 -1.2628 -0.1314
   71ccc     H7 1902  -0.205   5.370   4.887  3.4025 -1.8123 -0.2909
   71ccc     H8 1903   0.131   5.086   5.052  0.3500 -0.6508  1.0229
   71ccc     H9 1904   0.000   5.745   4.863 -1.3988 -2.9744 -2.0444
   71ccc    H10 1905   0.025   5.760   5.031  1.8428  0.1242 -1.7776
   71ccc     O5 1906  -0.167   5.691   4.974  0.1078 -0.4946  0.1472
   71ccc    H11 1907  -0.172   5.594   4.982 -0.8270 -0.4069  0.8583
   71ccc     O6 1908   0.047   5.532   5.114  0.1353 -0.6687  0.8035
   72ccc     C1 1909   0.579   6.119   5.364 -0.4350 -0.8467  0.1660
   72ccc     C2 1910   0.616   6.215   5.247  0.0442 -0.5819 -0.2981
   72ccc     H1 1911   0.655   6.135   5.442  0.0423 -3.6983  0.3730
   72ccc     H2 1912   0.630   6.313   5.296 -2.3148 -0.4933  0.3549
   72ccc     C3 1913   0.746   6.171   5.171  0.4410 -0.2971  0.0161
   72ccc     C4 1914   0.753   6.016   5.144 -0.4602  0.2349  0.2108
   72ccc     C5 1915   0.712   5.941   5.279 -0.0112  0.1805  0.3661
   72ccc     H3 1916   0.678   5.982   5.072 -0.7498 -1.3670  1.2147
   72ccc     H4 1917   0.832   6.203   5.231  1.4380  0.6328 -1.8057
   72ccc     H5 1918   0.786   5.976   5.352 -0.5207 -0.9367  1.4520
   72ccc     O1 1919   0.710   5.794   5.244  0.6327  0.3283  0.3025
   72ccc     O2 1920   0.892   5.985   5.090  0.1690  0.3209 -0.0478
   72ccc     O3 1921   0.752   6.255   5.048 -0.3293  0.6820  0.2925
   72ccc     O4 1922   0.505   6.211   5.158  0.3904 -0.0538 -0.2237
   72ccc     C6 1923   0.449   6.163   5.433 -0.2648 -0.0960  0.1250
   72ccc     H6 1924   0.829   6.215   5.004 -0.6574  2.0988 -1.7089
   72ccc     H7 1925   0.437   6.166   5.211  0.1451  0.6462  0.0698
   72ccc     H8 1926   0.878   5.902   5.040  2.2776  0.3899 -0.8437
   72ccc     H9 1927   0.453   6.270   5.460 -0.4448  0.0386 -0.3615
   72ccc    H10 1928   0.447   6.107   5.526  0.9238  2.5762  1.8995
   72ccc     O5 1929   0.342   6.132   5.341  0.2013 -0.1945  0.3521
   72ccc    H11 1930   0.340   6.035   5.336 -3.6082 -0.2181 -1.4215
   72ccc     O6 1931   0.580   5.991   5.317 -0.2620  0.1074 -0.4022
   73ccc     C1 1932   1.834   4.589   6.454  0.4682 -0.3218 -0.0964
   73ccc     C2 1933   1.953   4.555   6.364 -0.7533 -0.6082  0.1735
   73ccc     H1 1934   1.830   4.529   6.546  0.6680  2.2204  1.6903
   73ccc     H2 1935   2.039   4.526   6.426  0.1944 -3.9303 -2.3969
   73ccc     C3 1936   1.905   4.427   6.299  0.3967  0.9951  0.3272
   73ccc     C4 1937   1.780   4.446   6.215  0.4790  0.6691  0.1332
   73ccc     C5 1938   1.662   4.462   6.314  0.2733  0.6346 -0.4678
   73ccc     H3 1939   1.792   4.528   6.143 -1.4355  1.2673  0.4310
   73ccc     H4 1940   1.887   4.349   6.374  1.7945 -0.7422 -1.0327
   73ccc     H5 1941   1.657   4.381   6.388  0.4252  2.4030  1.6015
   73ccc     O1 1942   1.535   4.487   6.246  0.5883  0.1153 -0.0046
   73ccc     O2 1943   1.765   4.319   6.146 -0.7919  0.1475 -0.2377
   73ccc     O3 1944   2.020   4.373   6.226  0.2474  0.2758  0.1365
   73ccc     O4 1945   1.970   4.661   6.265  0.7078 -0.2457  0.5646
   73ccc     C6 1946   1.843   4.732   6.513 -0.0273  0.0971  0.1667
   73ccc     H6 1947   2.068   4.312   6.284 -0.4124 -2.8823 -2.4014
   73ccc     H7 1948   2.065   4.653   6.245  0.0596 -1.0319 -2.8790
   73ccc     H8 1949   1.837   4.312   6.080 -0.4633  0.0602  0.1272
   73ccc     H9 1950   1.739   4.757   6.537  0.2047  0.3018  0.9724
   73ccc    H10 1951   1.862   4.797   6.426 -1.6134  0.2948 -0.0601
   73ccc     O5 1952   1.936   4.752   6.626  0.5264  0.1314  0.3226
   73ccc    H11 1953   1.911   4.677   6.683 -0.1078  0.6620  0.7549
   73ccc     O6 1954   1.696   4.576   6.392  0.3152 -0.1762  0.0715
   74ccc     C1 1955   1.018   4.011   5.804  0.3030  0.5180 -0.1558
   74ccc     C2 1956   0.888   4.010   5.724 -0.1850 -0.2295  0.3191
   74ccc     H1 1957   1.023   3.923   5.869  3.1094  1.5305  1.1406
   74ccc     H2 1958   0.884   3.914   5.671 -0.8436  0.4514 -0.8965
   74ccc     C3 1959   0.763   4.027   5.814 -0.6057 -0.2154 -0.0035
   74ccc     C4 1960   0.778   4.155   5.903 -0.2572 -0.0436  0.7223
   74ccc     C5 1961   0.920   4.147   5.978  0.8791 -0.2968  0.1840
   74ccc     H3 1962   0.765   4.250   5.849  0.0678 -0.2009  0.3572
   74ccc     H4 1963   0.764   3.942   5.883 -0.3460 -1.2529 -1.2384
   74ccc     H5 1964   0.922   4.070   6.056 -0.8001  0.3957  0.9606
   74ccc     O1 1965   0.936   4.273   6.044  0.2144  0.0948  0.0639
   74ccc     O2 1966   0.670   4.160   5.998  0.6873 -0.0660  0.1010
   74ccc     O3 1967   0.645   4.032   5.741  0.1049  0.3751 -0.0277
   74ccc     O4 1968   0.888   4.118   5.627  0.0214 -0.3390 -0.2289
   74ccc     C6 1969   1.141   4.007   5.708  0.1074  0.4362  0.5413
   74ccc     H6 1970   0.585   4.037   5.818  0.4483  1.2098  0.1943
   74ccc     H7 1971   0.822   4.099   5.557 -2.1317  1.1205  1.2692
   74ccc     H8 1972   0.590   4.204   5.965  0.0496 -0.0152  1.6143
   74ccc     H9 1973   1.163   4.104   5.663  1.1721  0.3472  0.8554
   74ccc    H10 1974   1.122   3.938   5.625 -2.1476 -0.0909  1.4015
   74ccc     O5 1975   1.250   3.958   5.792  0.2402  0.3357  0.5544
   74ccc    H11 1976   1.281   4.038   5.838  0.8406  0.1519  0.4860
   74ccc     O6 1977   1.022   4.135   5.882  0.3128  0.1935  0.1981
   75ccc     C1 1978   1.933   3.468   4.418 -0.2545 -0.4087 -1.0457
   75ccc     C2 1979   1.899   3.347   4.320 -0.6926  0.0665  0.3441
   75ccc     H1 1980   1.842   3.502   4.469  0.9424  0.2649  0.6952
   75ccc     H2 1981   1.847   3.269   4.376 -1.3973 -1.5761 -2.4090
   75ccc     C3 1982   1.814   3.385   4.195 -0.8974 -0.2246 -0.1022
   75ccc     C4 1983   1.861   3.524   4.134 -0.2725  0.4100 -0.3911
   75ccc     C5 1984   1.897   3.638   4.234  0.2030 -0.5260 -0.1311
   75ccc     H3 1985   1.952   3.489   4.083 -0.4800  0.3537 -0.7242
   75ccc     H4 1986   1.711   3.398   4.232  0.1025 -0.6656  3.0722
   75ccc     H5 1987   1.807   3.661   4.292 -1.4551  1.0135 -3.0825
   75ccc     O1 1988   1.955   3.755   4.164  0.2914  0.3945 -0.2856
   75ccc     O2 1989   1.763   3.573   4.037 -0.0179  0.0396  0.1726
   75ccc     O3 1990   1.811   3.277   4.096 -0.0138 -0.5696 -0.5461
   75ccc     O4 1991   2.020   3.300   4.259  0.1662 -0.1498 -0.1247
   75ccc     C6 1992   2.035   3.445   4.528 -0.3061  0.2479  0.0052
   75ccc     H6 1993   1.769   3.318   4.019 -0.1037  1.0181  0.3007
   75ccc     H7 1994   1.990   3.276   4.169  0.2876 -0.8354  0.0106
   75ccc     H8 1995   1.811   3.602   3.958 -0.2407 -0.8061 -0.2853
   75ccc     H9 1996   1.992   3.383   4.607  0.5504 -1.8069 -1.0676
   75ccc    H10 1997   2.067   3.541   4.571 -0.6952  0.3804  0.0039
   75ccc     O5 1998   2.147   3.382   4.468 -0.3193  0.3446  0.0891
   75ccc    H11 1999   2.116   3.348   4.382 -0.5400  1.2093 -0.1819
   75ccc     O6 2000   1.982   3.583   4.343  0.4450  0.0550  0.1539
   76ccc     C1 2001   0.988   3.781   4.298 -0.3552 -0.4049 -0.2767
   76ccc     C2 2002   1.033   3.637   4.269 -0.5906  0.4501 -0.0513
   76ccc     H1 2003   0.935   3.816   4.209 -1.0620  1.5750  0.8698
   76ccc     H2 2004   0.942   3.576   4.267 -1.5833  1.8751  0.1833
   76ccc     C3 2005   1.119   3.627   4.145  0.5144  0.3825  0.0184
   76ccc     C4 2006   1.239   3.721   4.148 -0.5545 -0.3394 -0.2924
   76ccc     C5 2007   1.190   3.866   4.192  0.2965 -0.4874  0.2441
   76ccc     H3 2008   1.302   3.687   4.231  0.2270  1.3827 -0.1332
   76ccc     H4 2009   1.056   3.645   4.056 -0.0868 -1.5111  0.0097
   76ccc     H5 2010   1.144   3.915   4.105  0.0301 -3.1288 -1.2233
   76ccc     O1 2011   1.315   3.930   4.231  0.5172 -0.5636 -0.1175
   76ccc     O2 2012   1.303   3.714   4.017 -0.4263 -0.2980 -0.0042
   76ccc     O3 2013   1.170   3.490   4.143  0.4332 -0.1071 -0.6368
   76ccc     O4 2014   1.113   3.579   4.375 -0.1453  0.0556 -0.5216
   76ccc     C6 2015   0.900   3.793   4.429  0.9285 -0.7625 -0.2409
   76ccc     H6 2016   1.211   3.476   4.230  0.8839  0.9541 -0.6580
   76ccc     H7 2017   1.067   3.607   4.457  2.2129  2.4133  0.1448
   76ccc     H8 2018   1.397   3.727   4.036 -0.3028 -0.7729 -0.2816
   76ccc     H9 2019   0.805   3.750   4.394 -0.4323  0.9069  1.2382
   76ccc    H10 2020   0.891   3.895   4.467  1.1238 -1.0434  0.5717
   76ccc     O5 2021   0.953   3.704   4.529  0.4716  0.2531  0.0835
   76ccc    H11 2022   0.967   3.768   4.602  0.2059 -0.3110  0.6396
   76ccc     O6 2023   1.100   3.872   4.303  0.0993  0.2242  0.0397
   77ccc     C1 2024   1.612   4.050   5.844  0.0103  1.1307  1.2437
   77ccc     C2 2025   1.675   3.968   5.955 -0.2553  0.3794  0.3572
   77ccc     H1 2026   1.503   4.055   5.852 -0.1475  0.7085 -0.3463
   77ccc     H2 2027   1.674   4.016   6.053 -0.8074 -0.3109  0.7028
   77ccc     C3 2028   1.613   3.826   5.967 -0.1849  0.1735 -0.3118
   77ccc     C4 2029   1.604   3.751   5.836  0.8741  0.3882  0.3817
   77ccc     C5 2030   1.555   3.846   5.722 -0.4366  0.5329 -0.1657
   77ccc     H3 2031   1.705   3.715   5.815  1.0137  1.2547 -0.4706
   77ccc     H4 2032   1.509   3.843   5.997  0.5584  1.1650  1.9294
   77ccc     H5 2033   1.448   3.870   5.733  0.1712  3.0983  0.9113
   77ccc     O1 2034   1.579   3.786   5.589  0.0885  0.1265 -0.1770
   77ccc     O2 2035   1.508   3.641   5.842 -0.6108  0.6866  0.2668
   77ccc     O3 2036   1.680   3.747   6.071 -0.6329 -0.2518  0.1168
   77ccc     O4 2037   1.818   3.950   5.923  0.2394 -0.1071 -0.2832
   77ccc     C6 2038   1.664   4.190   5.839 -0.1173  0.4683 -0.2247
   77ccc     H6 2039   1.757   3.708   6.026 -0.7065  0.5619 -0.7418
   77ccc     H7 2040   1.860   3.920   6.006  0.5372 -0.8574 -0.6994
   77ccc     H8 2041   1.567   3.564   5.850  0.4940  1.5051  0.2993
   77ccc     H9 2042   1.612   4.250   5.915 -2.4726 -1.2980 -0.3318
   77ccc    H10 2043   1.635   4.248   5.751 -1.7765  1.3490  0.8500
   77ccc     O5 2044   1.804   4.189   5.853  0.1550 -0.0541 -0.0253
   77ccc    H11 2045   1.824   4.099   5.882  2.1971 -0.1293 -1.4308
   77ccc     O6 2046   1.634   3.971   5.722 -0.1399 -0.2734  0.0920
   78ccc     C1 2047   1.184   4.652   5.739 -0.1151 -0.2187 -0.5597
   78ccc     C2 2048   1.116   4.615   5.870  0.2851  0.1380  0.0509
   78ccc     H1 2049   1.120   4.730   5.695 -2.5631 -0.9888  1.3965
   78ccc     H2 2050   1.103   4.708   5.928 -0.1423  0.5322 -0.6612
   78ccc     C3 2051   0.978   4.552   5.838  0.2744  0.1340  0.0496
   78ccc     C4 2052   0.990   4.437   5.731  0.6731  0.6553 -0.0754
   78ccc     C5 2053   1.082   4.465   5.607  0.1967 -0.2586  0.6325
   78ccc     H3 2054   1.040   4.352   5.780 -0.4278  0.2214  0.3333
   78ccc     H4 2055   0.924   4.630   5.783 -2.1643 -0.0778  1.9675
   78ccc     H5 2056   1.025   4.525   5.536 -1.2220  0.8462  2.6099
   78ccc     O1 2057   1.129   4.341   5.542  0.4454  0.2890  0.0642
   78ccc     O2 2058   0.856   4.395   5.688  0.0407 -0.4058  0.0837
   78ccc     O3 2059   0.901   4.526   5.955  0.3395 -0.3368 -0.6902
   78ccc     O4 2060   1.198   4.513   5.931 -0.1480  0.4191 -0.5125
   78ccc     C6 2061   1.332   4.703   5.762  0.2312  0.0371  0.0066
   78ccc     H6 2062   0.932   4.443   5.995  0.3037 -0.4841 -0.9599
   78ccc     H7 2063   1.287   4.546   5.909  0.5549 -0.2153  1.1802
   78ccc     H8 2064   0.871   4.302   5.665 -0.2488  0.3610 -3.7896
   78ccc     H9 2065   1.332   4.792   5.826 -2.6054  0.3163 -0.2492
   78ccc    H10 2066   1.379   4.732   5.667  2.1466 -0.2552  0.8203
   78ccc     O5 2067   1.412   4.599   5.823 -0.1820  0.1081  0.3403
   78ccc    H11 2068   1.504   4.628   5.836  0.5057 -2.2882  1.3901
   78ccc     O6 2069   1.199   4.547   5.643  0.5745 -0.5666  0.4885
   79ccc     C1 2070   4.325   4.622   4.798 -0.5424  0.1879  0.3071
   79ccc     C2 2071   4.225   4.533   4.725 -0.4806 -0.2073 -0.1570
   79ccc     H1 2072   4.421   4.623   4.745 -1.2444 -0.3806 -1.0243
   79ccc     H2 2073   4.234   4.556   4.618 -1.5298 -1.1027 -0.4539
   79ccc     C3 2074   4.265   4.379   4.728 -0.1673 -0.1458  0.5579
   79ccc     C4 2075   4.286   4.340   4.879 -0.1339 -0.0601 -0.0350
   79ccc     C5 2076   4.395   4.435   4.944  0.4605 -0.0652 -0.0861
   79ccc     H3 2077   4.191   4.363   4.930 -0.3366 -3.0047  1.1543
   79ccc     H4 2078   4.364   4.371   4.682 -1.7088 -1.2141 -2.9185
   79ccc     H5 2079   4.495   4.424   4.901  1.1291  0.1415  1.3806
   79ccc     O1 2080   4.403   4.400   5.091 -0.1780  0.0907  0.4962
   79ccc     O2 2081   4.315   4.198   4.888  0.4917  0.0918  0.0500
   79ccc     O3 2082   4.184   4.296   4.649 -0.3016  0.0112 -0.0240
   79ccc     O4 2083   4.088   4.551   4.767 -0.0048  0.8123  0.2910
   79ccc     C6 2084   4.289   4.776   4.812 -0.6699  0.4857  0.1822
   79ccc     H6 2085   4.182   4.333   4.559 -1.1762  1.3522  0.5272
   79ccc     H7 2086   4.030   4.492   4.716 -2.8562  0.0298  4.0255
   79ccc     H8 2087   4.316   4.172   4.982 -1.0170 -1.2848 -0.2624
   79ccc     H9 2088   4.284   4.809   4.708  0.5002  0.9720  0.2641
   79ccc    H10 2089   4.369   4.819   4.874  0.9698 -0.4351 -1.1920
   79ccc     O5 2090   4.153   4.783   4.858 -0.2664  0.8540 -0.3470
   79ccc    H11 2091   4.120   4.693   4.845 -0.1882  0.7803 -0.0471
   79ccc     O6 2092   4.349   4.573   4.931  0.4136  0.1933  0.0061
   80ccc     C1 2093   4.302   3.623   5.340  0.5213 -0.5714 -0.2042
   80ccc     C2 2094   4.180   3.528   5.328  0.4525 -0.0551 -0.2392
   80ccc     H1 2095   4.376   3.583   5.411  1.5298 -2.7205 -2.3040
   80ccc     H2 2096   4.232   3.434   5.305  0.4165 -0.4217  1.1110
   80ccc     C3 2097   4.091   3.522   5.450  0.0510 -0.8852 -0.0345
   80ccc     C4 2098   4.046   3.663   5.497 -0.3771  0.4469 -0.1564
   80ccc     C5 2099   4.169   3.757   5.508 -0.4281  0.0391 -0.1220
   80ccc     H3 2100   3.977   3.700   5.421  0.3965  1.6622 -0.2831
   80ccc     H4 2101   4.150   3.468   5.525  0.6194  1.0591  1.0064
   80ccc     H5 2102   4.239   3.728   5.588 -1.0271 -0.6995  0.1480
   80ccc     O1 2103   4.109   3.890   5.539  0.0840 -0.5958  0.2139
   80ccc     O2 2104   3.976   3.644   5.627 -0.5026  0.2271 -0.6333
   80ccc     O3 2105   3.969   3.444   5.408  0.0559 -0.0954  0.0751
   80ccc     O4 2106   4.096   3.570   5.220  0.4123  0.1179  0.0688
   80ccc     C6 2107   4.383   3.645   5.214  0.3906 -0.0029 -0.1202
   80ccc     H6 2108   3.921   3.417   5.488 -1.7408 -0.5012 -1.0837
   80ccc     H7 2109   4.010   3.536   5.251  0.8605 -1.8888 -0.7370
   80ccc     H8 2110   3.897   3.702   5.624  0.2861  1.4276  0.4219
   80ccc     H9 2111   4.425   3.552   5.174  1.5867 -0.3102  1.7203
   80ccc    H10 2112   4.470   3.709   5.235  0.2584  0.1512 -0.0376
   80ccc     O5 2113   4.303   3.718   5.118 -0.5040 -0.1336  0.0891
   80ccc    H11 2114   4.226   3.704   5.176  1.8512  0.7948  3.8336
   80ccc     O6 2115   4.256   3.753   5.388 -0.1290  0.0245 -0.4182
   81ccc     C1 2116   3.983   4.406   6.389  0.1516  0.3864 -0.0686
   81ccc     C2 2117   3.946   4.261   6.441 -0.6708 -0.5187  0.0237
   81ccc     H1 2118   3.898   4.475   6.395  0.7160  1.2204 -1.3241
   81ccc     H2 2119   3.897   4.273   6.538  0.8567 -1.3415  0.9461
   81ccc     C3 2120   3.848   4.190   6.347 -0.3034 -0.8076 -0.5445
   81ccc     C4 2121   3.895   4.193   6.199  0.3652  0.1550  0.8857
   81ccc     C5 2122   3.929   4.334   6.162 -0.4061  0.0812 -0.0089
   81ccc     H3 2123   3.986   4.136   6.176  0.7428  0.5719  1.3311
   81ccc     H4 2124   3.752   4.236   6.373  0.3449  0.2452  0.0639
   81ccc     H5 2125   3.845   4.404   6.171  1.5193  2.4248  0.9947
   81ccc     O1 2126   3.989   4.344   6.027  0.4251 -0.5175  0.3554
   81ccc     O2 2127   3.788   4.139   6.118 -0.1177 -0.1426 -0.2926
   81ccc     O3 2128   3.846   4.050   6.388 -0.5805 -0.2753  0.7777
   81ccc     O4 2129   4.065   4.175   6.442 -0.4861 -0.1716  0.0250
   81ccc     C6 2130   4.109   4.474   6.454 -0.4161  0.9114  0.2400
   81ccc     H6 2131   3.757   4.012   6.373 -0.0200 -1.0232 -0.9267
   81ccc     H7 2132   4.022   4.089   6.425  1.7530 -1.8521  2.1004
   81ccc     H8 2133   3.839   4.085   6.056  0.0629 -1.2068  0.7420
   81ccc     H9 2134   4.192   4.412   6.418 -1.2031  0.0912 -0.2082
   81ccc    H10 2135   4.115   4.467   6.563  2.2752  0.2802  0.0979
   81ccc     O5 2136   4.113   4.613   6.422  0.2944 -0.3854  0.3381
   81ccc    H11 2137   4.044   4.656   6.474  1.1122 -0.9164  1.9428
   81ccc     O6 2138   4.023   4.382   6.256  0.4262  0.0575 -0.0758
   82ccc     C1 2139   4.476   4.359   6.124  0.6129  1.3108  0.0367
   82ccc     C2 2140   4.576   4.337   6.244 -0.0829  0.0565 -0.3562
   82ccc     H1 2141   4.531   4.350   6.030 -0.1241 -0.5640 -0.2564
   82ccc     H2 2142   4.623   4.239   6.255  0.8489  0.6644  1.5438
   82ccc     C3 2143   4.696   4.429   6.217 -0.9495  0.5522  0.1685
   82ccc     C4 2144   4.652   4.576   6.197  0.8136  0.5441  0.2838
   82ccc     C5 2145   4.532   4.593   6.091  0.0714  0.2811 -0.1928
   82ccc     H3 2146   4.612   4.599   6.296 -2.4725  3.6959 -1.4949
   82ccc     H4 2147   4.726   4.388   6.120 -2.9230  1.5756 -0.9646
   82ccc     H5 2148   4.568   4.581   5.988  0.1277 -0.4609 -0.0942
   82ccc     O1 2149   4.480   4.724   6.103  0.1056  0.5454  0.1230
   82ccc     O2 2150   4.764   4.663   6.163  0.0550 -0.0670 -0.7273
   82ccc     O3 2151   4.801   4.429   6.319  0.2841 -0.4527 -0.1113
   82ccc     O4 2152   4.504   4.367   6.366 -0.4061 -0.2914 -0.7476
   82ccc     C6 2153   4.347   4.264   6.119 -0.8168 -0.6059  0.4627
   82ccc     H6 2154   4.763   4.463   6.402  0.7792 -0.4968  0.1365
   82ccc     H7 2155   4.443   4.293   6.382  0.3837 -1.1080 -1.3980
   82ccc     H8 2156   4.840   4.620   6.205  0.1274 -0.9441 -1.7148
   82ccc     H9 2157   4.277   4.291   6.199 -1.2305  0.7278 -0.3220
   82ccc    H10 2158   4.365   4.157   6.135 -0.5322 -0.5734  0.3573
   82ccc     O5 2159   4.271   4.276   5.989 -0.4793  0.3526 -0.7531
   82ccc    H11 2160   4.195   4.334   6.008 -0.1334  0.1121  1.6964
   82ccc     O6 2161   4.429   4.496   6.127 -0.4292 -0.2630 -0.0287
   83ccc     C1 2162   3.575   3.343   6.229 -0.2087  0.6433 -0.3971
   83ccc     C2 2163   3.599   3.218   6.139 -0.2864 -0.5374 -0.4411
   83ccc     H1 2164   3.479   3.389   6.204  1.2183  3.6839 -0.7201
   83ccc     H2 2165   3.513   3.150   6.138 -1.5048  0.9504 -1.4013
   83ccc     C3 2166   3.617   3.272   5.996  0.2503 -0.0497 -0.9740
   83ccc     C4 2167   3.723   3.384   5.989 -0.0603  0.3313 -0.1645
   83ccc     C5 2168   3.689   3.502   6.086  0.2513  0.9557  0.0553
   83ccc     H3 2169   3.812   3.334   6.028 -0.1730  0.7851  0.6970
   83ccc     H4 2170   3.521   3.326   5.988  1.4466  2.9189  2.2660
   83ccc     H5 2171   3.594   3.549   6.060  0.3491  0.3901 -1.4281
   83ccc     O1 2172   3.790   3.595   6.083  0.1721 -0.0516 -0.4128
   83ccc     O2 2173   3.733   3.410   5.847  0.3719 -0.0549 -0.3950
   83ccc     O3 2174   3.631   3.172   5.901 -0.1146 -0.4118 -0.0508
   83ccc     O4 2175   3.710   3.145   6.194  0.4397  0.1824 -0.3577
   83ccc     C6 2176   3.575   3.304   6.375  0.7861  0.1047 -0.1276
   83ccc     H6 2177   3.686   3.213   5.832  1.2187 -2.0744 -0.0254
   83ccc     H7 2178   3.712   3.067   6.137 -1.5649 -0.2273  0.0751
   83ccc     H8 2179   3.695   3.498   5.832  0.5412  0.3191  1.2117
   83ccc     H9 2180   3.678   3.299   6.412  1.4375  2.0888 -1.5068
   83ccc    H10 2181   3.530   3.204   6.376 -0.7357  0.7717  0.0553
   83ccc     O5 2182   3.493   3.399   6.449 -0.0070  0.4757  0.0584
   83ccc    H11 2183   3.554   3.472   6.467  0.6402  0.3273 -1.3491
   83ccc     O6 2184   3.688   3.441   6.222  0.1547 -0.0381  0.3846
   84ccc     C1 2185   4.531   3.914   5.569  0.2172  0.8561 -0.6361
   84ccc     C2 2186   4.587   4.048   5.528  0.4064  0.3395  0.1209
   84ccc     H1 2187   4.448   3.894   5.500 -1.0428  1.8659  0.5115
   84ccc     H2 2188   4.599   4.038   5.420  0.7454  0.0784  0.1793
   84ccc     C3 2189   4.489   4.165   5.557  0.0421  0.2285  0.3149
   84ccc     C4 2190   4.431   4.156   5.701  0.6054  0.0272  0.0783
   84ccc     C5 2191   4.380   4.017   5.735 -0.2775  0.1443  0.0749
   84ccc     H3 2192   4.522   4.173   5.760 -0.3837  1.4652  1.2688
   84ccc     H4 2193   4.403   4.139   5.494  0.5922 -1.2728  0.1318
   84ccc     H5 2194   4.287   3.990   5.684  0.2408 -1.7965  0.0761
   84ccc     O1 2195   4.352   4.005   5.878  0.4227 -0.7607  0.4828
   84ccc     O2 2196   4.345   4.271   5.737  0.5903  0.3907 -0.3177
   84ccc     O3 2197   4.562   4.288   5.527 -0.1720  0.3956 -0.2021
   84ccc     O4 2198   4.715   4.076   5.604  0.2878  0.0594  0.1528
   84ccc     C6 2199   4.634   3.798   5.545  0.0499 -0.5514  0.1304
   84ccc     H6 2200   4.538   4.360   5.588  2.2230  0.7943  0.3558
   84ccc     H7 2201   4.723   4.164   5.562  0.3073 -0.6099 -1.3011
   84ccc     H8 2202   4.297   4.246   5.818  1.0101 -0.7233 -0.4075
   84ccc     H9 2203   4.665   3.817   5.442 -1.8925  0.0058 -0.3813
   84ccc    H10 2204   4.589   3.700   5.561 -0.9841 -0.7509 -3.2686
   84ccc     O5 2205   4.730   3.820   5.650  0.1398  0.0178  0.5876
   84ccc    H11 2206   4.727   3.916   5.662 -0.6794 -0.0599  1.0779
   84ccc     O6 2207   4.489   3.918   5.706 -0.0553 -0.4780 -0.3350
   85ccc     C1 2208   2.465   3.194   4.366  0.2214 -0.2203 -0.4041
   85ccc     C2 2209   2.462   3.078   4.270  0.1140 -0.5638  0.5084
   85ccc     H1 2210   2.413   3.280   4.321  0.1434  0.5583  1.1209
   85ccc     H2 2211   2.363   3.058   4.227  0.8547  0.3242 -1.7713
   85ccc     C3 2212   2.549   3.129   4.148 -0.7735 -0.0188  0.6566
   85ccc     C4 2213   2.696   3.173   4.198  0.8416 -0.2222 -0.7286
   85ccc     C5 2214   2.685   3.284   4.304  0.1737  0.1322  0.0765
   85ccc     H3 2215   2.744   3.085   4.242 -0.3259 -0.7537 -0.4795
   85ccc     H4 2216   2.504   3.223   4.113  0.4478 -0.0420 -1.1180
   85ccc     H5 2217   2.645   3.378   4.262 -1.8109 -0.1002  1.3116
   85ccc     O1 2218   2.820   3.310   4.357  0.4894 -0.1655  0.3031
   85ccc     O2 2219   2.774   3.216   4.079  0.3174 -1.0855 -0.3394
   85ccc     O3 2220   2.557   3.026   4.049 -0.3449 -0.7789  0.1276
   85ccc     O4 2221   2.517   2.962   4.340 -0.0574 -0.6989  0.0373
   85ccc     C6 2222   2.390   3.166   4.500 -0.4405  0.1120 -0.4087
   85ccc     H6 2223   2.578   3.066   3.963  0.0287  0.1880  0.6473
   85ccc     H7 2224   2.543   2.895   4.275 -0.6057 -0.4617 -0.4355
   85ccc     H8 2225   2.835   3.143   4.058  2.6051  0.9673 -1.2039
   85ccc     H9 2226   2.449   3.096   4.561 -0.0656 -0.1581 -1.0790
   85ccc    H10 2227   2.294   3.120   4.473 -0.4552 -0.0023 -0.1700
   85ccc     O5 2228   2.364   3.288   4.579  0.0618 -0.2976 -0.7074
   85ccc    H11 2229   2.292   3.333   4.531  0.1193  1.3173  0.6630
   85ccc     O6 2230   2.599   3.235   4.405  0.6215  0.2780 -0.0910
   86ccc     C1 2231   3.672   2.967   4.776  0.3502  0.3805 -0.1925
   86ccc     C2 2232   3.693   2.973   4.928  0.2799 -0.2344 -0.1127
   86ccc     H1 2233   3.768   2.979   4.724  0.2123 -1.2726 -0.8754
   86ccc     H2 2234   3.764   2.899   4.967  0.6196  1.3956  2.6044
   86ccc     C3 2235   3.738   3.114   4.983 -0.1575 -0.7468 -0.0201
   86ccc     C4 2236   3.645   3.236   4.929 -0.3277 -0.3848  0.1998
   86ccc     C5 2237   3.608   3.216   4.781 -0.1164 -0.2232  0.6149
   86ccc     H3 2238   3.550   3.229   4.982 -1.1542  1.2892 -0.9591
   86ccc     H4 2239   3.832   3.147   4.938 -0.0209 -0.0456  0.7525
   86ccc     H5 2240   3.696   3.251   4.727 -0.3304  0.0997  0.4766
   86ccc     O1 2241   3.496   3.303   4.758 -0.4029 -0.5331  1.0405
   86ccc     O2 2242   3.710   3.361   4.941 -0.2744  0.6814 -0.5402
   86ccc     O3 2243   3.761   3.118   5.122 -0.0860 -0.0133  0.3633
   86ccc     O4 2244   3.564   2.934   4.983 -0.1910 -0.6806 -0.3552
   86ccc     C6 2245   3.611   2.835   4.719  0.2260 -0.0540 -0.3526
   86ccc     H6 2246   3.827   3.186   5.143 -0.7107  0.9567 -0.7115
   86ccc     H7 2247   3.532   2.891   4.902  3.1178 -0.8370 -1.7144
   86ccc     H8 2248   3.641   3.429   4.929 -2.2543 -1.2297 -0.5892
   86ccc     H9 2249   3.673   2.749   4.750  0.2148  0.1311  0.1974
   86ccc    H10 2250   3.609   2.861   4.613 -0.5942  2.6100  0.2498
   86ccc     O5 2251   3.470   2.826   4.760  0.8556  0.7668 -0.5951
   86ccc    H11 2252   3.427   2.766   4.696  1.6066 -0.3346 -0.0898
   86ccc     O6 2253   3.576   3.078   4.751 -0.2241  0.0913  0.0112
   87ccc     C1 2254   2.466   3.904   6.326  0.3968  0.7753 -0.3398
   87ccc     C2 2255   2.375   3.867   6.454 -0.4455  0.5699 -0.0130
   87ccc     H1 2256   2.533   3.985   6.355  0.1510  1.1394 -0.7726
   87ccc     H2 2257   2.438   3.856   6.542 -0.2794 -0.2345 -0.2232
   87ccc     C3 2258   2.265   3.982   6.477 -0.0693  0.1114 -0.3156
   87ccc     C4 2259   2.189   4.037   6.359  0.5901 -0.1400  0.1185
   87ccc     C5 2260   2.286   4.050   6.239 -0.0803 -0.2403 -0.5184
   87ccc     H3 2261   2.099   3.983   6.328 -1.2017  2.1933  0.9382
   87ccc     H4 2262   2.319   4.072   6.508 -0.3826  0.9342 -2.0057
   87ccc     H5 2263   2.354   4.135   6.251  0.6307 -0.8052 -0.4389
   87ccc     O1 2264   2.210   4.063   6.117  0.6896 -0.0978 -0.6151
   87ccc     O2 2265   2.143   4.173   6.399 -0.0689 -0.4619 -0.6467
   87ccc     O3 2266   2.175   3.940   6.586 -0.7806  0.0105  0.0395
   87ccc     O4 2267   2.315   3.740   6.427 -0.5835  0.0510 -0.1486
   87ccc     C6 2268   2.563   3.792   6.273 -0.1585 -0.2718 -0.3006
   87ccc     H6 2269   2.198   3.988   6.667 -0.0476  0.0147 -0.1612
   87ccc     H7 2270   2.256   3.710   6.499  1.3282 -2.2375  0.6433
   87ccc     H8 2271   2.077   4.163   6.470  0.9391  1.7563  0.7381
   87ccc     H9 2272   2.509   3.702   6.239 -1.1685  0.3348 -0.3524
   87ccc    H10 2273   2.633   3.764   6.353 -0.2185 -1.6650 -0.7126
   87ccc     O5 2274   2.630   3.851   6.162 -0.7397  0.2724  0.2335
   87ccc    H11 2275   2.558   3.889   6.108  0.2045  3.5361  1.0218
   87ccc     O6 2276   2.371   3.931   6.224  0.5355  0.0670 -0.0730
   88ccc     C1 2277   2.594   4.404   6.229  0.4428  0.1136  0.1204
   88ccc     C2 2278   2.511   4.409   6.366  0.4166  0.2174  0.2276
   88ccc     H1 2279   2.657   4.493   6.234  0.7898 -0.1664  0.8280
   88ccc     H2 2280   2.578   4.431   6.450  1.5814 -2.6371  0.1764
   88ccc     C3 2281   2.404   4.519   6.353 -0.5650 -0.6259 -0.1298
   88ccc     C4 2282   2.330   4.514   6.214  0.4807 -0.3358  0.0193
   88ccc     C5 2283   2.427   4.524   6.092  0.8217 -0.0871  0.4599
   88ccc     H3 2284   2.271   4.423   6.200  1.6590 -0.9695 -1.1033
   88ccc     H4 2285   2.460   4.612   6.364  0.0148 -0.9499 -0.3139
   88ccc     H5 2286   2.486   4.616   6.093  0.5266  0.1537 -1.6190
   88ccc     O1 2287   2.348   4.512   5.968 -0.1042  0.0099 -0.5193
   88ccc     O2 2288   2.244   4.630   6.213  0.4888 -0.4934 -0.6672
   88ccc     O3 2289   2.313   4.507   6.468  0.3007 -0.7635  0.1472
   88ccc     O4 2290   2.446   4.291   6.405  0.3115 -0.1411 -0.0445
   88ccc     C6 2291   2.689   4.284   6.231  0.6827 -0.8375  0.9011
   88ccc     H6 2292   2.274   4.596   6.474  1.8426 -0.0076 -0.5562
   88ccc     H7 2293   2.372   4.326   6.457 -0.1227  0.5054 -1.0545
   88ccc     H8 2294   2.295   4.706   6.245 -1.0080 -0.2111  1.2381
   88ccc     H9 2295   2.638   4.187   6.228  0.5291 -0.8034  1.9052
   88ccc    H10 2296   2.736   4.284   6.330  0.2810 -0.8875  1.0928
   88ccc     O5 2297   2.781   4.300   6.127 -0.3646 -0.9773  0.2270
   88ccc    H11 2298   2.832   4.378   6.154  2.0228 -2.1981 -0.4275
   88ccc     O6 2299   2.506   4.411   6.109 -0.4023  0.2621 -0.2396
   89ccc     C1 2300   2.586   2.925   6.290 -0.0450 -0.0149 -0.1617
   89ccc     C2 2301   2.500   2.799   6.283  0.5345 -0.4060  0.6783
   89ccc     H1 2302   2.518   3.008   6.313  1.6966  1.5815 -0.5579
   89ccc     H2 2303   2.449   2.787   6.379 -0.5589  0.5139  0.2490
   89ccc     C3 2304   2.387   2.815   6.169  0.0935 -0.2960  0.1675
   89ccc     C4 2305   2.454   2.864   6.038 -0.2906  0.9338  0.4603
   89ccc     C5 2306   2.555   2.981   6.045  0.2431 -0.5118 -0.9003
   89ccc     H3 2307   2.508   2.774   6.007 -1.5807  0.2574  0.1195
   89ccc     H4 2308   2.323   2.901   6.194  0.6946  0.2656 -0.2176
   89ccc     H5 2309   2.499   3.074   6.061  0.8246 -0.0529 -1.4896
   89ccc     O1 2310   2.640   2.993   5.930 -0.0433 -0.2583 -0.1477
   89ccc     O2 2311   2.351   2.890   5.940 -0.3012  0.4877  0.5700
   89ccc     O3 2312   2.296   2.708   6.153 -0.6840  0.0333  0.1833
   89ccc     O4 2313   2.592   2.695   6.246  0.1479  0.3508 -1.0842
   89ccc     C6 2314   2.690   2.932   6.400  0.2587  0.3164  0.0843
   89ccc     H6 2315   2.257   2.673   6.235  0.7603  0.6700  1.1848
   89ccc     H7 2316   2.673   2.740   6.278  1.0872  0.0686 -2.9568
   89ccc     H8 2317   2.318   2.799   5.929 -1.0910  0.7691  0.5837
   89ccc     H9 2318   2.641   2.919   6.496  0.2684 -1.1579 -0.0876
   89ccc    H10 2319   2.747   3.026   6.391  1.9253 -0.6584 -0.0496
   89ccc     O5 2320   2.783   2.826   6.388  0.7401  0.0276  0.3428
   89ccc    H11 2321   2.869   2.856   6.420  1.0959  1.5261 -1.8234
   89ccc     O6 2322   2.645   2.955   6.162  0.1720 -0.2053  0.2414
   90ccc     C1 2323   3.610   3.360   5.453 -0.0590 -0.3512  0.4260
   90ccc     C2 2324   3.649   3.219   5.406  0.1733  0.5431 -0.3640
   90ccc     H1 2325   3.681   3.396   5.529 -0.8807  2.1908  0.0856
   90ccc     H2 2326   3.756   3.216   5.381  0.7489  1.5005  1.7650
   90ccc     C3 2327   3.624   3.114   5.526 -0.3034 -0.9564 -0.8584
   90ccc     C4 2328   3.480   3.130   5.582  0.2081 -0.4344  0.7990
   90ccc     C5 2329   3.451   3.280   5.616  0.9861  0.4917 -0.2559
   90ccc     H3 2330   3.414   3.103   5.499  1.2106  1.3490 -0.6561
   90ccc     H4 2331   3.698   3.143   5.602 -0.2774 -0.8504 -0.9235
   90ccc     H5 2332   3.517   3.300   5.701  1.3446 -0.5990 -0.2645
   90ccc     O1 2333   3.306   3.285   5.648 -0.4720 -0.2279 -0.0432
   90ccc     O2 2334   3.462   3.046   5.698 -0.1635 -0.4136 -0.0968
   90ccc     O3 2335   3.665   2.985   5.483 -0.7944  0.1568 -0.1101
   90ccc     O4 2336   3.568   3.193   5.296 -0.3514  0.0579  0.1451
   90ccc     C6 2337   3.617   3.463   5.338 -0.6742 -0.0832 -0.4512
   90ccc     H6 2338   3.609   2.961   5.407 -2.7787  1.8653  0.6903
   90ccc     H7 2339   3.635   3.172   5.228 -1.0149  1.9020 -1.1523
   90ccc     H8 2340   3.367   3.043   5.719  0.0614 -1.8319  0.8503
   90ccc     H9 2341   3.519   3.462   5.288 -0.6867  0.1093 -0.4322
   90ccc    H10 2342   3.697   3.440   5.266 -0.0253 -0.4671  0.3683
   90ccc     O5 2343   3.639   3.597   5.394 -0.1485 -0.7074  0.0201
   90ccc    H11 2344   3.554   3.617   5.437 -0.3220 -0.3623 -0.4674
   90ccc     O6 2345   3.478   3.364   5.510 -0.4817  0.3960  0.4534
   91ccc     C1 2346   1.565   2.614   4.974 -0.2733 -0.2630 -0.4480
   91ccc     C2 2347   1.438   2.656   5.064 -0.2046 -0.0522  0.1561
   91ccc     H1 2348   1.646   2.679   5.010 -0.0205 -0.4347 -0.7051
   91ccc     H2 2349   1.455   2.636   5.171 -1.7305 -1.3206  0.1991
   91ccc     C3 2350   1.414   2.812   5.042  0.7522 -0.7221 -0.0340
   91ccc     C4 2351   1.390   2.840   4.892 -0.4152 -0.4475 -0.6837
   91ccc     C5 2352   1.515   2.792   4.809 -0.9719  1.0075  0.1706
   91ccc     H3 2353   1.301   2.783   4.863 -1.3028  0.3949  0.2569
   91ccc     H4 2354   1.500   2.872   5.072  0.6729  0.8249 -2.5788
   91ccc     H5 2355   1.596   2.857   4.843 -0.2395 -0.0053  0.4029
   91ccc     O1 2356   1.486   2.814   4.668  0.6283  0.4339  0.2244
   91ccc     O2 2357   1.369   2.982   4.884  0.3030  0.1330  0.2884
   91ccc     O3 2358   1.302   2.860   5.122 -0.0248 -0.5648  0.3662
   91ccc     O4 2359   1.327   2.577   5.019 -0.1699 -0.3041 -0.2630
   91ccc     C6 2360   1.609   2.472   4.983  0.2765 -0.1948  0.1924
   91ccc     H6 2361   1.306   2.818   5.210 -0.8774 -1.1947  0.1072
   91ccc     H7 2362   1.372   2.514   4.959  0.4628  1.7455 -2.0392
   91ccc     H8 2363   1.333   2.994   4.795  1.5283  1.7487 -0.0545
   91ccc     H9 2364   1.628   2.464   5.091  1.4590 -2.1318 -0.1206
   91ccc    H10 2365   1.702   2.454   4.928  1.3480 -0.1518  1.9023
   91ccc     O5 2366   1.503   2.382   4.940  0.1372  0.0565 -0.1497
   91ccc    H11 2367   1.543   2.294   4.947 -1.0204 -0.4215  0.7367
   91ccc     O6 2368   1.547   2.652   4.838 -0.1091  0.4347 -0.4228
   92ccc     C1 2369   2.320   3.014   4.770 -0.4164 -0.2490 -0.0746
   92ccc     C2 2370   2.268   3.024   4.915  0.9464  0.6050 -0.4633
   92ccc     H1 2371   2.351   3.117   4.751 -2.6197 -0.1201 -3.9336
   92ccc     H2 2372   2.355   3.046   4.978  0.6386 -1.5936  0.8095
   92ccc     C3 2373   2.149   3.131   4.920 -0.0126 -0.4329 -0.0637
   92ccc     C4 2374   2.036   3.101   4.822  0.3055  0.6403  0.0118
   92ccc     C5 2375   2.092   3.078   4.680 -0.2329 -1.1116  0.0778
   92ccc     H3 2376   1.998   3.004   4.855 -1.0996  1.6275  1.4870
   92ccc     H4 2377   2.187   3.224   4.877  0.6492 -1.1923 -1.1624
   92ccc     H5 2378   2.120   3.179   4.647 -0.4939 -0.0799  2.8099
   92ccc     O1 2379   1.995   3.020   4.585  0.9694 -0.7016 -0.3058
   92ccc     O2 2380   1.936   3.203   4.833  0.0090 -0.2592  0.1984
   92ccc     O3 2381   2.105   3.145   5.060  0.3764  0.2999  0.0922
   92ccc     O4 2382   2.215   2.894   4.933 -0.4298  0.2135 -0.1818
   92ccc     C6 2383   2.439   2.917   4.743 -0.3072 -0.2042 -0.1096
   92ccc     H6 2384   2.089   3.238   5.084 -0.4887  0.2441 -0.2146
   92ccc     H7 2385   2.230   2.874   5.027 -0.3178 -3.2913 -0.8275
   92ccc     H8 2386   1.893   3.194   4.920 -0.7886 -1.0573 -0.2738
   92ccc     H9 2387   2.524   2.931   4.811 -1.5985  0.6498  1.4146
   92ccc    H10 2388   2.469   2.916   4.638 -1.1694  1.6434 -0.4288
   92ccc     O5 2389   2.393   2.792   4.776  0.6298 -0.4291 -0.3152
   92ccc    H11 2390   2.311   2.816   4.823  0.4183  0.0494 -0.9199
   92ccc     O6 2391   2.213   2.995   4.677  0.9193  0.3561 -0.2726
   93ccc     C1 2392   1.386   2.359   4.292 -0.2734 -0.8856  0.4438
   93ccc     C2 2393   1.262   2.442   4.339 -0.6033 -0.0706  0.4745
   93ccc     H1 2394   1.355   2.254   4.295  1.2330 -1.3961 -0.4376
   93ccc     H2 2395   1.176   2.392   4.294  1.3084 -2.6692 -0.5817
   93ccc     C3 2396   1.251   2.455   4.492  0.3038 -0.4372  0.0694
   93ccc     C4 2397   1.380   2.479   4.559 -0.4607  0.0284  0.2823
   93ccc     C5 2398   1.488   2.381   4.511  1.0205 -0.1311  0.4360
   93ccc     H3 2399   1.400   2.586   4.543 -0.8351  0.0245 -0.2194
   93ccc     H4 2400   1.221   2.355   4.529 -0.7200 -1.0424 -2.2476
   93ccc     H5 2401   1.458   2.278   4.532 -1.2450 -0.4220 -3.2484
   93ccc     O1 2402   1.606   2.413   4.585 -0.1079 -0.1200  0.2163
   93ccc     O2 2403   1.360   2.460   4.699  0.3437 -0.2729 -0.2287
   93ccc     O3 2404   1.137   2.535   4.525  0.8170  0.4632  0.0929
   93ccc     O4 2405   1.271   2.574   4.293  0.6532 -0.0652  0.1886
   93ccc     C6 2406   1.410   2.376   4.141  0.1593  0.6680 -0.5921
   93ccc     H6 2407   1.129   2.550   4.620 -0.3249 -0.4970  0.1590
   93ccc     H7 2408   1.221   2.612   4.368  0.0598 -1.1425  0.3599
   93ccc     H8 2409   1.443   2.472   4.748 -0.6394 -3.1823  2.5221
   93ccc     H9 2410   1.464   2.471   4.129 -0.4398  0.8959 -1.6211
   93ccc    H10 2411   1.313   2.360   4.093 -0.5062 -2.2538  1.3998
   93ccc     O5 2412   1.497   2.275   4.086  0.3827  0.2309 -0.0928
   93ccc    H11 2413   1.537   2.305   4.003  1.6608  0.2434  0.4993
   93ccc     O6 2414   1.509   2.394   4.371 -0.9895 -0.3139 -0.5179
   94ccc     C1 2415   1.757   2.873   5.334 -0.2700 -0.2887  0.3863
   94ccc     C2 2416   1.662   2.997   5.341  0.3280  0.0114 -0.0050
   94ccc     H1 2417   1.851   2.922   5.363 -0.3157  0.8563 -1.2903
   94ccc     H2 2418   1.668   3.040   5.441 -0.1534 -0.9717  0.4625
   94ccc     C3 2419   1.703   3.110   5.242 -1.0032 -0.6585  0.8813
   94ccc     C4 2420   1.718   3.064   5.096  0.2268  0.4829 -0.1710
   94ccc     C5 2421   1.810   2.929   5.097  0.6280  0.1383  0.1227
   94ccc     H3 2422   1.618   3.042   5.056 -0.2139 -1.5988  1.8150
   94ccc     H4 2423   1.807   3.131   5.272 -0.4247  1.7844 -2.3201
   94ccc     H5 2424   1.912   2.963   5.118  0.8896 -1.1113  0.9769
   94ccc     O1 2425   1.804   2.870   4.967  0.5622 -0.8109 -0.7151
   94ccc     O2 2426   1.778   3.173   5.020  0.8089 -0.1853 -0.0213
   94ccc     O3 2427   1.631   3.231   5.251 -0.2712 -0.2893 -0.0160
   94ccc     O4 2428   1.529   2.960   5.316  0.0534  0.1150  0.3366
   94ccc     C6 2429   1.717   2.755   5.432  0.1228 -0.4814  0.2738
   94ccc     H6 2430   1.697   3.297   5.280  1.6386 -2.2478  0.3967
   94ccc     H7 2431   1.474   3.031   5.353 -1.5393 -1.5882  1.4508
   94ccc     H8 2432   1.708   3.241   5.017  1.3600  0.4036  0.2625
   94ccc     H9 2433   1.705   2.805   5.529  0.8411  0.0380  0.1027
   94ccc    H10 2434   1.796   2.678   5.435 -0.7005 -1.5103 -1.9834
   94ccc     O5 2435   1.593   2.707   5.378 -0.2349  0.2047  0.3308
   94ccc    H11 2436   1.578   2.800   5.351 -0.9409  0.1558  0.5414
   94ccc     O6 2437   1.765   2.831   5.198 -0.1691  0.6868 -0.0195
   95SOL     OW 2438   2.158   9.167   8.717 -0.1144  0.2148 -0.2907
   95SOL    HW1 2439   2.190   9.108   8.785 -2.9554 -0.0532  0.9528
   95SOL    HW2 2440   2.179   9.122   8.635  1.7741 -0.3067  0.4037
   96SOL     OW 2441   0.321   0.293   8.689  0.0664 -0.2228  0.0096
   96SOL    HW1 2442   0.312   0.344   8.608  1.0053  0.3796  0.2630
   96SOL    HW2 2443   0.309   0.202   8.661 -1.3709  0.1009 -0.4931
   97SOL     OW 2444   1.636   2.477   5.783  0.3930 -0.3786 -0.3289
   97SOL    HW1 2445   1.731   2.473   5.786  0.3781 -1.1535 -0.4980
   97SOL    HW2 2446   1.615   2.477   5.690  0.2283 -0.2489 -0.2915
   98SOL     OW 2447   4.461   4.407   3.102  0.7951  0.5476  0.6147
   98SOL    HW1 2448   4.545   4.449   3.086  1.5931 -1.6196 -1.6980
   98SOL    HW2 2449   4.410   4.426   3.023  0.3898 -0.8351  0.5126
   99SOL     OW 2450   9.454   9.564   3.659  0.1663 -0.2151  0.2000
   99SOL    HW1 2451   9.400   9.557   3.580 -1.8527 -1.0325  1.5632
   99SOL    HW2 2452   9.392   9.587   3.728  1.3889 -2.1065  2.0409
  100SOL     OW 2453   6.007   6.047   3.221 -0.4380  0.0172 -0.6202
  100SOL    HW1 2454   5.996   6.127   3.170 -1.6723 -0.1954 -0.7236
  100SOL    HW2 2455   6.007   6.076   3.312  1.7478  0.3951 -0.6904
  101SOL     OW 2456   4.553   3.400   8.046 -0.4929  0.5226 -0.1953
  101SOL    HW1 2457   4.573   3.307   8.053 -0.0869  0.6064 -0.2113
  101SOL    HW2 2458   4.616   3.434   7.982  0.7322  1.1922  1.2871
  102SOL     OW 2459   7.421   0.605   6.485 -0.0546  0.4222 -0.5887
  102SOL    HW1 2460   7.348   0.544   6.490 -0.5318  0.7195 -2.8019
  102SOL    HW2 2461   7.479   0.579   6.557 -0.4140 -2.4004 -1.1924
  103SOL     OW 2462   9.476   0.216   0.676 -0.9250  0.2091 -0.0825
  103SOL    HW1 2463   9.445   0.164   0.750 -1.9065  0.8891  0.0033
  103SOL    HW2 2464   9.522   0.290   0.716  0.5195 -0.5868 -0.2045
  104SOL     OW 2465   5.470   6.645   9.272 -0.3075 -0.2317  0.6572
  104SOL    HW1 2466   5.534   6.575   9.287 -0.0319 -0.1635 -0.1660
  104SOL    HW2 2467   5.445   6.674   9.360 -0.9199 -1.8046  1.0345
  105SOL     OW 2468   8.824   4.706   0.318 -0.9003 -0.1642  0.4709
  105SOL    HW1 2469   8.804   4.709   0.411  1.9007  2.6880  1.1410
  105SOL    HW2 2470   8.775   4.779   0.281  0.1161  0.4272  0.2557
  106SOL     OW 2471   5.338   8.160   3.240 -0.0797  0.2521 -0.3237
  106SOL    HW1 2472   5.272   8.201   3.295 -1.0962  1.5452 -2.4206
  106SOL    HW2 2473   5.322   8.194   3.152  1.1721 -2.0887 -1.5573
  107SOL     OW 2474   6.802   2.749   4.737 -0.5667 -0.4005  0.2111
  107SOL    HW1 2475   6.773   2.839   4.724 -2.3071 -1.1298 -1.6345
  107SOL    HW2 2476   6.868   2.735   4.669  0.6475 -0.1843  1.3067
  108SOL     OW 2477   9.437   1.219   1.908  0.1558  0.6360 -1.2843
  108SOL    HW1 2478   9.495   1.180   1.973 -1.5771 -0.8896 -0.5569
  108SOL    HW2 2479   9.429   1.311   1.935  1.0911  0.5227 -0.5710
  109SOL     OW 2480   6.185   0.341   3.989 -0.1797  0.4716 -0.5675
  109SOL    HW1 2481   6.148   0.301   4.068  0.3969  0.2410 -0.4029
  109SOL    HW2 2482   6.113   0.342   3.926 -1.5344  3.3412  0.8565
  110SOL     OW 2483   6.419   8.175   7.309 -0.4384 -0.3090 -0.2659
  110SOL    HW1 2484   6.456   8.143   7.227  0.9155  1.5130 -0.4281
  110SOL    HW2 2485   6.333   8.209   7.284  0.5029  1.4884 -1.2731
  111SOL     OW 2486   3.646   4.831   1.555 -0.3852 -0.1630  0.2567
  111SOL    HW1 2487   3.689   4.760   1.603 -1.9720 -2.7235 -1.8331
  111SOL    HW2 2488   3.564   4.844   1.602  0.5068  1.4598  1.4990
  112SOL     OW 2489   7.307   9.008   0.933 -0.2110 -0.4075  0.2376
  112SOL    HW1 2490   7.237   9.074   0.936  1.2499  1.2555 -0.6558
  112SOL    HW2 2491   7.380   9.047   0.979  0.9271 -1.1170 -0.8962
  113SOL     OW 2492   5.661   8.883   2.060  0.0090  0.4543 -0.3463
  113SOL    HW1 2493   5.626   8.795   2.071  0.1057  0.4821  0.2139
  113SOL    HW2 2494   5.747   8.881   2.103 -0.3950  1.0790  0.5381
  114SOL     OW 2495   9.282   4.453   2.892 -0.6423 -0.4776 -0.1074
  114SOL    HW1 2496   9.332   4.513   2.947  0.0209 -0.1414 -1.0588
  114SOL    HW2 2497   9.348   4.412   2.836 -1.1142 -1.8735  0.3000
  115SOL     OW 2498   3.662   8.811   9.118 -0.3993 -0.0352 -0.2321
  115SOL    HW1 2499   3.732   8.750   9.140 -0.3481  0.6776  1.8470
  115SOL    HW2 2500   3.604   8.762   9.060  1.1620 -1.0293 -1.0137
  116SOL     OW 2501   2.308   6.938   1.621 -0.8725 -0.1397 -0.8556
  116SOL    HW1 2502   2.375   6.967   1.682 -1.6399 -0.8452  0.3513
  116SOL    HW2 2503   2.348   6.950   1.534  0.0827  1.2353 -0.2539
  117SOL     OW 2504   8.916   7.485   6.342 -0.1331 -0.3562  0.0736
  117SOL    HW1 2505   8.929   7.417   6.276 -1.0510 -0.6252  0.1569
  117SOL    HW2 2506   8.826   7.474   6.372 -0.8934  1.9567 -1.1162
  118SOL     OW 2507   7.113   5.387   9.566 -0.3964 -0.1087 -0.0883
  118SOL    HW1 2508   7.126   5.295   9.542 -0.1820  0.4206 -2.2341
  118SOL    HW2 2509   7.082   5.385   9.657  1.4640 -2.1764  0.5771
  119SOL     OW 2510   5.742   8.490   2.493  0.2552 -0.2552 -0.2613
  119SOL    HW1 2511   5.755   8.461   2.583  0.5958 -1.7430 -0.7659
  119SOL    HW2 2512   5.728   8.410   2.443  1.5897  0.3909 -1.7962
  120SOL     OW 2513   8.348   9.074   4.874 -0.0002 -0.1116  0.1102
  120SOL    HW1 2514   8.335   8.993   4.825 -0.1859 -1.1285  1.7959
  120SOL    HW2 2515   8.418   9.119   4.827 -0.1559 -1.0464 -1.0766
  121SOL     OW 2516   4.378   6.453   9.265 -0.2506  0.1621 -0.0158
  121SOL    HW1 2517   4.470   6.432   9.249 -0.3625  0.8617 -1.8026
  121SOL    HW2 2518   4.380   6.529   9.323  0.3493  0.8172 -0.8626
  122SOL     OW 2519   7.633   5.005   5.411  0.2750  0.5797 -0.2766
  122SOL    HW1 2520   7.564   4.939   5.406  0.1296  0.8176 -1.7456
  122SOL    HW2 2521   7.707   4.960   5.451 -0.5183  0.1545  0.7565
  123SOL     OW 2522   0.924   1.867   3.221  0.4285  0.4904 -0.1500
  123SOL    HW1 2523   0.988   1.873   3.292  1.6669 -2.9045 -0.7816
  123SOL    HW2 2524   0.971   1.824   3.150 -1.7959  0.4378 -1.6841
  124SOL     OW 2525   7.430   6.947   8.108  0.2253  0.6887 -0.0762
  124SOL    HW1 2526   7.439   6.894   8.187 -0.8173  2.1365  1.0618
  124SOL    HW2 2527   7.488   7.021   8.122  1.0383  0.3191 -1.2887
  125SOL     OW 2528   5.149   3.689   0.383 -0.5879  0.4719  0.1677
  125SOL    HW1 2529   5.089   3.757   0.352  0.1388  1.8007  1.5334
  125SOL    HW2 2530   5.176   3.642   0.304 -2.2352  0.8158 -0.6394
  126SOL     OW 2531   6.654   7.593   6.809 -0.0114  0.0890  0.5704
  126SOL    HW1 2532   6.605   7.671   6.783  0.9957  0.2727 -0.9461
  126SOL    HW2 2533   6.647   7.535   6.733  0.5093 -0.6670  1.0921
  127SOL     OW 2534   0.827   0.772   6.175 -0.0522  0.0367  0.1185
  127SOL    HW1 2535   0.868   0.835   6.234  1.0141 -0.0598 -0.4882
  127SOL    HW2 2536   0.795   0.702   6.232  1.5221 -0.3614  0.5587
  128SOL     OW 2537   2.235   6.250   6.011  0.6729  0.4429 -0.4166
  128SOL    HW1 2538   2.266   6.245   5.921  2.7971  1.4505  0.1800
  128SOL    HW2 2539   2.254   6.341   6.037  0.1608  0.1491  1.0480
  129SOL     OW 2540   6.409   6.927   1.658  0.0872 -0.1471 -0.2039
  129SOL    HW1 2541   6.342   6.864   1.685 -0.0017  0.3382  0.7791
  129SOL    HW2 2542   6.416   6.987   1.733  0.3829  0.8249 -0.9917
  130SOL     OW 2543   2.862   2.219   7.902 -0.0923 -0.3796 -0.0358
  130SOL    HW1 2544   2.931   2.156   7.880 -0.6708 -0.4902 -1.6712
  130SOL    HW2 2545   2.851   2.271   7.823 -1.9404 -0.4157  0.1555
  131SOL     OW 2546   4.495   0.709   6.134 -0.3520  0.1321 -0.4896
  131SOL    HW1 2547   4.465   0.796   6.111 -0.2902  0.0438 -0.9139
  131SOL    HW2 2548   4.586   0.706   6.103 -0.9146 -0.7193 -2.2296
  132SOL     OW 2549   5.207   6.098   4.753  0.1371  0.0587 -0.0444
  132SOL    HW1 2550   5.181   6.187   4.729  0.1529 -0.0184 -0.3517
  132SOL    HW2 2551   5.202   6.049   4.671  0.1552 -0.2174  0.1187
  133SOL     OW 2552   6.889   5.418   6.094 -0.4846  0.2247  0.0304
  133SOL    HW1 2553   6.956   5.380   6.038 -0.6340  1.8709 -1.3396
  133SOL    HW2 2554   6.932   5.493   6.136 -1.5375  1.6395 -1.2903
  134SOL     OW 2555   7.736   0.406   9.254 -0.1834 -0.4714  0.3543
  134SOL    HW1 2556   7.709   0.489   9.293  1.7577  0.6762 -0.5765
  134SOL    HW2 2557   7.656   0.369   9.217 -1.1407  0.8325  1.0576
  135SOL     OW 2558   5.286   2.097   3.056  0.3949 -0.0360 -0.0261
  135SOL    HW1 2559   5.380   2.095   3.074  0.3932 -0.3786 -0.0498
  135SOL    HW2 2560   5.250   2.156   3.123  0.7336  0.7885 -0.5548
  136SOL     OW 2561   8.674   6.907   1.564 -0.2801  0.2725  0.2003
  136SOL    HW1 2562   8.591   6.933   1.524 -0.7869 -2.3452 -0.6713
  136SOL    HW2 2563   8.653   6.895   1.657 -0.8853 -0.3159 -0.0046
  137SOL     OW 2564   3.522   6.234   5.854  0.3664  0.0100  0.1922
  137SOL    HW1 2565   3.557   6.154   5.894  1.1067  0.4357  0.4069
  137SOL    HW2 2566   3.431   6.237   5.885  0.0487 -1.2068 -0.5331
  138SOL     OW 2567   5.272   8.928   3.675 -0.2780 -0.0582  0.1684
  138SOL    HW1 2568   5.301   8.842   3.647  0.5502  0.3260 -0.1921
  138SOL    HW2 2569   5.346   8.964   3.724 -0.1590  0.8952 -0.6755
  139SOL     OW 2570   6.047   5.064   0.526 -0.4140  0.5583 -0.4889
  139SOL    HW1 2571   6.026   5.147   0.484 -0.6231  1.3515  1.1354
  139SOL    HW2 2572   6.143   5.061   0.526 -0.3831  1.2429  0.2534
  140SOL     OW 2573   6.696   8.180   2.837 -0.1812  0.3246 -0.2809
  140SOL    HW1 2574   6.618   8.212   2.792 -0.2731  1.0034  0.3459
  140SOL    HW2 2575   6.736   8.258   2.874  0.3472 -0.1218  0.0990
  141SOL     OW 2576   3.168   1.352   4.569  0.4047  0.0101  0.0232
  141SOL    HW1 2577   3.196   1.420   4.508 -0.3476 -0.4008 -0.8136
  141SOL    HW2 2578   3.094   1.390   4.616 -1.0319 -0.7290 -1.5488
  142SOL     OW 2579   6.066   4.321   4.145 -0.0063  0.3280  0.3451
  142SOL    HW1 2580   6.013   4.319   4.066 -0.3828 -0.6666  0.6147
  142SOL    HW2 2581   6.065   4.231   4.178  2.2514  0.1448  0.0943
  143SOL     OW 2582   1.126   0.655   4.840 -0.2247  0.1467  0.0016
  143SOL    HW1 2583   1.119   0.746   4.812  0.9121  0.6656  1.2883
  143SOL    HW2 2584   1.208   0.651   4.890 -1.4343 -1.0033  2.0660
  144SOL     OW 2585   9.292   3.598   0.010  0.0531  0.0652  0.0332
  144SOL    HW1 2586   9.219   3.546   0.045  1.1263 -0.9440  0.8508
  144SOL    HW2 2587   9.257   3.687   0.006 -1.4034 -0.4748 -0.1264
  145SOL     OW 2588   2.650   0.456   7.478 -0.0513  0.3123  0.0350
  145SOL    HW1 2589   2.613   0.411   7.403  0.0888  2.2169 -1.2487
  145SOL    HW2 2590   2.602   0.539   7.483  1.2124  1.0373  0.8651
  146SOL     OW 2591   7.262   2.784   3.079  0.1403 -0.4302  0.0731
  146SOL    HW1 2592   7.195   2.852   3.072 -0.4942 -0.9935  0.5246
  146SOL    HW2 2593   7.331   2.812   3.019 -1.5690 -1.0460 -2.3123
  147SOL     OW 2594   5.978   4.643   2.412  0.1249  0.5084 -0.6191
  147SOL    HW1 2595   5.957   4.623   2.504 -1.0214  0.3046 -0.9089
  147SOL    HW2 2596   5.901   4.689   2.380  0.7142  0.9910 -1.3605
  148SOL     OW 2597   6.109   7.949   6.529 -0.0155  0.6565 -0.1575
  148SOL    HW1 2598   6.148   8.036   6.529 -0.9815  1.1097  0.3781
  148SOL    HW2 2599   6.022   7.961   6.490 -0.2262 -0.0283  0.0706
  149SOL     OW 2600   7.080   4.937   9.473  0.2669  0.0656 -0.3801
  149SOL    HW1 2601   7.169   4.934   9.509 -0.0529  0.1057  0.4305
  149SOL    HW2 2602   7.091   4.916   9.380  1.4311  2.3863 -0.8577
  150SOL     OW 2603   5.138   7.183   6.983  0.0853 -0.0233  0.1325
  150SOL    HW1 2604   5.049   7.214   7.000 -0.6062 -2.1584  0.7455
  150SOL    HW2 2605   5.138   7.093   7.014  2.8828  0.3338  1.4903
  151SOL     OW 2606   7.503   8.144   7.485  0.6738 -0.5920  0.2735
  151SOL    HW1 2607   7.527   8.191   7.405 -0.5395 -1.9078 -0.9233
  151SOL    HW2 2608   7.587   8.118   7.523  1.2731 -1.6236 -1.6287
  152SOL     OW 2609   9.285   9.428   8.709 -0.0494 -0.2538 -0.0760
  152SOL    HW1 2610   9.371   9.420   8.750  0.5361 -1.7095 -1.4972
  152SOL    HW2 2611   9.268   9.522   8.708  1.2998  0.0290  0.6643
  153SOL     OW 2612   8.195   2.572   1.026 -0.8474 -0.4619 -0.1462
  153SOL    HW1 2613   8.152   2.491   1.054 -1.3077 -0.0605  0.3365
  153SOL    HW2 2614   8.203   2.563   0.931 -3.9808  0.3327 -0.6069
  154SOL     OW 2615   0.649   6.831   6.195  0.1720  0.3020 -0.0545
  154SOL    HW1 2616   0.729   6.883   6.201  0.0247  0.4427  0.7616
  154SOL    HW2 2617   0.609   6.858   6.112 -0.0414  1.6994  0.4850
  155SOL     OW 2618   7.272   0.463   8.457  1.1008 -0.5882  0.0433
  155SOL    HW1 2619   7.219   0.537   8.484  0.0530 -1.2980 -0.0214
  155SOL    HW2 2620   7.339   0.501   8.399  0.1446  0.2040 -0.5733
  156SOL     OW 2621   5.695   9.254   1.162  0.5644 -0.3154  0.0915
  156SOL    HW1 2622   5.776   9.204   1.169  1.1945  0.7601  0.8860
  156SOL    HW2 2623   5.645   9.211   1.093  1.4886 -1.4434  0.1074
  157SOL     OW 2624   2.392   9.580   5.926 -0.4068  1.0208  0.3856
  157SOL    HW1 2625   2.350   9.566   6.011 -0.9438  1.5881  0.2162
  157SOL    HW2 2626   2.387   9.674   5.911 -0.1181  0.9531 -0.1784
  158SOL     OW 2627   8.216   2.146   2.178 -0.0475 -0.6549  0.2868
  158SOL    HW1 2628   8.254   2.179   2.096 -1.0257 -1.1148 -0.3577
  158SOL    HW2 2629   8.225   2.219   2.239 -0.1147  0.0049 -0.4810
  159SOL     OW 2630   6.873   6.227   2.419  0.2071  0.1475 -0.2351
  159SOL    HW1 2631   6.954   6.179   2.439 -0.8286 -0.3456  3.4410
  159SOL    HW2 2632   6.883   6.310   2.466 -0.9010  0.6502 -0.8608
  160SOL     OW 2633   7.042   7.751   1.374  0.1154 -0.5061  0.0417
  160SOL    HW1 2634   7.098   7.721   1.303  0.4880  1.2313 -0.4414
  160SOL    HW2 2635   7.059   7.845   1.380  0.0814 -0.5839  2.4163
  161SOL     OW 2636   9.480   6.321   5.891  0.0097 -0.0396  0.3144
  161SOL    HW1 2637   9.390   6.331   5.921 -0.4101 -0.5728 -0.7006
  161SOL    HW2 2638   9.474   6.261   5.816  1.0843  0.6462 -0.3561
  162SOL     OW 2639   5.692   0.943   8.932 -0.0652 -0.1721 -0.3193
  162SOL    HW1 2640   5.747   0.882   8.981  0.0755  0.9009  0.9004
  162SOL    HW2 2641   5.739   1.026   8.936 -0.9432  0.3544 -0.7336
  163SOL     OW 2642   1.410   1.778   0.498  0.2413  0.5667  0.2859
  163SOL    HW1 2643   1.432   1.870   0.513  0.5048  0.9410 -2.1085
  163SOL    HW2 2644   1.476   1.746   0.437 -1.0720 -0.6131 -0.5997
  164SOL     OW 2645   4.559   3.773   8.344 -0.0799  0.1412 -0.0728
  164SOL    HW1 2646   4.537   3.744   8.256  1.6905 -0.6282 -0.3089
  164SOL    HW2 2647   4.634   3.719   8.369  2.5096  3.5186  0.0343
  165SOL     OW 2648   9.582   7.025   4.099  0.1042  0.5700  0.0043
  165SOL    HW1 2649   9.531   7.076   4.036 -0.8617 -1.0612 -0.5938
  165SOL    HW2 2650   9.549   6.936   4.090  1.2869 -0.0594  1.4759
  166SOL     OW 2651   5.331   1.464   7.112 -0.6920 -0.1759  0.3319
  166SOL    HW1 2652   5.406   1.422   7.071 -0.0216 -0.7909  2.1113
  166SOL    HW2 2653   5.363   1.550   7.139 -2.2057  2.0184 -3.8204
  167SOL     OW 2654   1.238   4.628   8.984  0.0897  0.7801  0.3141
  167SOL    HW1 2655   1.280   4.670   8.908 -1.8318 -0.2736 -1.4470
  167SOL    HW2 2656   1.150   4.607   8.953 -0.0681 -1.6699  2.1573
  168SOL     OW 2657   6.286   4.555   4.714 -0.0671 -0.1718  0.4002
  168SOL    HW1 2658   6.287   4.479   4.656 -0.7366 -0.7364  1.1004
  168SOL    HW2 2659   6.356   4.537   4.778  0.4676  0.3025 -0.0456
  169SOL     OW 2660   0.855   7.137   2.185  0.1830 -0.9052 -0.7663
  169SOL    HW1 2661   0.844   7.042   2.179 -3.4678 -0.5617 -1.7969
  169SOL    HW2 2662   0.797   7.163   2.257  2.1373  0.5124  0.4212
  170SOL     OW 2663   8.354   3.865   7.108  0.3283 -0.4903 -0.5031
  170SOL    HW1 2664   8.445   3.890   7.120  0.7371 -1.1683 -1.9816
  170SOL    HW2 2665   8.304   3.928   7.160  1.6631 -0.5464  0.9098
  171SOL     OW 2666   7.383   4.921   1.623  0.2302  0.0250 -0.0080
  171SOL    HW1 2667   7.355   4.830   1.610  0.8345 -0.2600  0.6220
  171SOL    HW2 2668   7.371   4.962   1.537  0.0149 -0.6658 -0.3177
  172SOL     OW 2669   0.516   1.261   2.396 -0.1723 -0.1020 -0.3193
  172SOL    HW1 2670   0.534   1.351   2.371 -0.8051  0.5856  1.5381
  172SOL    HW2 2671   0.602   1.223   2.413  0.0019  0.9441  1.3413
  173SOL     OW 2672   9.331   5.781   7.113  0.1905  0.0119 -0.1842
  173SOL    HW1 2673   9.406   5.827   7.151 -1.2315  0.2376  2.6625
  173SOL    HW2 2674   9.314   5.709   7.175 -3.3334  1.3913  0.7096
  174SOL     OW 2675   7.300   9.323   3.228 -0.5060 -0.3430 -0.4367
  174SOL    HW1 2676   7.227   9.377   3.199 -0.4730 -0.8134 -1.4649
  174SOL    HW2 2677   7.366   9.385   3.257 -1.4359  0.0787  0.8504
  175SOL     OW 2678   4.255   0.877   1.651  0.0705  0.1206  0.1616
  175SOL    HW1 2679   4.283   0.848   1.738 -0.1937 -0.4293  0.0709
  175SOL    HW2 2680   4.183   0.937   1.667  0.1926  0.2200  0.3348
  176SOL     OW 2681   5.978   8.200   5.449  0.2236 -0.0718  0.1158
  176SOL    HW1 2682   6.067   8.233   5.435  0.5380 -0.4822  1.0697
  176SOL    HW2 2683   5.960   8.218   5.541 -0.1046 -1.3523  0.3143
  177SOL     OW 2684   6.892   5.280   2.881 -0.0641 -0.1817  0.0724
  177SOL    HW1 2685   6.977   5.292   2.839 -0.3261  0.1604 -0.3699
  177SOL    HW2 2686   6.879   5.185   2.883  0.3391 -0.2368  0.1755
  178SOL     OW 2687   1.605   4.108   6.578 -0.2758  0.6520 -0.9345
  178SOL    HW1 2688   1.659   4.060   6.642 -1.5482  2.6780  1.8947
  178SOL    HW2 2689   1.661   4.117   6.501  2.6498  0.8394  1.0419
  179SOL     OW 2690   8.603   2.640   2.414  0.1527 -0.1997  0.0789
  179SOL    HW1 2691   8.556   2.556   2.414  1.2120 -0.8393  1.9788
  179SOL    HW2 2692   8.577   2.682   2.332 -0.9728 -2.0633 -0.5679
  180SOL     OW 2693   5.574   2.103   3.415  0.8314  0.1747  0.4709
  180SOL    HW1 2694   5.583   2.058   3.499 -1.9224 -0.6196  0.4526
  180SOL    HW2 2695   5.499   2.161   3.428  1.1591  0.9927 -1.0771
  181SOL     OW 2696   3.123   5.936   3.869 -0.3863 -0.0190  0.4319
  181SOL    HW1 2697   3.083   5.852   3.892 -0.7597  0.2765  0.8952
  181SOL    HW2 2698   3.167   5.921   3.785  0.3853 -0.9455  0.9830
  182SOL     OW 2699   9.205   0.190   2.482 -0.1633  0.0975  0.1939
  182SOL    HW1 2700   9.165   0.235   2.556 -0.1645 -0.0136  0.2605
  182SOL    HW2 2701   9.277   0.247   2.456  0.2901 -0.2206  0.7401
  183SOL     OW 2702   6.116   9.577   5.410  0.2020  0.2780  0.2770
  183SOL    HW1 2703   6.131   9.530   5.327 -1.2308  2.5245 -1.3551
  183SOL    HW2 2704   6.028   9.552   5.436  0.3155  0.2663  0.6475
  184SOL     OW 2705   9.272   5.958   1.780 -0.0129 -0.6037  0.1368
  184SOL    HW1 2706   9.186   5.976   1.741 -0.3145 -0.1223  1.0134
  184SOL    HW2 2707   9.326   6.033   1.754  0.1903 -0.9613 -0.5106
  185SOL     OW 2708   1.476   8.364   3.226 -0.1292  0.3128  0.3441
  185SOL    HW1 2709   1.405   8.345   3.287 -1.0135 -1.4914 -1.1555
  185SOL    HW2 2710   1.433   8.377   3.141  0.9773  3.7531  0.1560
  186SOL     OW 2711   8.921   5.947   2.950  0.3032 -0.1399  0.3483
  186SOL    HW1 2712   8.952   6.037   2.951 -2.1827  0.7763  0.5370
  186SOL    HW2 2713   8.945   5.912   3.037  1.8074  0.0935  0.0540
  187SOL     OW 2714   9.624   6.124   3.199 -0.3762 -0.1675 -0.0451
  187SOL    HW1 2715   9.536   6.145   3.168  0.0796  0.0338 -1.2742
  187SOL    HW2 2716   9.627   6.028   3.196 -0.6204 -0.1843  0.2002
  188SOL     OW 2717   5.211   5.180   0.847  0.0985 -0.0903 -0.4382
  188SOL    HW1 2718   5.153   5.104   0.843 -2.3898  1.7057 -1.4091
  188SOL    HW2 2719   5.224   5.206   0.756  0.6540  0.7910 -0.1197
  189SOL     OW 2720   6.546   8.963   8.953  0.3291 -0.2786  0.1539
  189SOL    HW1 2721   6.458   8.995   8.972  0.6721  0.1246  1.1114
  189SOL    HW2 2722   6.546   8.949   8.858 -0.2203  1.3702 -0.1177
  190SOL     OW 2723   0.180   0.383   5.672  0.5432  0.1383 -0.2079
  190SOL    HW1 2724   0.228   0.303   5.691 -0.0303 -0.0764  0.3588
  190SOL    HW2 2725   0.088   0.357   5.670  0.3686  0.7334 -0.2833
  191SOL     OW 2726   4.773   2.658   4.766 -0.2171 -0.0068 -0.1441
  191SOL    HW1 2727   4.796   2.583   4.711  0.4037 -0.3362  0.5478
  191SOL    HW2 2728   4.802   2.734   4.716  0.6827 -0.3201 -0.1107
  192SOL     OW 2729   3.093   4.298   8.069  0.0646 -0.1836  0.3555
  192SOL    HW1 2730   3.183   4.319   8.044  0.5047 -1.0734  1.1554
  192SOL    HW2 2731   3.082   4.206   8.044 -0.0231 -0.6131  1.8581
  193SOL     OW 2732   4.742   5.302   7.179 -0.8706  0.2875 -0.5854
  193SOL    HW1 2733   4.763   5.298   7.086  0.4028  0.6514 -0.3330
  193SOL    HW2 2734   4.815   5.258   7.222 -1.9053 -0.7497  0.2069
  194SOL     OW 2735   3.084   0.935   0.161 -0.7794  0.1320 -0.3912
  194SOL    HW1 2736   2.996   0.904   0.140 -0.7252 -0.0497 -0.3520
  194SOL    HW2 2737   3.072   0.993   0.236 -0.7588 -0.5865  0.1836
  195SOL     OW 2738   1.087   5.923   3.044 -0.4391 -0.7490 -0.5074
  195SOL    HW1 2739   1.087   5.996   2.982  0.4420  1.1101  1.5306
  195SOL    HW2 2740   1.009   5.938   3.098  0.5245 -0.4102  0.8503
  196SOL     OW 2741   6.336   5.228   5.360 -0.7192  0.8251  0.7391
  196SOL    HW1 2742   6.391   5.158   5.324 -2.6254  0.1654 -1.1401
  196SOL    HW2 2743   6.390   5.269   5.427  0.9832 -1.5694  0.9693
  197SOL     OW 2744   9.411   7.072   3.685 -0.3700 -0.2388 -0.0204
  197SOL    HW1 2745   9.414   7.155   3.637 -1.4790 -0.5930 -0.7318
  197SOL    HW2 2746   9.371   7.010   3.624 -1.2390 -0.8582  1.1356
  198SOL     OW 2747   1.659   5.117   2.351  0.0499 -0.0127 -0.3140
  198SOL    HW1 2748   1.617   5.129   2.266 -1.1327 -0.4470  0.1886
  198SOL    HW2 2749   1.601   5.162   2.413  0.1076 -0.9544  0.4511
  199SOL     OW 2750   2.501   0.411   2.739  0.3058 -0.0866 -0.2062
  199SOL    HW1 2751   2.534   0.459   2.662  1.8481 -2.3849 -1.0733
  199SOL    HW2 2752   2.411   0.388   2.716  0.8749 -1.1050 -1.5578
  200SOL     OW 2753   4.153   9.227   3.144 -0.4562 -0.3718  0.2791
  200SOL    HW1 2754   4.118   9.276   3.070 -1.0724  1.1212  1.5055
  200SOL    HW2 2755   4.214   9.164   3.105 -0.3378  0.7547 -1.4399
  201SOL     OW 2756   0.643   3.577   4.889 -0.7410 -0.4476 -0.2751
  201SOL    HW1 2757   0.691   3.578   4.807 -2.3075  0.2636 -1.2303
  201SOL    HW2 2758   0.692   3.517   4.945  1.4729  0.5654 -1.0114
  202SOL     OW 2759   3.389   2.366   6.166  1.0211 -0.0383 -0.4953
  202SOL    HW1 2760   3.335   2.323   6.099  0.1402 -1.3745  0.9948
  202SOL    HW2 2761   3.336   2.441   6.194  1.1183  0.1697 -0.8637
  203SOL     OW 2762   5.453   0.887   9.119 -0.1334 -0.4430  0.3343
  203SOL    HW1 2763   5.514   0.914   9.051 -0.6602 -2.9891 -1.2908
  203SOL    HW2 2764   5.498   0.815   9.164 -1.2316 -1.2247  0.2225
  204SOL     OW 2765   3.111   1.657   5.491  0.0064  0.0147  0.3273
  204SOL    HW1 2766   3.118   1.632   5.584  0.2836 -0.2014  0.2505
  204SOL    HW2 2767   3.080   1.747   5.493  1.6689  0.6106  0.6722
  205SOL     OW 2768   8.740   7.966   7.810  0.6169 -0.2975  0.0179
  205SOL    HW1 2769   8.758   8.007   7.895 -2.7890 -0.3564  0.9435
  205SOL    HW2 2770   8.694   7.885   7.832  0.8186 -0.9875 -1.9074
  206SOL     OW 2771   0.654   5.576   2.949  0.4790  0.2315  0.1700
  206SOL    HW1 2772   0.596   5.607   3.019 -0.7444 -1.3993 -0.0796
  206SOL    HW2 2773   0.743   5.590   2.984 -0.0794  1.0232  1.3378
  207SOL     OW 2774   4.957   0.563   8.595  0.0855  0.0679  0.7636
  207SOL    HW1 2775   5.024   0.631   8.602  0.7609 -0.6472  1.3487
  207SOL    HW2 2776   4.977   0.502   8.666 -0.2655 -0.9594  0.0011
  208SOL     OW 2777   0.451   3.892   7.883 -0.0189 -0.5202 -0.4647
  208SOL    HW1 2778   0.515   3.907   7.814 -0.6827 -1.6609 -1.3665
  208SOL    HW2 2779   0.502   3.865   7.958  0.9155  2.6676  0.1863
  209SOL     OW 2780   5.346   8.216   3.802 -0.3899  0.1237  0.6109
  209SOL    HW1 2781   5.432   8.183   3.826 -0.5896 -0.0887  1.0406
  209SOL    HW2 2782   5.284   8.159   3.848 -0.7634  0.1175  0.1024
  210SOL     OW 2783   4.766   6.636   0.493 -0.0506 -0.0793 -0.1811
  210SOL    HW1 2784   4.770   6.689   0.414  0.2622  0.2669  0.0626
  210SOL    HW2 2785   4.695   6.574   0.477  0.7226 -0.7320 -1.1755
  211SOL     OW 2786   2.646   5.825   6.763  0.2666 -0.1875 -0.1717
  211SOL    HW1 2787   2.615   5.895   6.821 -1.0581 -0.3308 -0.6499
  211SOL    HW2 2788   2.672   5.754   6.821  2.0855  0.8514  0.3447
  212SOL     OW 2789   7.195   9.350   5.876 -0.6283  0.1345 -0.6337
  212SOL    HW1 2790   7.259   9.389   5.816  0.1782  0.1595  0.2208
  212SOL    HW2 2791   7.223   9.377   5.963 -1.0945 -0.8691 -0.1457
  213SOL     OW 2792   6.684   6.164   4.558  0.0194  0.2019  0.0145
  213SOL    HW1 2793   6.614   6.228   4.545  0.1955  0.2571 -0.7369
  213SOL    HW2 2794   6.712   6.142   4.469  0.8768  0.0960  0.3068
  214SOL     OW 2795   8.393   2.836   2.513 -0.1960 -0.3119 -0.4467
  214SOL    HW1 2796   8.421   2.787   2.591  2.1487  0.1185 -0.9257
  214SOL    HW2 2797   8.307   2.869   2.535 -0.3062 -1.5924  1.3113
  215SOL     OW 2798   2.477   3.274   2.999 -0.0870 -0.2507  0.1558
  215SOL    HW1 2799   2.501   3.303   2.911 -1.5323  1.1334  0.1668
  215SOL    HW2 2800   2.529   3.329   3.058 -0.3898  0.0346  0.1610
  216SOL     OW 2801   8.479   5.978   1.461 -0.1451  0.2923 -0.2362
  216SOL    HW1 2802   8.497   6.051   1.521  0.8016  0.3744 -0.6065
  216SOL    HW2 2803   8.520   6.004   1.379 -0.1310 -0.4945 -0.4855
  217SOL     OW 2804   8.195   5.494   4.478  0.3239  0.0565 -0.4745
  217SOL    HW1 2805   8.258   5.455   4.418  0.4996  1.6396 -1.3838
  217SOL    HW2 2806   8.116   5.508   4.425  0.4000  1.2561 -0.3126
  218SOL     OW 2807   6.820   6.250   7.235  0.0976 -0.6188 -0.5315
  218SOL    HW1 2808   6.747   6.224   7.291 -3.5106  0.4718 -4.2478
  218SOL    HW2 2809   6.805   6.343   7.219  1.8790 -0.5472 -2.0748
  219SOL     OW 2810   5.596   6.372   2.791  0.5943  0.0420  0.0387
  219SOL    HW1 2811   5.574   6.462   2.765 -0.1257 -0.7763 -2.5061
  219SOL    HW2 2812   5.627   6.331   2.710  0.4001 -2.1534  1.0149
  220SOL     OW 2813   3.233   3.060   0.699 -0.1064  0.3402  0.5505
  220SOL    HW1 2814   3.224   2.982   0.644 -2.0307  3.1222 -3.6112
  220SOL    HW2 2815   3.323   3.057   0.730  0.3509 -2.7354 -0.6920
  221SOL     OW 2816   5.511   4.774   1.251 -0.3633 -0.8989 -0.0564
  221SOL    HW1 2817   5.604   4.751   1.243 -0.7533 -1.9043 -3.2846
  221SOL    HW2 2818   5.465   4.696   1.220 -2.1011  0.7152 -1.8422
  222SOL     OW 2819   3.468   8.198   7.224  0.2849  0.9137 -0.7926
  222SOL    HW1 2820   3.413   8.208   7.146 -0.4975  1.8062 -0.1458
  222SOL    HW2 2821   3.538   8.263   7.213 -0.4172  1.7760 -0.2700
  223SOL     OW 2822   4.980   6.878   7.520 -0.1566 -0.1270 -0.9798
  223SOL    HW1 2823   4.980   6.973   7.528 -0.9735 -0.2144  0.1616
  223SOL    HW2 2824   4.913   6.860   7.454  0.3641  0.0969 -1.5894
  224SOL     OW 2825   1.610   0.002   9.513  0.1107 -0.7658 -0.1810
  224SOL    HW1 2826   1.606  -0.093   9.511  0.0529 -0.7664 -0.0414
  224SOL    HW2 2827   1.671   0.025   9.443 -2.1024 -0.7399 -2.2243
  225SOL     OW 2828   5.432   2.589   8.119 -0.2184  0.4379  0.3933
  225SOL    HW1 2829   5.343   2.595   8.154 -0.6069 -1.5705 -0.0909
  225SOL    HW2 2830   5.489   2.589   8.196 -0.7176  0.5621  0.7680
  226SOL     OW 2831   1.118   7.941   2.340  0.0501  0.0683  0.3190
  226SOL    HW1 2832   1.036   7.966   2.297 -0.2710  0.2281  1.0130
  226SOL    HW2 2833   1.172   8.020   2.334  0.0794  0.0315  0.0533
  227SOL     OW 2834   1.354   1.234   2.770 -1.0714  0.0669 -0.3171
  227SOL    HW1 2835   1.311   1.245   2.855 -0.9445 -0.1357 -0.2283
  227SOL    HW2 2836   1.442   1.204   2.790 -1.2978 -0.7926 -0.5442
  228SOL     OW 2837   3.276   7.663   3.892  0.4506 -0.0137 -0.5564
  228SOL    HW1 2838   3.328   7.625   3.963  1.7977  0.9432 -0.9860
  228SOL    HW2 2839   3.186   7.660   3.924  1.0079  0.3001  1.1591
  229SOL     OW 2840   0.314   0.590   1.200  0.3632 -0.2748  0.2114
  229SOL    HW1 2841   0.233   0.559   1.158  0.0768  1.1897 -0.3630
  229SOL    HW2 2842   0.285   0.659   1.260  1.1285 -0.1675  0.4610
  230SOL     OW 2843   9.029   9.097   3.925  0.4225 -0.2397  0.0011
  230SOL    HW1 2844   8.956   9.035   3.928  0.7476 -0.5924  1.1053
  230SOL    HW2 2845   9.101   9.051   3.970  0.6606  0.9363  0.8579
  231SOL     OW 2846   5.398   7.767   3.531 -0.4942  0.0252 -0.7603
  231SOL    HW1 2847   5.481   7.793   3.569 -1.8925  0.2629  2.5020
  231SOL    HW2 2848   5.358   7.848   3.500 -1.1941  0.5866  1.4768
  232SOL     OW 2849   1.030   5.967   0.574  0.3764 -0.7654  0.1484
  232SOL    HW1 2850   1.104   5.924   0.531  0.3126 -0.6283 -0.0946
  232SOL    HW2 2851   1.039   6.059   0.551 -0.3377 -0.8687 -0.5463
  233SOL     OW 2852   9.408   9.508   1.764  0.5974  0.0786 -0.1314
  233SOL    HW1 2853   9.410   9.485   1.671 -0.6980  0.7020 -0.3337
  233SOL    HW2 2854   9.320   9.542   1.779  0.9040  0.3413  1.2484
  234SOL     OW 2855   7.896   0.107   5.339  0.4746 -0.4098 -0.1082
  234SOL    HW1 2856   7.819   0.087   5.286 -0.5656  0.8791  0.8247
  234SOL    HW2 2857   7.940   0.023   5.351 -0.2248 -1.0064 -1.5130
  235SOL     OW 2858   6.248   8.829   3.890 -0.3197  0.2647  0.2114
  235SOL    HW1 2859   6.221   8.827   3.982 -0.4416  0.0999  0.1734
  235SOL    HW2 2860   6.206   8.752   3.851  1.2435 -0.7661  0.4398
  236SOL     OW 2861   5.032   4.746   0.144 -0.4483 -0.3968 -0.1037
  236SOL    HW1 2862   5.040   4.695   0.063  3.1643  0.5099 -0.5021
  236SOL    HW2 2863   5.046   4.682   0.214 -2.1890 -0.9410 -0.2112
  237SOL     OW 2864   3.101   1.736   5.073  0.0392 -0.4279  0.4810
  237SOL    HW1 2865   3.187   1.708   5.041  0.5092  1.1108  0.3146
  237SOL    HW2 2866   3.120   1.810   5.130 -1.2382  0.5495 -0.3243
  238SOL     OW 2867   0.506   5.872   1.313  0.4958  0.3934  0.0379
  238SOL    HW1 2868   0.580   5.933   1.315 -0.5198  1.6472  1.4765
  238SOL    HW2 2869   0.451   5.903   1.241  1.6962 -1.0593 -1.6189
  239SOL     OW 2870   3.345   6.391   3.762  0.1666 -0.1326  0.0046
  239SOL    HW1 2871   3.400   6.369   3.837  0.9441 -1.3743 -0.8848
  239SOL    HW2 2872   3.258   6.357   3.784  0.1322  0.3913  0.7279
  240SOL     OW 2873   8.314   4.186   4.294 -0.0081  0.4126  0.1040
  240SOL    HW1 2874   8.409   4.179   4.281 -0.2171 -0.0399 -1.4264
  240SOL    HW2 2875   8.280   4.101   4.268 -1.0851  1.4713 -2.2576
  241SOL     OW 2876   0.085   3.516   1.268  0.2045 -0.0211  1.2045
  241SOL    HW1 2877   0.003   3.552   1.235  0.9321  0.4047 -0.2582
  241SOL    HW2 2878   0.074   3.514   1.363 -0.8904  1.5665  1.1602
  242SOL     OW 2879   3.767   5.230   2.902  0.0207  0.0631 -0.6850
  242SOL    HW1 2880   3.731   5.242   2.814 -0.9018  0.6747 -0.2368
  242SOL    HW2 2881   3.730   5.302   2.953 -0.1148 -0.7567  0.4096
  243SOL     OW 2882   5.057   2.527   3.271  0.2915  0.9582 -0.4503
  243SOL    HW1 2883   5.045   2.621   3.262  0.1401  0.9270 -0.5755
  243SOL    HW2 2884   4.975   2.489   3.241  0.5093  0.7713 -0.8248
  244SOL     OW 2885   6.146   7.982   7.218 -0.1781  0.0802  0.1837
  244SOL    HW1 2886   6.145   8.075   7.238  2.2765  0.1391  0.3366
  244SOL    HW2 2887   6.147   7.978   7.122 -0.2161  0.2256  0.1779
  245SOL     OW 2888   3.243   8.414   2.026 -0.9140  0.6557 -0.5331
  245SOL    HW1 2889   3.281   8.501   2.035  1.1095 -0.0723 -1.3182
  245SOL    HW2 2890   3.173   8.411   2.091  1.9381  1.3318  2.9530
  246SOL     OW 2891   6.201   1.963   4.809 -0.2536  0.4531  0.3250
  246SOL    HW1 2892   6.274   1.947   4.869 -0.2970 -0.0622  0.2537
  246SOL    HW2 2893   6.140   1.891   4.827 -0.4340  0.5030 -0.0820
  247SOL     OW 2894   0.735   1.681   9.167  0.4357  0.1832 -0.0871
  247SOL    HW1 2895   0.791   1.605   9.178 -0.6552 -0.5026  0.8944
  247SOL    HW2 2896   0.696   1.669   9.080 -2.1244 -2.0852  1.2306
  248SOL     OW 2897   0.300   6.062   8.305  0.4958 -0.4689 -0.1078
  248SOL    HW1 2898   0.290   6.045   8.211  2.6089  0.2484 -0.5257
  248SOL    HW2 2899   0.259   6.147   8.319 -2.1263 -1.6992  0.1940
  249SOL     OW 2900   1.260   2.270   1.922 -0.9861  0.5440 -0.2112
  249SOL    HW1 2901   1.281   2.261   2.015  0.8693  1.4077 -0.5032
  249SOL    HW2 2902   1.280   2.184   1.885 -0.9290  0.4441  0.0473
  250SOL     OW 2903   5.915   4.386   2.600  0.1151  0.2733 -0.5518
  250SOL    HW1 2904   5.832   4.380   2.552 -0.4563 -2.3139  0.5707
  250SOL    HW2 2905   5.978   4.342   2.544 -0.1879 -1.2574  0.2545
  251SOL     OW 2906   9.602   6.972   4.928  0.1938 -0.0649 -0.2734
  251SOL    HW1 2907   9.593   6.888   4.883 -1.4512 -0.1290  0.1128
  251SOL    HW2 2908   9.607   6.950   5.021  1.0533  0.2139 -0.2414
  252SOL     OW 2909   5.775   4.209   5.378  0.0336  0.1204 -0.2177
  252SOL    HW1 2910   5.758   4.304   5.377 -0.8935 -0.0261  0.0888
  252SOL    HW2 2911   5.869   4.201   5.367  0.1442  1.0920 -0.0719
  253SOL     OW 2912   3.315   5.281   3.748 -0.6006 -0.4873  0.7498
  253SOL    HW1 2913   3.256   5.216   3.709 -0.1872 -0.5599  0.2296
  253SOL    HW2 2914   3.365   5.315   3.674 -0.8915  0.5128  0.9943
  254SOL     OW 2915   0.771   6.869   2.299  0.2047 -0.4379  0.1478
  254SOL    HW1 2916   0.690   6.822   2.275 -0.2608 -0.2445  1.2830
  254SOL    HW2 2917   0.760   6.890   2.392  1.6843 -0.6261  0.3872
  255SOL     OW 2918   3.343   4.265   8.668  0.1638 -0.2285 -0.6132
  255SOL    HW1 2919   3.363   4.358   8.674  0.1916 -0.2386 -0.5482
  255SOL    HW2 2920   3.428   4.221   8.673  0.0177 -0.3831  1.8063
  256SOL     OW 2921   2.978   1.818   8.991  0.3542 -0.2781  0.6416
  256SOL    HW1 2922   3.010   1.898   9.032  0.3731 -0.1235  0.3353
  256SOL    HW2 2923   2.915   1.782   9.053  0.4230 -0.0787  0.8271
  257SOL     OW 2924   1.184   4.454   1.307  0.1614 -0.4151 -0.4088
  257SOL    HW1 2925   1.277   4.451   1.285  0.1761  1.2647 -0.6694
  257SOL    HW2 2926   1.182   4.486   1.397 -0.1400 -1.7057  0.0723
  258SOL     OW 2927   7.768   7.099   1.276 -0.5176 -0.4038  0.0919
  258SOL    HW1 2928   7.839   7.109   1.212  1.2793 -3.0596  1.5004
  258SOL    HW2 2929   7.771   7.180   1.326  1.3281 -0.2855 -0.1195
  259SOL     OW 2930   4.018   0.093   6.497  0.1918  0.3558  0.2364
  259SOL    HW1 2931   4.071   0.110   6.575  0.5836 -0.9125  0.2756
  259SOL    HW2 2932   3.947   0.037   6.529  1.3242 -1.6624 -0.5794
  260SOL     OW 2933   2.455   8.334   7.077  0.1516  0.4101  0.2663
  260SOL    HW1 2934   2.448   8.365   6.987  0.9143 -1.1341 -0.3626
  260SOL    HW2 2935   2.368   8.301   7.099  0.2823 -0.3934 -0.3857
  261SOL     OW 2936   3.023   7.607   4.002 -0.1498 -0.2050  0.0095
  261SOL    HW1 2937   3.049   7.515   4.004 -0.7273 -0.5119 -2.9334
  261SOL    HW2 2938   2.969   7.615   3.924 -0.1054  2.6540  0.1821
  262SOL     OW 2939   1.770   7.629   1.239 -0.0320 -0.5172 -0.3238
  262SOL    HW1 2940   1.733   7.585   1.315 -2.3096 -0.5237 -1.3414
  262SOL    HW2 2941   1.853   7.584   1.224  0.3941 -0.6239  2.0016
  263SOL     OW 2942   8.860   9.536   5.261 -0.5452 -0.2485  0.1437
  263SOL    HW1 2943   8.945   9.506   5.293 -0.3926  0.6977  0.6578
  263SOL    HW2 2944   8.800   9.517   5.333 -0.2857  1.4575  0.8430
  264SOL     OW 2945   3.637   6.788   1.542 -0.2068  0.1442 -0.6784
  264SOL    HW1 2946   3.613   6.880   1.540 -0.2050  0.1401 -0.9751
  264SOL    HW2 2947   3.728   6.787   1.569 -0.9302  0.0751  2.0030
  265SOL     OW 2948   3.978   1.157   6.724  0.3856 -0.0494 -0.0245
  265SOL    HW1 2949   3.981   1.099   6.648  0.7380 -0.6353  0.4262
  265SOL    HW2 2950   4.007   1.103   6.797 -1.2321  0.1096  0.7921
  266SOL     OW 2951   9.192   1.067   7.450 -0.4336 -0.1753  0.0440
  266SOL    HW1 2952   9.287   1.076   7.443 -0.4034  1.4766  1.6853
  266SOL    HW2 2953   9.158   1.148   7.411 -1.2418 -1.1678 -1.3741
  267SOL     OW 2954   6.569   4.044   8.208 -0.0365 -0.0569 -0.0711
  267SOL    HW1 2955   6.636   4.102   8.246  1.6737 -0.4160 -2.3131
  267SOL    HW2 2956   6.619   3.978   8.160 -1.9800  0.3441 -2.8632
  268SOL     OW 2957   5.814   3.014   1.289  0.3333  0.2088 -0.3304
  268SOL    HW1 2958   5.896   2.984   1.248 -0.0377 -2.0732  0.4799
  268SOL    HW2 2959   5.770   2.934   1.315 -1.8680  1.4338 -0.1126
  269SOL     OW 2960   2.198   4.659   3.650  0.5441 -0.2146  0.1297
  269SOL    HW1 2961   2.184   4.612   3.732 -0.4909  0.3562  0.2829
  269SOL    HW2 2962   2.207   4.751   3.675  1.0430 -0.1337 -0.3184
  270SOL     OW 2963   1.930   1.063   9.038 -0.1397  0.2537  0.2402
  270SOL    HW1 2964   1.869   1.124   8.996  1.0006  1.2292 -0.0312
  270SOL    HW2 2965   1.894   1.051   9.126 -1.3498 -0.0930 -0.2825
  271SOL     OW 2966   5.835   4.931   4.959 -0.2494 -0.3173 -0.2115
  271SOL    HW1 2967   5.839   4.873   4.883  2.3122 -0.2966 -0.1801
  271SOL    HW2 2968   5.742   4.951   4.968 -0.7186 -0.6286 -3.0914
  272SOL     OW 2969   8.423   5.357   5.017 -0.1790 -0.1309 -0.1171
  272SOL    HW1 2970   8.351   5.316   5.065 -1.7786  0.7767 -1.6243
  272SOL    HW2 2971   8.389   5.443   4.992  2.0840  1.0465  0.5892
  273SOL     OW 2972   1.369   7.451   0.235  0.4797 -0.3645 -0.1077
  273SOL    HW1 2973   1.382   7.464   0.329 -2.0281  0.4064  0.2012
  273SOL    HW2 2974   1.340   7.360   0.227  1.0926 -0.5568 -0.2058
  274SOL     OW 2975   5.160   1.812   6.950  0.2765  0.3902 -0.1312
  274SOL    HW1 2976   5.194   1.869   7.019 -0.6551 -1.7762  2.2639
  274SOL    HW2 2977   5.072   1.788   6.979  0.8136 -2.6944 -0.6247
  275SOL     OW 2978   7.843   0.837   7.664 -0.1150 -0.2891 -0.3914
  275SOL    HW1 2979   7.818   0.813   7.753  0.2629  0.0554 -0.1892
  275SOL    HW2 2980   7.764   0.876   7.627 -0.3591 -0.7007 -0.3048
  276SOL     OW 2981   0.382   9.336   0.847 -0.4581 -0.3462  0.4676
  276SOL    HW1 2982   0.426   9.419   0.865  2.7043 -1.7194 -0.2718
  276SOL    HW2 2983   0.392   9.324   0.753 -1.5393 -1.2364  0.4510
  277SOL     OW 2984   4.339   9.138   8.661 -0.1314 -0.0652 -0.1411
  277SOL    HW1 2985   4.375   9.088   8.587 -1.5618  0.0695 -0.9619
  277SOL    HW2 2986   4.399   9.120   8.733  0.2515 -1.7356 -0.8261
  278SOL     OW 2987   9.020   7.077   4.996  0.1732 -0.0201 -0.1743
  278SOL    HW1 2988   9.114   7.085   5.011 -0.1092  1.3548  1.0714
  278SOL    HW2 2989   8.980   7.095   5.081 -1.3471  3.1796 -1.4134
  279SOL     OW 2990   3.938   8.513   6.560  0.1540 -0.2826 -0.2144
  279SOL    HW1 2991   3.940   8.563   6.479  0.2819  3.8684  2.0735
  279SOL    HW2 2992   4.028   8.516   6.593 -0.5896  1.5629  1.8574
  280SOL     OW 2993   3.539   0.137   2.852  0.2606  0.3967  0.0813
  280SOL    HW1 2994   3.581   0.220   2.876 -0.6898  1.2762 -1.1646
  280SOL    HW2 2995   3.465   0.162   2.797 -1.4845 -1.1511  1.5916
  281SOL     OW 2996   6.527   6.513   9.482  0.0460  0.1195 -0.8610
  281SOL    HW1 2997   6.488   6.592   9.444 -1.6489 -1.1162 -1.7994
  281SOL    HW2 2998   6.620   6.521   9.462 -0.2992  1.2033 -2.1970
  282SOL     OW 2999   7.844   5.055   9.633 -0.5958  0.0681  0.7426
  282SOL    HW1 3000   7.794   5.074   9.553 -0.3182 -2.0396  0.0054
  282SOL    HW2 3001   7.798   5.102   9.702 -1.5230  1.0147 -0.4682
  283SOL     OW 3002   6.031   2.312   3.623 -0.3354 -0.0823 -0.5315
  283SOL    HW1 3003   5.986   2.240   3.579 -0.8533 -0.1432  0.0878
  283SOL    HW2 3004   6.112   2.274   3.656 -0.7856 -0.4802  0.1259
  284SOL     OW 3005   2.186   5.455   0.791  0.4490  0.2013  0.8551
  284SOL    HW1 3006   2.198   5.545   0.822 -3.8421  0.8106  1.3557
  284SOL    HW2 3007   2.225   5.401   0.859  1.4791  1.6564  1.4744
  285SOL     OW 3008   4.116   9.319   8.870  0.4772  0.5253  0.2916
  285SOL    HW1 3009   4.108   9.404   8.826  0.7716  0.3806 -0.0503
  285SOL    HW2 3010   4.211   9.304   8.874  0.4268  0.2269  0.3701
  286SOL     OW 3011   0.751   2.401   3.049 -0.0608  0.2127  0.2977
  286SOL    HW1 3012   0.703   2.318   3.040 -2.9917  1.8259 -0.2979
  286SOL    HW2 3013   0.700   2.451   3.112  1.5202  1.6830  0.4787
  287SOL     OW 3014   8.768   8.267   0.731 -0.4067  0.1915 -0.2153
  287SOL    HW1 3015   8.797   8.322   0.804  0.2163  0.2211 -0.4804
  287SOL    HW2 3016   8.761   8.179   0.768 -0.0521  0.1988 -0.1268
  288SOL     OW 3017   6.000   2.370   6.346  0.0746  0.2576  0.3741
  288SOL    HW1 3018   5.954   2.419   6.278 -0.3072  0.0038  0.4490
  288SOL    HW2 3019   6.026   2.437   6.410 -1.0578  0.2857  0.8236
  289SOL     OW 3020   8.541   3.345   4.524 -0.0359  0.3775  0.0230
  289SOL    HW1 3021   8.494   3.419   4.562 -1.9723 -0.5599 -0.4167
  289SOL    HW2 3022   8.475   3.299   4.473  1.4234 -0.9605 -0.7427
  290SOL     OW 3023   0.674   1.328   8.626  0.0778  0.0814 -0.1768
  290SOL    HW1 3024   0.589   1.284   8.617  1.3723 -2.4798 -1.0012
  290SOL    HW2 3025   0.679   1.351   8.719 -0.3845 -2.4338  0.5606
  291SOL     OW 3026   4.854   0.690   7.595 -0.7013  0.0317 -0.6007
  291SOL    HW1 3027   4.839   0.628   7.667 -0.3037  0.5589 -0.0576
  291SOL    HW2 3028   4.939   0.729   7.615  0.1183 -0.8791 -2.1386
  292SOL     OW 3029   4.646   0.021   9.235 -0.6016 -0.1888 -0.0185
  292SOL    HW1 3030   4.551   0.028   9.224 -0.8703 -1.9404  0.8322
  292SOL    HW2 3031   4.681   0.036   9.147 -1.5099  2.1409 -0.0408
  293SOL     OW 3032   2.458   4.640   6.910 -0.4738  0.5103  0.5858
  293SOL    HW1 3033   2.500   4.601   6.833 -0.0584 -0.5803  1.3360
  293SOL    HW2 3034   2.368   4.609   6.907 -0.6951  1.1797  0.0817
  294SOL     OW 3035   4.357   3.380   7.765 -0.0901 -0.5203  0.2871
  294SOL    HW1 3036   4.269   3.414   7.746 -0.5245 -1.6036  0.3139
  294SOL    HW2 3037   4.398   3.450   7.816 -0.5127  0.4892 -0.7171
  295SOL     OW 3038   6.543   6.084   9.329  0.3452 -0.2375 -0.3373
  295SOL    HW1 3039   6.497   6.155   9.283 -0.9984 -0.5846  0.4443
  295SOL    HW2 3040   6.586   6.035   9.259  0.4036  0.7229 -0.9877
  296SOL     OW 3041   3.740   6.302   9.234  0.1627  0.0913  0.0594
  296SOL    HW1 3042   3.683   6.303   9.157  0.7547  0.4827 -0.3868
  296SOL    HW2 3043   3.765   6.210   9.245 -1.0280 -0.1807  0.6290
  297SOL     OW 3044   7.698   0.392   6.405 -0.0554  0.2385 -0.0150
  297SOL    HW1 3045   7.621   0.390   6.461 -1.2292  2.8403 -1.3414
  297SOL    HW2 3046   7.766   0.346   6.455 -1.4373  1.0647  2.8243
  298SOL     OW 3047   2.600   3.843   3.826  0.1206  0.8630 -0.2963
  298SOL    HW1 3048   2.673   3.794   3.788 -0.4798 -0.2587 -0.0551
  298SOL    HW2 3049   2.526   3.782   3.822 -0.6402  1.7456  0.0598
  299SOL     OW 3050   1.539   5.098   2.993 -0.0945  0.1456 -0.4643
  299SOL    HW1 3051   1.460   5.132   2.952  0.8687  1.0599 -1.6290
  299SOL    HW2 3052   1.595   5.071   2.920  0.0762 -1.9381  0.3782
  300SOL     OW 3053   6.050   0.383   1.700 -0.1275 -0.2842 -0.0977
  300SOL    HW1 3054   5.957   0.359   1.697  0.0587 -1.2836  1.3505
  300SOL    HW2 3055   6.060   0.433   1.781  0.3581  1.0588 -0.9431
  301SOL     OW 3056   5.797   1.203   2.731 -0.1639 -0.3390  0.0333
  301SOL    HW1 3057   5.841   1.153   2.800 -0.7051 -0.3648  0.3639
  301SOL    HW2 3058   5.787   1.142   2.659  0.6625 -0.2343 -0.1856
  302SOL     OW 3059   2.039   8.379   1.012  0.1406  0.3255 -0.2429
  302SOL    HW1 3060   2.084   8.458   1.042  0.5714  0.2857 -0.7810
  302SOL    HW2 3061   2.098   8.307   1.036 -0.6701  0.0720  1.0939
  303SOL     OW 3062   0.292   0.419   5.953 -0.7820  0.0323  0.0309
  303SOL    HW1 3063   0.353   0.372   5.897  0.0062  0.1442  0.7791
  303SOL    HW2 3064   0.206   0.382   5.932 -0.5365  0.2086 -1.3814
  304SOL     OW 3065   0.774   7.991   5.520 -0.2259 -1.0015  0.3832
  304SOL    HW1 3066   0.793   8.048   5.595 -2.0388 -1.5943  1.3604
  304SOL    HW2 3067   0.682   7.968   5.530 -0.2385 -1.9680 -1.4684
  305SOL     OW 3068   3.600   8.356   1.422  0.0355 -0.4101  0.4045
  305SOL    HW1 3069   3.510   8.323   1.423 -0.2699  0.3749  1.5061
  305SOL    HW2 3070   3.635   8.329   1.337 -1.4463 -0.2137 -0.3065
  306SOL     OW 3071   9.530   2.028   3.285  0.2458  0.0185  0.2244
  306SOL    HW1 3072   9.552   2.000   3.196  1.9564 -2.2823  1.2533
  306SOL    HW2 3073   9.449   1.981   3.305  2.0297 -2.9819  1.2055
  307SOL     OW 3074   7.997   0.963   9.578  0.1710  0.1783 -0.1456
  307SOL    HW1 3075   7.994   1.007   9.663 -1.7191 -0.4196  0.1542
  307SOL    HW2 3076   7.992   0.870   9.599  0.0265  0.0093 -0.8886
  308SOL     OW 3077   0.130   7.830   4.596 -0.4344  0.0300 -0.0643
  308SOL    HW1 3078   0.053   7.885   4.605  0.7972  2.3443 -2.2738
  308SOL    HW2 3079   0.176   7.839   4.680 -0.9875  1.2186  0.1321
  309SOL     OW 3080   5.717   7.699   3.482 -0.5702  0.4300  0.4163
  309SOL    HW1 3081   5.729   7.787   3.518 -0.1951 -0.1237  1.7138
  309SOL    HW2 3082   5.805   7.662   3.478 -0.8773 -0.5302  1.6768
  310SOL     OW 3083   3.342   7.189   1.133 -0.3623  0.0532  0.2037
  310SOL    HW1 3084   3.314   7.153   1.217 -1.0100 -1.1591 -0.5136
  310SOL    HW2 3085   3.315   7.281   1.137  1.4703  0.6071  2.1249
  311SOL     OW 3086   7.415   7.062   3.922  0.4003  0.1807  0.0987
  311SOL    HW1 3087   7.402   7.085   4.014 -2.0551 -0.0928 -0.1353
  311SOL    HW2 3088   7.377   6.975   3.913 -0.8757  0.8544 -1.4824
  312SOL     OW 3089   5.499   4.754   1.779  0.1251  0.5897  0.1958
  312SOL    HW1 3090   5.524   4.661   1.786 -0.6409  0.3655  0.0772
  312SOL    HW2 3091   5.488   4.769   1.685 -2.8317 -0.0846  0.3278
  313SOL     OW 3092   4.441   1.085   0.490  0.3142 -0.3571  0.0720
  313SOL    HW1 3093   4.492   1.131   0.424  0.4932  0.2358  0.6072
  313SOL    HW2 3094   4.505   1.057   0.556 -0.0990  1.1448  1.1827
  314SOL     OW 3095   5.914   9.601   0.167 -1.0368  0.0258  0.5130
  314SOL    HW1 3096   5.951   9.683   0.134 -1.4575 -0.2337 -0.6733
  314SOL    HW2 3097   5.819   9.615   0.162 -1.1255 -0.7963 -0.4673
  315SOL     OW 3098   3.938   3.474   1.176  0.1384 -0.2703  0.7167
  315SOL    HW1 3099   3.931   3.445   1.086  1.8667  1.1116  0.0730
  315SOL    HW2 3100   3.849   3.498   1.201 -0.2052  0.3040 -0.9815
  316SOL     OW 3101   5.174   7.498   0.908 -0.7846 -0.0130 -0.8492
  316SOL    HW1 3102   5.212   7.472   0.991 -1.6318 -1.2421 -0.8147
  316SOL    HW2 3103   5.212   7.438   0.844 -0.6547  0.4764 -1.2357
  317SOL     OW 3104   0.981   5.749   3.596 -0.3941  0.0792 -0.1660
  317SOL    HW1 3105   0.896   5.737   3.553 -0.6441  0.3543  0.2479
  317SOL    HW2 3106   0.962   5.741   3.690 -0.1449  1.1837 -0.0128
  318SOL     OW 3107   6.469   7.425   4.949  0.1965  0.2077  0.1696
  318SOL    HW1 3108   6.386   7.436   4.996 -1.6104  2.4106 -3.0914
  318SOL    HW2 3109   6.458   7.345   4.899 -0.2206  0.7304 -0.6024
  319SOL     OW 3110   0.724   4.818   0.537  0.1258  0.8082 -0.3181
  319SOL    HW1 3111   0.781   4.860   0.601 -0.7053 -0.9780  1.7045
  319SOL    HW2 3112   0.732   4.873   0.459  1.4617  2.8897  1.1640
  320SOL     OW 3113   5.657   2.321   3.131  0.2933 -0.5297 -0.3232
  320SOL    HW1 3114   5.595   2.371   3.079  2.0898  2.0348 -0.2114
  320SOL    HW2 3115   5.728   2.300   3.070  0.9234 -0.3495  0.3373
  321SOL     OW 3116   1.413   2.393   1.690  0.2794 -0.0604  0.6108
  321SOL    HW1 3117   1.373   2.405   1.604  0.9588 -0.1779  0.2750
  321SOL    HW2 3118   1.354   2.334   1.736  0.0125 -0.1481  0.1564
  322SOL     OW 3119   5.765   6.003   2.970  0.5211 -0.2631  0.0610
  322SOL    HW1 3120   5.752   6.083   3.021 -3.7017  0.5672 -1.9185
  322SOL    HW2 3121   5.839   6.023   2.913  1.4894  1.0008  1.6695
  323SOL     OW 3122   7.721   1.639   0.259  0.5575  0.5486  0.4481
  323SOL    HW1 3123   7.685   1.585   0.189  1.9891  1.6108 -1.1652
  323SOL    HW2 3124   7.647   1.652   0.319 -0.5482 -0.8405 -0.5404
  324SOL     OW 3125   4.661   6.937   0.042  0.0491  0.0871 -0.2196
  324SOL    HW1 3126   4.636   7.027   0.062 -0.4330 -0.1536  0.2912
  324SOL    HW2 3127   4.696   6.941  -0.047  3.8868  1.5071  1.1383
  325SOL     OW 3128   8.123   0.330   6.336  0.2933  0.4015  0.0780
  325SOL    HW1 3129   8.091   0.372   6.257  0.5551  0.5112  0.0285
  325SOL    HW2 3130   8.170   0.399   6.383  2.7654 -0.3228 -1.1224
  326SOL     OW 3131   7.822   5.335   9.116  0.1905 -0.0557  0.1812
  326SOL    HW1 3132   7.872   5.311   9.038  0.1873  1.5720 -0.3782
  326SOL    HW2 3133   7.777   5.255   9.142  0.3902 -0.6967 -1.3506
  327SOL     OW 3134   4.285   1.262   1.683  0.8112 -0.3609 -0.2158
  327SOL    HW1 3135   4.223   1.334   1.693  0.8777 -0.5117  1.9469
  327SOL    HW2 3136   4.358   1.298   1.633  1.4514  1.5448  1.9189
  328SOL     OW 3137   4.145   7.886   6.986 -0.3589 -0.0119 -0.0437
  328SOL    HW1 3138   4.085   7.850   6.920  0.3703 -0.9968 -0.1952
  328SOL    HW2 3139   4.088   7.912   7.058 -1.0714  0.1087 -0.6337
  329SOL     OW 3140   4.513   0.236   6.108  0.7574  0.0289 -0.0200
  329SOL    HW1 3141   4.585   0.271   6.055 -0.0788  0.5193 -0.8578
  329SOL    HW2 3142   4.513   0.142   6.089 -0.2001  0.3387 -1.7749
  330SOL     OW 3143   8.230   8.031   3.470 -0.1209  0.1304  0.0674
  330SOL    HW1 3144   8.149   7.995   3.506 -0.1825 -1.2110 -1.2816
  330SOL    HW2 3145   8.284   7.954   3.451  1.5023  1.0020  0.9725
  331SOL     OW 3146   1.563   9.195   4.686 -0.2063 -0.0533  1.0137
  331SOL    HW1 3147   1.547   9.246   4.765 -0.0788  0.7819  0.5131
  331SOL    HW2 3148   1.544   9.255   4.614 -0.5594 -0.8704  0.4022
  332SOL     OW 3149   5.028   9.444   3.470  0.3018 -0.0699  0.3377
  332SOL    HW1 3150   5.115   9.404   3.474  0.1708 -0.6413 -1.4401
  332SOL    HW2 3151   4.968   9.371   3.484  0.0982  0.1331  0.5250
  333SOL     OW 3152   1.649   6.772   6.841 -0.2286  0.0389  0.4947
  333SOL    HW1 3153   1.683   6.795   6.755 -0.4744  0.9547  0.6264
  333SOL    HW2 3154   1.577   6.711   6.823 -0.2614  0.2049  0.0463
  334SOL     OW 3155   3.930   8.861   7.613 -0.1139  0.3473  0.3492
  334SOL    HW1 3156   3.888   8.847   7.698  1.3484 -0.8645  0.9134
  334SOL    HW2 3157   3.980   8.942   7.624 -1.3945  1.2278  0.0014
  335SOL     OW 3158   1.457   7.716   5.071 -0.0085 -0.3520  0.3054
  335SOL    HW1 3159   1.403   7.665   5.011 -1.1806  0.5879  0.5034
  335SOL    HW2 3160   1.446   7.672   5.156 -1.1465  0.2674  0.5100
  336SOL     OW 3161   7.186   4.192   3.497  0.2613 -0.3929  0.1711
  336SOL    HW1 3162   7.210   4.136   3.571  0.3361  0.1111  0.5372
  336SOL    HW2 3163   7.169   4.277   3.537 -0.3820 -0.2877 -0.3045
  337SOL     OW 3164   4.618   8.826   5.512  0.2283  0.0146 -0.0509
  337SOL    HW1 3165   4.595   8.902   5.567 -0.7756  0.0136 -0.4427
  337SOL    HW2 3166   4.670   8.863   5.441  0.1620  0.2660  0.0267
  338SOL     OW 3167   8.034   0.786   7.449 -0.0142 -0.3626  0.2962
  338SOL    HW1 3168   8.077   0.855   7.499 -1.5250  1.7823 -1.1699
  338SOL    HW2 3169   7.960   0.759   7.503  0.0181 -0.1318  0.4577
  339SOL     OW 3170   0.302   5.374   6.754 -0.9148 -0.1265 -0.1879
  339SOL    HW1 3171   0.377   5.381   6.812  0.0083 -1.3135 -1.2051
  339SOL    HW2 3172   0.296   5.460   6.712 -0.8340  0.3339  0.7210
  340SOL     OW 3173   6.139   2.173   3.992  0.0896 -0.3134  0.2732
  340SOL    HW1 3174   6.203   2.235   4.027 -0.7793  0.9515 -0.2657
  340SOL    HW2 3175   6.188   2.119   3.930  0.8470 -0.0855  0.6648
  341SOL     OW 3176   5.443   7.934   1.239 -0.4886 -0.3231  0.3753
  341SOL    HW1 3177   5.513   7.984   1.283 -0.7624 -0.1881  0.6679
  341SOL    HW2 3178   5.485   7.852   1.213  0.2183  0.4382 -0.9615
  342SOL     OW 3179   4.334   5.257   5.633  0.4763  0.3883  0.5213
  342SOL    HW1 3180   4.261   5.272   5.693 -0.2376 -1.2558  0.1011
  342SOL    HW2 3181   4.392   5.197   5.679 -0.4340 -1.4676 -0.6437
  343SOL     OW 3182   6.610   9.600   1.255 -0.3428  0.0815  0.2694
  343SOL    HW1 3183   6.572   9.515   1.234 -0.2022  0.3200 -1.0267
  343SOL    HW2 3184   6.649   9.630   1.173 -0.4820  1.4429  0.6742
  344SOL     OW 3185   7.094   1.547   0.587  0.0458 -0.3173 -0.2517
  344SOL    HW1 3186   7.136   1.593   0.514  0.2820 -0.4181 -0.1798
  344SOL    HW2 3187   7.051   1.472   0.546 -1.5264  0.7074 -0.5773
  345SOL     OW 3188   8.110   6.163   6.006 -0.5517  0.0897 -0.3198
  345SOL    HW1 3189   8.022   6.199   5.994 -1.0890 -0.8679  0.5922
  345SOL    HW2 3190   8.130   6.122   5.921 -1.2094 -0.1519 -0.3638
  346SOL     OW 3191   1.564   8.476   6.325 -0.2227  0.0045 -0.0579
  346SOL    HW1 3192   1.559   8.420   6.248 -1.7068  1.1721 -0.8658
  346SOL    HW2 3193   1.488   8.534   6.317 -1.0501 -0.5376  2.8665
  347SOL     OW 3194   3.706   3.621   2.535 -0.3698  0.3826  0.2552
  347SOL    HW1 3195   3.616   3.628   2.502  0.1266  1.4277 -0.9544
  347SOL    HW2 3196   3.760   3.652   2.462  0.9361  0.3139  1.1777
  348SOL     OW 3197   8.282   7.108   9.178  0.3041 -0.6480  0.5964
  348SOL    HW1 3198   8.188   7.127   9.177  0.7112  1.8340 -1.3802
  348SOL    HW2 3199   8.319   7.178   9.231  1.2541  0.1315 -1.0178
  349SOL     OW 3200   5.613   4.561   2.674 -0.4756  0.0225  0.1363
  349SOL    HW1 3201   5.660   4.644   2.688  0.6894 -0.7460  0.9002
  349SOL    HW2 3202   5.651   4.501   2.737  0.0003 -1.6160 -1.6226
  350SOL     OW 3203   3.253   5.387   8.419  0.1707  0.8555 -0.6398
  350SOL    HW1 3204   3.316   5.351   8.481 -0.3250  1.7269  0.3933
  350SOL    HW2 3205   3.285   5.358   8.333  1.2485  0.2067 -0.0374
  351SOL     OW 3206   3.762   5.807   8.400  0.5804  0.0805 -0.2973
  351SOL    HW1 3207   3.779   5.763   8.317  1.5375  0.3304 -0.2435
  351SOL    HW2 3208   3.668   5.794   8.415  0.7092 -1.3187 -0.6289
  352SOL     OW 3209   0.663   1.609   2.382 -0.3633 -0.2603  0.0405
  352SOL    HW1 3210   0.633   1.598   2.472 -2.6643  1.1935 -0.4629
  352SOL    HW2 3211   0.701   1.697   2.381  0.3609 -0.5743 -0.2423
  353SOL     OW 3212   5.945   4.521   3.735 -0.1520 -0.3663  0.3133
  353SOL    HW1 3213   5.931   4.433   3.700  1.3437 -0.0719 -1.1578
  353SOL    HW2 3214   6.039   4.526   3.751 -0.0817  1.2177 -0.3756
  354SOL     OW 3215   5.559   7.315   9.324  0.2910  0.0746  0.7606
  354SOL    HW1 3216   5.535   7.278   9.409 -0.2998 -0.4939  0.3633
  354SOL    HW2 3217   5.654   7.300   9.317  0.0644 -1.4716  0.5905
  355SOL     OW 3218   5.812   4.115   7.093  0.6021  0.0796 -0.3355
  355SOL    HW1 3219   5.729   4.159   7.111  0.3347 -0.4228 -0.3255
  355SOL    HW2 3220   5.807   4.032   7.141  0.8225 -0.2595 -0.8917
  356SOL     OW 3221   1.092   1.659   4.474 -0.6165  0.0953  0.5016
  356SOL    HW1 3222   1.157   1.729   4.476 -0.7301  0.1954  0.7741
  356SOL    HW2 3223   1.027   1.689   4.410 -0.8451  0.4077  0.8703
  357SOL     OW 3224   0.867   9.338   1.381  0.0699 -0.2236  0.0733
  357SOL    HW1 3225   0.885   9.262   1.325 -1.1024  0.2353 -0.9824
  357SOL    HW2 3226   0.952   9.381   1.391  0.5195 -0.9939 -0.3491
  358SOL     OW 3227   7.314   4.335   1.588  0.1315 -0.2245  0.4542
  358SOL    HW1 3228   7.249   4.373   1.647  0.7324  0.5344  0.6391
  358SOL    HW2 3229   7.381   4.299   1.646  0.0213 -0.7533  0.2583
  359SOL     OW 3230   0.872   0.480   5.999 -0.3254  0.1015  0.2782
  359SOL    HW1 3231   0.880   0.575   6.004 -0.7657  0.1980 -0.5404
  359SOL    HW2 3232   0.910   0.458   5.914 -0.5405 -0.4113  0.3121
  360SOL     OW 3233   9.147   6.017   7.111 -0.0219 -0.1760 -0.2993
  360SOL    HW1 3234   9.130   6.044   7.021 -0.6301 -0.0580 -0.1577
  360SOL    HW2 3235   9.192   5.933   7.103 -2.3051 -1.4614 -0.7229
  361SOL     OW 3236   8.200   1.396   3.210  0.1545 -0.0249 -0.0024
  361SOL    HW1 3237   8.224   1.479   3.252 -1.2532  0.5735 -0.3061
  361SOL    HW2 3238   8.284   1.352   3.195  0.8832  0.9893  0.8670
  362SOL     OW 3239   6.894   5.534   8.132  0.1665 -0.6605 -0.0230
  362SOL    HW1 3240   6.850   5.542   8.217 -1.4296 -1.6656 -0.6972
  362SOL    HW2 3241   6.825   5.550   8.068  1.4024  0.3248 -1.1497
  363SOL     OW 3242   5.809   4.895   0.669  0.0830  0.0395  0.0163
  363SOL    HW1 3243   5.880   4.943   0.712  1.1892 -1.2536 -0.2520
  363SOL    HW2 3244   5.794   4.941   0.587  0.4254  0.4888  0.2046
  364SOL     OW 3245   9.063   8.405   6.754  0.4089 -0.2150 -0.3415
  364SOL    HW1 3246   9.020   8.321   6.736  0.8748 -0.4662 -0.3139
  364SOL    HW2 3247   9.148   8.380   6.791  0.1062  0.2741  0.7113
  365SOL     OW 3248   1.483   9.472   3.003 -0.3643 -0.1954 -0.0606
  365SOL    HW1 3249   1.416   9.403   3.008 -0.7639  0.2503  1.1366
  365SOL    HW2 3250   1.566   9.425   3.009 -0.5893 -0.6950 -0.7845
  366SOL     OW 3251   4.801   4.382   1.510  0.0670  0.3101 -0.2001
  366SOL    HW1 3252   4.765   4.407   1.595  1.2959  0.5674  0.2637
  366SOL    HW2 3253   4.823   4.289   1.519  2.0832  0.7959  0.4946
  367SOL     OW 3254   0.245   2.061   4.261  0.3630 -0.6389  0.6807
  367SOL    HW1 3255   0.249   2.142   4.311  0.1536 -1.0159  1.3138
  367SOL    HW2 3256   0.215   1.995   4.323 -2.2937 -0.6585 -0.4524
  368SOL     OW 3257   4.270   2.862   2.059 -0.2830 -0.1054 -0.1600
  368SOL    HW1 3258   4.238   2.772   2.063  0.1117 -0.2172  0.6557
  368SOL    HW2 3259   4.358   2.858   2.097 -0.9319  0.9227  1.5982
  369SOL     OW 3260   5.334   8.886   8.204  0.3216 -0.7977  0.2607
  369SOL    HW1 3261   5.351   8.977   8.178 -1.2977 -0.1031  1.4443
  369SOL    HW2 3262   5.417   8.855   8.238  1.1299 -0.0564 -0.9493
  370SOL     OW 3263   4.234   1.552   3.232 -0.5203 -0.0974  0.4436
  370SOL    HW1 3264   4.312   1.532   3.285 -1.3083 -2.3545  0.8517
  370SOL    HW2 3265   4.268   1.605   3.160  1.6842 -2.0991 -0.1297
  371SOL     OW 3266   6.015   5.343   0.483  0.4111  0.0013  0.1053
  371SOL    HW1 3267   6.076   5.345   0.409 -0.3150  0.0989 -0.5029
  371SOL    HW2 3268   6.047   5.411   0.542 -0.0291  1.1886 -0.9700
  372SOL     OW 3269   1.289   1.753   8.043  0.1851  0.2887 -0.1289
  372SOL    HW1 3270   1.197   1.729   8.045 -0.0782  1.2604 -0.3592
  372SOL    HW2 3271   1.322   1.729   8.129 -0.8662  2.1226  0.8503
  373SOL     OW 3272   8.310   7.220   6.384 -0.3289  0.3066 -0.3043
  373SOL    HW1 3273   8.383   7.216   6.446 -0.7089  2.5590  0.4044
  373SOL    HW2 3274   8.348   7.198   6.300  1.3998  2.0604 -0.0647
  374SOL     OW 3275   4.615   1.747   4.619 -0.5420  0.7801 -0.1335
  374SOL    HW1 3276   4.709   1.742   4.636 -0.3963  2.4040 -0.2791
  374SOL    HW2 3277   4.606   1.813   4.550 -1.8211  1.1331  0.3169
  375SOL     OW 3278   2.490   5.498   4.085  0.6162  0.0841 -0.3306
  375SOL    HW1 3279   2.483   5.511   3.990  1.6080  0.2894 -0.3841
  375SOL    HW2 3280   2.525   5.581   4.118  2.5042 -0.7728 -0.0839
  376SOL     OW 3281   0.650   8.459   1.022  0.0699 -0.7316 -0.1246
  376SOL    HW1 3282   0.562   8.472   1.056 -0.1745  0.3053 -1.0553
  376SOL    HW2 3283   0.673   8.370   1.046 -1.8220 -1.5407 -1.1252
  377SOL     OW 3284   1.020   2.437   6.734 -0.0868  0.0902  0.2605
  377SOL    HW1 3285   1.090   2.376   6.709 -0.0556  0.2106  0.0469
  377SOL    HW2 3286   1.065   2.520   6.748 -0.0590 -0.0604  1.0698
  378SOL     OW 3287   2.400   2.136   9.183  0.4184  0.2673 -0.4081
  378SOL    HW1 3288   2.478   2.177   9.146  1.0260  0.1993  0.7517
  378SOL    HW2 3289   2.328   2.166   9.127  1.1647  0.9938 -0.9976
  379SOL     OW 3290   6.716   9.614   1.994 -0.4163 -0.0087 -0.2025
  379SOL    HW1 3291   6.656   9.614   1.919 -0.5673 -0.0427 -0.0823
  379SOL    HW2 3292   6.797   9.576   1.959 -0.5731 -0.2751 -0.2819
  380SOL     OW 3293   6.996   8.799   0.691 -0.2002  0.1293  0.3043
  380SOL    HW1 3294   7.036   8.727   0.741 -0.4474 -0.4866 -0.3671
  380SOL    HW2 3295   6.914   8.763   0.658  0.9819 -0.3281 -2.4927
  381SOL     OW 3296   3.258   1.851   3.139 -0.0747 -0.4291  0.0683
  381SOL    HW1 3297   3.298   1.937   3.124 -0.8960  0.0455  0.5391
  381SOL    HW2 3298   3.215   1.859   3.224 -1.0015 -0.9868 -0.3316
  382SOL     OW 3299   9.165   1.540   5.906  0.1153 -0.3866 -0.1676
  382SOL    HW1 3300   9.241   1.591   5.878 -1.2183  1.1903 -1.0652
  382SOL    HW2 3301   9.115   1.599   5.962 -1.7734 -0.4605 -1.7007
  383SOL     OW 3302   6.111   3.975   3.905 -0.0048 -0.4208  0.8900
  383SOL    HW1 3303   6.044   3.934   3.850 -2.1728  0.9397  2.3399
  383SOL    HW2 3304   6.088   3.949   3.994  2.2675 -1.0142  1.3587
  384SOL     OW 3305   1.788   3.670   8.341  0.2051 -0.1721 -0.4243
  384SOL    HW1 3306   1.726   3.641   8.275  2.3792 -0.1033 -2.6555
  384SOL    HW2 3307   1.824   3.589   8.377 -0.3862 -0.2054  0.1110
  385SOL     OW 3308   2.063   0.020   1.006 -0.0843 -0.1643 -0.3688
  385SOL    HW1 3309   1.993  -0.003   1.067  0.2599  0.1243  0.1564
  385SOL    HW2 3310   2.037   0.105   0.970 -1.0234 -1.0197 -1.7906
  386SOL     OW 3311   1.384   0.696   5.701 -0.2250  0.3583  0.2987
  386SOL    HW1 3312   1.299   0.728   5.669 -1.3582 -1.9180  0.8255
  386SOL    HW2 3313   1.370   0.684   5.795  0.7525  0.1007  0.4152
  387SOL     OW 3314   0.959   5.385   6.714 -0.0156  0.0146 -0.4285
  387SOL    HW1 3315   0.961   5.328   6.791  0.5519 -0.5353 -0.8353
  387SOL    HW2 3316   0.872   5.425   6.715  0.4525  1.0895  1.2506
  388SOL     OW 3317   4.191   3.058   1.006 -0.2767 -0.2328 -0.1746
  388SOL    HW1 3318   4.243   3.041   1.085 -1.0754  0.3398  0.4985
  388SOL    HW2 3319   4.219   3.145   0.978 -0.3715 -0.2136 -0.2100
  389SOL     OW 3320   2.548   6.319   2.805  0.5772 -0.3240 -0.2685
  389SOL    HW1 3321   2.507   6.276   2.880 -0.1482  1.9200  0.7152
  389SOL    HW2 3322   2.642   6.309   2.820  0.4350 -0.2775  0.7286
  390SOL     OW 3323   4.032   8.791   6.428 -0.3389 -0.1786  0.2165
  390SOL    HW1 3324   4.025   8.880   6.395 -1.4730  0.1157  1.1998
  390SOL    HW2 3325   4.111   8.756   6.385  0.4349  1.4533  0.2235
  391SOL     OW 3326   3.721   3.548   6.553 -0.3488  0.0351  0.5233
  391SOL    HW1 3327   3.810   3.567   6.581  0.0747 -0.0254 -0.7399
  391SOL    HW2 3328   3.697   3.469   6.603  0.3150  0.0293  0.8433
  392SOL     OW 3329   6.772   2.774   9.078  0.1215  0.5131  0.2346
  392SOL    HW1 3330   6.733   2.696   9.039  0.1800  0.4519  0.2963
  392SOL    HW2 3331   6.698   2.824   9.113  0.1940 -0.2526  1.5407
  393SOL     OW 3332   3.505   9.217   8.183 -0.8963  0.1245 -0.1368
  393SOL    HW1 3333   3.427   9.261   8.149 -0.1752  0.2037 -1.7908
  393SOL    HW2 3334   3.489   9.124   8.169 -1.2187  0.0508  0.7005
  394SOL     OW 3335   6.086   8.328   0.202 -0.0448 -0.1350 -0.3111
  394SOL    HW1 3336   6.102   8.276   0.123  0.7620  1.4987 -1.2860
  394SOL    HW2 3337   6.102   8.268   0.274  0.4574 -1.3367 -1.3846
  395SOL     OW 3338   2.905   1.271   2.173 -0.5879  0.5865  0.2299
  395SOL    HW1 3339   2.923   1.259   2.080 -0.6016  0.4493  0.2451
  395SOL    HW2 3340   2.912   1.366   2.187 -1.4746  0.7077 -0.0930
  396SOL     OW 3341   0.561   5.018   7.967 -0.3730 -0.0318  0.1912
  396SOL    HW1 3342   0.495   5.001   8.033 -1.3288  0.7148 -0.5371
  396SOL    HW2 3343   0.637   4.967   7.995 -1.5443 -1.6417  0.5520
  397SOL     OW 3344   8.119   7.523   1.311 -0.1786 -0.0855  0.4228
  397SOL    HW1 3345   8.087   7.598   1.360 -0.3142  2.5562 -3.3274
  397SOL    HW2 3346   8.040   7.478   1.281 -0.1231 -0.4627  0.8247
  398SOL     OW 3347   2.480   1.486   0.835 -0.5743 -0.3682  0.9179
  398SOL    HW1 3348   2.429   1.436   0.898 -2.3536 -1.3248 -1.1215
  398SOL    HW2 3349   2.470   1.438   0.753  0.8834  1.2824 -0.3089
  399SOL     OW 3350   3.773   3.162   1.099  0.0504  0.0602 -0.1173
  399SOL    HW1 3351   3.815   3.094   1.047 -0.1050  0.3018 -0.5587
  399SOL    HW2 3352   3.835   3.178   1.171  0.1811 -0.3966 -0.1235
  400SOL     OW 3353   6.859   2.306   3.643 -0.0938 -0.8918  0.5468
  400SOL    HW1 3354   6.845   2.234   3.582 -0.7810 -1.1037  0.9397
  400SOL    HW2 3355   6.935   2.353   3.608 -0.9378 -0.5448 -0.9161
  401SOL     OW 3356   0.202   3.662   1.718 -0.0172  0.2102  0.2664
  401SOL    HW1 3357   0.171   3.598   1.783  2.2808 -0.1685  1.0777
  401SOL    HW2 3358   0.162   3.744   1.745  0.9866  0.0908  2.3304
  402SOL     OW 3359   5.056   4.273   7.473 -0.6320 -0.2339 -0.8572
  402SOL    HW1 3360   5.045   4.218   7.395 -1.0531 -2.7763  0.8966
  402SOL    HW2 3361   5.047   4.213   7.547 -0.8113  2.1724  1.2120
  403SOL     OW 3362   3.203   9.089   7.490 -0.7624  0.0408  0.3957
  403SOL    HW1 3363   3.183   9.010   7.540  0.3548  0.0144  0.8246
  403SOL    HW2 3364   3.215   9.059   7.400 -1.9218 -0.0362  0.2528
  404SOL     OW 3365   0.616   0.689   2.623 -0.4462 -0.6999 -0.1412
  404SOL    HW1 3366   0.664   0.609   2.601  1.6955  0.5269 -0.2355
  404SOL    HW2 3367   0.631   0.701   2.716 -0.1526 -0.0459 -0.2699
  405SOL     OW 3368   4.051   1.759   8.716 -0.0589  0.4119  0.2847
  405SOL    HW1 3369   4.029   1.684   8.771 -0.5645 -0.2982 -0.8289
  405SOL    HW2 3370   3.999   1.831   8.752  0.6237  0.3058  1.5194
  406SOL     OW 3371   5.892   3.761   0.604  0.2564 -0.4041  0.2500
  406SOL    HW1 3372   5.900   3.853   0.578  0.5741 -0.8128 -1.1614
  406SOL    HW2 3373   5.826   3.725   0.545  0.6065 -1.2431  0.3577
  407SOL     OW 3374   4.594   7.556   5.445 -0.2085 -0.2052 -0.1540
  407SOL    HW1 3375   4.634   7.472   5.465  1.0695  0.7327  1.4778
  407SOL    HW2 3376   4.541   7.577   5.522 -1.2362  0.0869 -0.9156
  408SOL     OW 3377   4.909   8.901   9.606  0.1048 -0.8313 -0.4716
  408SOL    HW1 3378   4.985   8.935   9.558 -1.2200  1.2657 -1.2428
  408SOL    HW2 3379   4.937   8.899   9.697  1.0425  0.0963 -0.7139
  409SOL     OW 3380   7.653   7.950   3.230  0.6282 -0.5989 -0.5245
  409SOL    HW1 3381   7.743   7.932   3.258  0.6562 -0.0459 -0.2381
  409SOL    HW2 3382   7.656   8.039   3.196 -0.2920  0.4371  1.8448
  410SOL     OW 3383   9.486   9.266   4.608  0.3307  0.0791  0.7616
  410SOL    HW1 3384   9.473   9.241   4.516 -0.8924 -1.3456  1.2856
  410SOL    HW2 3385   9.554   9.206   4.639 -0.4723 -0.5965  1.2321
  411SOL     OW 3386   2.092   5.032   0.770 -0.4283 -0.7452  0.4175
  411SOL    HW1 3387   2.147   5.066   0.700 -1.2910 -5.4098 -3.0735
  411SOL    HW2 3388   2.153   5.004   0.837  0.5291  2.6727  1.1482
  412SOL     OW 3389   8.992   4.081   6.396  0.7097 -0.0673 -0.2769
  412SOL    HW1 3390   9.064   4.135   6.427  2.3545 -1.4619 -1.4306
  412SOL    HW2 3391   8.920   4.100   6.456  1.1788  3.2657 -0.5689
  413SOL     OW 3392   4.761   5.843   5.467 -0.1111  0.2725 -0.3900
  413SOL    HW1 3393   4.731   5.757   5.438 -0.5554 -0.1255  1.1130
  413SOL    HW2 3394   4.857   5.839   5.460  0.0444 -1.1551  1.5976
  414SOL     OW 3395   7.638   8.138   5.071  0.1656 -0.0620 -0.3496
  414SOL    HW1 3396   7.658   8.045   5.086 -0.4894 -0.5186 -2.1263
  414SOL    HW2 3397   7.687   8.184   5.140 -1.0204 -1.8159  1.7883
  415SOL     OW 3398   9.031   6.879   4.295  0.3053  0.2046 -0.4546
  415SOL    HW1 3399   8.973   6.869   4.371 -1.4857  0.2351 -1.7616
  415SOL    HW2 3400   9.039   6.974   4.284  1.6550  0.2161  0.4648
  416SOL     OW 3401   4.057   5.426   1.638  0.1794  0.5679  0.2287
  416SOL    HW1 3402   3.984   5.475   1.600 -1.1173 -1.6951 -0.3930
  416SOL    HW2 3403   4.091   5.373   1.565  1.8700  0.8880  0.7397
  417SOL     OW 3404   4.505   3.470   1.391  0.4827  0.1270 -0.1364
  417SOL    HW1 3405   4.488   3.425   1.309 -0.2862 -0.5954  0.3959
  417SOL    HW2 3406   4.444   3.543   1.392  0.7023  0.3130 -0.3412
  418SOL     OW 3407   2.900   0.591   8.278  0.3245  0.0793 -0.2014
  418SOL    HW1 3408   2.894   0.677   8.235 -0.7218 -0.1843 -0.6186
  418SOL    HW2 3409   2.932   0.611   8.366 -0.8659  1.0251  0.0429
  419SOL     OW 3410   1.690   7.913   2.189  0.7993 -0.4496 -0.4531
  419SOL    HW1 3411   1.623   7.913   2.258 -0.1818  1.5683 -1.3290
  419SOL    HW2 3412   1.641   7.928   2.108  2.3063  1.5674 -1.0796
  420SOL     OW 3413   5.710   5.680   6.614 -0.0749 -0.2010 -0.6423
  420SOL    HW1 3414   5.695   5.739   6.540  0.9993 -0.2355 -0.9191
  420SOL    HW2 3415   5.802   5.697   6.638 -0.0186 -1.1450 -0.1821
  421SOL     OW 3416   4.341   3.683   2.641  0.2400 -0.4792 -0.0137
  421SOL    HW1 3417   4.347   3.662   2.548 -1.3328  0.1423 -0.2855
  421SOL    HW2 3418   4.255   3.724   2.651  1.5000  2.1184  1.1797
  422SOL     OW 3419   8.316   6.976   7.341  0.2690  0.5009  0.0863
  422SOL    HW1 3420   8.318   6.883   7.361  1.8288  0.3857 -0.4416
  422SOL    HW2 3421   8.223   6.999   7.338 -0.1203 -0.6764  1.7700
  423SOL     OW 3422   5.428   1.636   1.923 -0.1292  0.0094  0.5477
  423SOL    HW1 3423   5.367   1.698   1.883  1.1321  1.4690  0.8221
  423SOL    HW2 3424   5.373   1.563   1.951 -1.5444  0.6411 -0.4709
  424SOL     OW 3425   0.012   5.886   8.355 -0.2267  0.0929  0.3133
  424SOL    HW1 3426  -0.080   5.889   8.382 -0.1046  1.2839  0.6591
  424SOL    HW2 3427   0.029   5.794   8.338 -1.2270 -0.2665  1.1715
  425SOL     OW 3428   1.190   9.288   0.121 -0.4362  0.3766 -0.3257
  425SOL    HW1 3429   1.134   9.364   0.109 -1.1944 -0.2388 -0.8137
  425SOL    HW2 3430   1.161   9.250   0.204 -0.0606  0.6139 -0.0839
  426SOL     OW 3431   9.457   2.600   4.713  0.4446  1.1199 -0.2641
  426SOL    HW1 3432   9.430   2.692   4.717  0.8525  1.2089  0.7319
  426SOL    HW2 3433   9.495   2.590   4.625 -0.2008  1.7212 -0.6244
  427SOL     OW 3434   2.564   9.146   9.508 -0.2246  0.1727 -0.2154
  427SOL    HW1 3435   2.548   9.224   9.456  1.6655 -0.1063 -1.2614
  427SOL    HW2 3436   2.519   9.076   9.461  0.7074  0.0873 -1.0011
  428SOL     OW 3437   4.090   8.228   6.847  0.4612 -0.3946 -0.6933
  428SOL    HW1 3438   4.088   8.319   6.878  0.4712 -0.2716 -1.0483
  428SOL    HW2 3439   4.056   8.177   6.921 -1.9816  0.1498 -1.3332
  429SOL     OW 3440   4.149   6.648   1.170 -0.1396  0.7579 -0.5010
  429SOL    HW1 3441   4.088   6.638   1.242 -0.6799  0.1206 -1.0320
  429SOL    HW2 3442   4.114   6.719   1.117  1.5803  2.9868  1.1430
  430SOL     OW 3443   1.457   3.011   0.676  0.3618  0.6137 -0.2623
  430SOL    HW1 3444   1.417   2.925   0.694  0.1213  0.2472 -2.2675
  430SOL    HW2 3445   1.500   2.999   0.591  0.8504  2.3307 -0.2816
  431SOL     OW 3446   4.536   4.032   4.843 -0.3289  0.1364  0.3902
  431SOL    HW1 3447   4.459   4.084   4.867 -1.3978 -0.2413 -1.9822
  431SOL    HW2 3448   4.588   4.091   4.789  0.4715 -0.0120  0.9826
  432SOL     OW 3449   6.970   4.354   6.224 -0.0009 -0.4716 -0.0201
  432SOL    HW1 3450   7.057   4.322   6.249  0.6137 -0.0679 -1.5049
  432SOL    HW2 3451   6.909   4.290   6.262  0.9802 -1.1820  0.4127
  433SOL     OW 3452   0.706   3.662   6.395  0.0798  0.1235  1.0040
  433SOL    HW1 3453   0.725   3.746   6.436  0.0189 -0.2365  1.7911
  433SOL    HW2 3454   0.675   3.607   6.466 -0.4840 -0.3808  0.3828
  434SOL     OW 3455   8.406   1.524   4.211 -0.0442  0.0424  0.3580
  434SOL    HW1 3456   8.484   1.485   4.250  0.3471  1.9250  1.5622
  434SOL    HW2 3457   8.436   1.607   4.175 -0.8093 -0.7266 -2.3000
  435SOL     OW 3458   2.523   1.617   9.104  0.0724 -0.1851 -0.2607
  435SOL    HW1 3459   2.604   1.664   9.124 -0.1645  0.1368 -0.0501
  435SOL    HW2 3460   2.497   1.577   9.187 -0.7282  0.8691  0.0239
  436SOL     OW 3461   5.554   4.337   7.909  0.0331  0.3470  0.3751
  436SOL    HW1 3462   5.571   4.360   7.817  0.1591  0.1458  0.3474
  436SOL    HW2 3463   5.585   4.247   7.917  1.5556  0.9014  1.0436
  437SOL     OW 3464   1.168   2.992   2.943  0.2691  0.2190  0.0961
  437SOL    HW1 3465   1.078   2.961   2.934  0.8765 -1.6081 -0.1305
  437SOL    HW2 3466   1.175   3.020   3.034 -1.0243  2.2396 -0.3427
  438SOL     OW 3467   3.314   7.214   4.158  0.6195 -0.3133 -0.3232
  438SOL    HW1 3468   3.275   7.127   4.148  0.3622 -0.2454  0.0732
  438SOL    HW2 3469   3.372   7.207   4.233  1.0370 -0.2950 -0.6438
  439SOL     OW 3470   4.527   4.248   8.092  0.0589  0.2769 -0.5850
  439SOL    HW1 3471   4.605   4.299   8.113  0.6263  0.2357 -2.3963
  439SOL    HW2 3472   4.502   4.207   8.174  1.3160  1.1526  0.2635
  440SOL     OW 3473   0.904   2.212   4.530 -0.1069  0.6178 -0.4280
  440SOL    HW1 3474   0.815   2.178   4.518  0.3227 -0.4312 -0.7783
  440SOL    HW2 3475   0.899   2.265   4.609 -0.2357 -2.5086  1.8713
  441SOL     OW 3476   8.882   5.929   9.379  0.4499  0.4967  0.2217
  441SOL    HW1 3477   8.871   5.867   9.307 -0.0231  0.8993 -0.0552
  441SOL    HW2 3478   8.977   5.935   9.392  0.4920 -0.7333  0.6438
  442SOL     OW 3479   2.295   0.595   2.148  0.0270 -0.3286 -0.2115
  442SOL    HW1 3480   2.331   0.680   2.121  0.7019 -0.9026 -1.1875
  442SOL    HW2 3481   2.303   0.540   2.070 -2.4983 -0.6645 -0.3159
  443SOL     OW 3482   3.617   3.233   1.542 -0.2653  1.0094 -0.5294
  443SOL    HW1 3483   3.658   3.151   1.517  1.3951  0.7670  2.4844
  443SOL    HW2 3484   3.539   3.207   1.590 -1.4069  1.3515 -2.1164
  444SOL     OW 3485   2.226   1.911   2.729 -0.4440 -0.2506  0.3277
  444SOL    HW1 3486   2.153   1.887   2.672  0.8787 -2.8778 -0.3922
  444SOL    HW2 3487   2.189   1.908   2.817 -1.0911 -2.3473  0.0413
  445SOL     OW 3488   1.021   7.423   9.307 -0.3575  0.1403 -0.2498
  445SOL    HW1 3489   1.057   7.356   9.249  0.4496  0.0040  0.3893
  445SOL    HW2 3490   1.047   7.506   9.267 -1.4614  0.1004 -1.1088
  446SOL     OW 3491   8.022   7.879   1.115 -0.0917  0.4216 -0.0772
  446SOL    HW1 3492   7.968   7.958   1.115  0.1695  0.6032 -0.9594
  446SOL    HW2 3493   7.967   7.812   1.073  0.1150  0.4225 -0.3451
  447SOL     OW 3494   1.938   8.411   0.333  0.1623  0.1521 -0.1813
  447SOL    HW1 3495   1.868   8.414   0.397 -0.1983 -1.6496 -0.4408
  447SOL    HW2 3496   1.902   8.457   0.257 -0.0513  0.7930  0.2976
  448SOL     OW 3497   9.303   0.681   5.324  0.5228  0.3671  0.3166
  448SOL    HW1 3498   9.355   0.605   5.298 -1.2115 -0.7343 -0.0618
  448SOL    HW2 3499   9.249   0.649   5.396  0.6235  1.5961  0.9646
  449SOL     OW 3500   0.837   8.492   4.644 -0.1940 -0.2299 -0.1062
  449SOL    HW1 3501   0.906   8.543   4.686 -0.0356  1.0115 -1.7783
  449SOL    HW2 3502   0.884   8.423   4.597 -0.3474 -1.3849  1.3641
  450SOL     OW 3503   7.393   4.379   2.512 -0.3390 -0.2922  0.5362
  450SOL    HW1 3504   7.333   4.417   2.448 -0.8599 -2.3735 -0.2812
  450SOL    HW2 3505   7.361   4.290   2.526  2.6260 -1.5904 -0.1097
  451SOL     OW 3506   5.022   5.976   5.745 -0.4087  0.0295 -0.1922
  451SOL    HW1 3507   5.105   5.932   5.727 -0.6962 -0.4660 -0.3114
  451SOL    HW2 3508   4.956   5.907   5.740 -0.9611  0.6082 -1.1783
  452SOL     OW 3509   7.620   9.444   2.184 -0.0867 -0.0068  0.0720
  452SOL    HW1 3510   7.615   9.531   2.143  0.6591 -0.6297 -1.4501
  452SOL    HW2 3511   7.711   9.436   2.213 -0.0106 -0.4739 -0.2789
  453SOL     OW 3512   5.653   1.253   1.871  0.0301 -0.0467  0.1084
  453SOL    HW1 3513   5.623   1.164   1.889 -0.3730 -0.0013 -0.3396
  453SOL    HW2 3514   5.670   1.290   1.958  2.1251 -1.2019  0.2442
  454SOL     OW 3515   2.556   6.739   9.438 -0.1179  0.1560  0.5936
  454SOL    HW1 3516   2.616   6.791   9.491 -0.7230 -0.3050  1.7461
  454SOL    HW2 3517   2.510   6.683   9.500 -2.2262  0.9449 -0.1774
  455SOL     OW 3518   3.348   6.136   6.913  0.0117  0.2177 -0.2373
  455SOL    HW1 3519   3.369   6.112   7.003 -1.7061  1.8847  0.6868
  455SOL    HW2 3520   3.293   6.063   6.881 -0.3620  0.1731  0.4932
  456SOL     OW 3521   4.420   6.185   7.263 -0.3737 -0.6463  0.0682
  456SOL    HW1 3522   4.435   6.167   7.356  1.1627  1.5298  0.3185
  456SOL    HW2 3523   4.482   6.129   7.217 -1.1201 -1.7136  0.3106
  457SOL     OW 3524   1.676   2.199   6.289  0.1804  0.2918  0.1422
  457SOL    HW1 3525   1.641   2.206   6.201 -0.3359  0.8824  0.3845
  457SOL    HW2 3526   1.735   2.274   6.298 -0.8220  1.0367  0.7487
  458SOL     OW 3527   0.934   5.167   8.961 -0.3808  0.1953 -0.4843
  458SOL    HW1 3528   0.842   5.147   8.974 -0.7485  2.4379  0.9584
  458SOL    HW2 3529   0.981   5.101   9.011 -1.2323 -0.5289 -0.6282
  459SOL     OW 3530   6.868   1.757   2.065 -0.2298 -0.2174  0.3231
  459SOL    HW1 3531   6.899   1.738   2.153 -0.5840  1.2314  0.7912
  459SOL    HW2 3532   6.783   1.800   2.078  1.1681  3.1777 -0.4448
  460SOL     OW 3533   5.294   9.544   8.078  0.0324 -0.2504  0.0787
  460SOL    HW1 3534   5.300   9.636   8.106 -0.7062 -0.3357  0.5358
  460SOL    HW2 3535   5.357   9.498   8.133 -1.5782 -0.4553  1.8163
  461SOL     OW 3536   7.936   8.908   8.454 -0.2156 -0.4325  0.0600
  461SOL    HW1 3537   7.989   8.829   8.466 -1.4913 -1.3892 -0.4143
  461SOL    HW2 3538   7.915   8.908   8.361  0.4038  0.9089 -0.1023
  462SOL     OW 3539   2.212   6.160   8.849  0.3691  0.0280  0.6083
  462SOL    HW1 3540   2.289   6.188   8.801 -1.5369  1.1001 -2.0852
  462SOL    HW2 3541   2.190   6.233   8.907  1.8204 -0.6641  2.1087
  463SOL     OW 3542   8.350   3.907   5.212  0.3871  0.0090  0.0162
  463SOL    HW1 3543   8.408   3.891   5.287  0.0561  1.4506  0.6155
  463SOL    HW2 3544   8.325   3.999   5.221 -0.5231 -0.0955 -1.2745
  464SOL     OW 3545   4.416   8.619   1.997 -0.2496  0.1639 -0.5812
  464SOL    HW1 3546   4.465   8.576   1.926 -0.9906 -1.4655 -0.1690
  464SOL    HW2 3547   4.342   8.660   1.952  0.0684  0.3856 -0.9105
  465SOL     OW 3548   0.148   3.640   6.227 -0.1516  0.0410 -0.3411
  465SOL    HW1 3549   0.194   3.580   6.168  0.7820  0.5609 -0.1736
  465SOL    HW2 3550   0.168   3.727   6.192  0.6109  0.3728  0.8624
  466SOL     OW 3551   8.103   0.276   8.191 -0.1277  0.1073  0.0788
  466SOL    HW1 3552   8.017   0.247   8.162  0.4800 -1.2676 -0.4373
  466SOL    HW2 3553   8.164   0.213   8.152  1.0989  0.9761  0.5380
  467SOL     OW 3554   0.026   2.573   2.929  0.4968  0.1025 -0.4189
  467SOL    HW1 3555   0.097   2.512   2.947 -0.5935 -0.7514  1.1792
  467SOL    HW2 3556   0.010   2.565   2.835  2.0688 -0.1384 -0.6949
  468SOL     OW 3557   9.289   2.379   3.702 -0.5681  0.7342  0.1422
  468SOL    HW1 3558   9.369   2.335   3.671 -1.4031 -0.1305 -0.8438
  468SOL    HW2 3559   9.294   2.371   3.797 -1.5106 -3.2034  0.0455
  469SOL     OW 3560   6.187   0.313   9.232 -0.2214  0.5103 -0.5939
  469SOL    HW1 3561   6.260   0.374   9.218  0.5715 -0.2156  0.3000
  469SOL    HW2 3562   6.182   0.263   9.150 -0.2330  1.0842 -0.9533
  470SOL     OW 3563   3.026   0.711   6.880  0.2065  0.0408  0.0918
  470SOL    HW1 3564   3.064   0.794   6.852 -0.7200  0.0425 -1.2585
  470SOL    HW2 3565   3.008   0.664   6.799 -1.7875 -0.3386  0.6977
  471SOL     OW 3566   7.713   0.863   5.027  0.4372 -0.1282  0.0517
  471SOL    HW1 3567   7.628   0.862   5.070 -0.5687 -1.8046 -1.8029
  471SOL    HW2 3568   7.768   0.805   5.080 -0.1512 -0.5368  0.2223
  472SOL     OW 3569   8.451   9.225   7.494  0.3553 -0.3463 -0.4735
  472SOL    HW1 3570   8.472   9.297   7.434 -0.7520  1.4707  1.2123
  472SOL    HW2 3571   8.398   9.165   7.442  0.8243  0.3141 -1.7627
  473SOL     OW 3572   4.174   4.771   2.122  0.2291 -0.0830 -0.2129
  473SOL    HW1 3573   4.196   4.760   2.029 -0.5118 -1.4519 -0.2554
  473SOL    HW2 3574   4.085   4.737   2.129  0.3111 -0.0689  1.0212
  474SOL     OW 3575   2.265   6.530   0.956 -0.2260 -0.1749 -0.0587
  474SOL    HW1 3576   2.179   6.545   0.994  0.0677  0.1269  0.4877
  474SOL    HW2 3577   2.252   6.456   0.896 -0.6842 -0.6640  0.6301
  475SOL     OW 3578   1.936   9.320   5.556  0.3494 -0.1075  0.0006
  475SOL    HW1 3579   2.029   9.320   5.533  0.1122  0.3011 -1.0191
  475SOL    HW2 3580   1.932   9.372   5.636  1.1825 -1.4280  0.9449
  476SOL     OW 3581   3.661   9.490   4.634  0.0021  0.5744 -0.5353
  476SOL    HW1 3582   3.641   9.555   4.701  1.9164  0.9042 -0.2152
  476SOL    HW2 3583   3.585   9.492   4.575 -0.9643  1.4840  0.6876
  477SOL     OW 3584   8.996   0.043   3.449  0.3448  0.1372 -0.2298
  477SOL    HW1 3585   8.998   0.138   3.435  2.7567  0.2826  0.5418
  477SOL    HW2 3586   8.971   0.033   3.540  1.9578  0.1916  0.2552
  478SOL     OW 3587   8.043   4.251   4.485 -0.4295  0.3343 -0.2527
  478SOL    HW1 3588   7.995   4.168   4.494  0.5413 -0.2898 -0.6158
  478SOL    HW2 3589   7.981   4.311   4.445 -1.4791  0.0878  0.9648
  479SOL     OW 3590   7.429   3.588   0.118  0.3609  0.1367  0.2916
  479SOL    HW1 3591   7.442   3.655   0.051 -0.8886  1.0943  0.9695
  479SOL    HW2 3592   7.382   3.518   0.072  1.7523 -0.3609 -0.4418
  480SOL     OW 3593   4.520   5.115   5.798  0.4620  0.0944 -0.1020
  480SOL    HW1 3594   4.511   5.090   5.890 -1.5843 -1.3095 -0.5957
  480SOL    HW2 3595   4.572   5.045   5.760 -0.2323 -0.3079 -0.3348
  481SOL     OW 3596   7.366   3.888   5.893 -0.2886 -0.2890  0.4537
  481SOL    HW1 3597   7.363   3.828   5.968 -1.7215  0.8442  1.3500
  481SOL    HW2 3598   7.281   3.878   5.851 -0.6139  1.1756  0.6964
  482SOL     OW 3599   7.331   0.464   3.205 -0.0043 -0.1483  0.3972
  482SOL    HW1 3600   7.369   0.523   3.269 -0.7543  1.6121 -0.6962
  482SOL    HW2 3601   7.241   0.494   3.195  0.1022 -0.3109 -1.4822
  483SOL     OW 3602   7.366   7.243   1.479  0.2824 -0.3553 -0.1579
  483SOL    HW1 3603   7.425   7.174   1.508 -0.8180 -0.5676  1.8063
  483SOL    HW2 3604   7.408   7.324   1.508  0.1444 -0.4309  0.2661
  484SOL     OW 3605   4.607   6.333   7.056  0.4708  0.4327  0.3070
  484SOL    HW1 3606   4.602   6.238   7.059  0.2205  0.4556  0.5912
  484SOL    HW2 3607   4.574   6.362   7.141  1.2876  0.7462  0.5279
  485SOL     OW 3608   8.816   4.244   3.329 -0.4719  0.0727  0.2657
  485SOL    HW1 3609   8.850   4.320   3.375 -1.8047  1.5098 -1.0114
  485SOL    HW2 3610   8.722   4.246   3.346 -0.5886 -1.0171 -0.1791
  486SOL     OW 3611   8.704   8.858   4.647 -0.0941  0.1111 -0.0993
  486SOL    HW1 3612   8.773   8.797   4.675  0.3485  0.4033 -0.5368
  486SOL    HW2 3613   8.720   8.937   4.699 -1.1962 -0.4185  1.1092
  487SOL     OW 3614   5.295   5.058   3.248  0.3877 -0.1239  0.2770
  487SOL    HW1 3615   5.341   5.033   3.168  0.3357  1.7090 -0.3843
  487SOL    HW2 3616   5.203   5.038   3.230  0.5939 -1.5272  0.6636
  488SOL     OW 3617   9.528   8.835   3.263 -0.5844 -0.4570  1.0784
  488SOL    HW1 3618   9.586   8.911   3.261 -0.9750 -0.1220  1.7282
  488SOL    HW2 3619   9.541   8.797   3.350  0.5588 -1.9212  0.3064
  489SOL     OW 3620   4.360   8.987   7.506  0.0934  0.2102 -0.3898
  489SOL    HW1 3621   4.430   8.991   7.440  0.0220  3.0696 -0.3882
  489SOL    HW2 3622   4.279   8.995   7.455 -0.2054 -1.5408 -0.2475
  490SOL     OW 3623   7.719   7.661   9.418 -0.4647  0.0341  0.1514
  490SOL    HW1 3624   7.804   7.620   9.402 -0.6695 -0.7298  0.9098
  490SOL    HW2 3625   7.729   7.750   9.386  0.4680 -0.1869 -0.2115
  491SOL     OW 3626   7.656   1.403   0.091  0.4902 -0.1240 -0.2226
  491SOL    HW1 3627   7.678   1.351   0.014  0.5082 -2.1137  1.0476
  491SOL    HW2 3628   7.563   1.423   0.082  0.6251  0.1752 -1.0226
  492SOL     OW 3629   6.369   2.127   7.716  0.1932 -0.0945  0.5629
  492SOL    HW1 3630   6.456   2.166   7.728  0.7588 -1.4979  1.3065
  492SOL    HW2 3631   6.323   2.146   7.798 -1.0478  2.5659 -0.6555
  493SOL     OW 3632   8.209   3.350   5.748  0.2635 -0.8710 -0.8003
  493SOL    HW1 3633   8.172   3.267   5.717 -0.5720 -0.7748 -0.1009
  493SOL    HW2 3634   8.199   3.346   5.843 -1.8598  0.9680 -0.8878
  494SOL     OW 3635   8.404   3.566   8.521  0.1348  0.5407 -0.4408
  494SOL    HW1 3636   8.318   3.544   8.555 -0.9854  1.0942 -2.7334
  494SOL    HW2 3637   8.465   3.531   8.586 -1.7815  0.1593  1.2621
  495SOL     OW 3638   6.918   4.799   4.915 -0.4377 -0.2318 -0.7536
  495SOL    HW1 3639   6.849   4.827   4.975  0.5125  1.0333 -0.2200
  495SOL    HW2 3640   6.969   4.736   4.965  0.2190  0.6511 -0.3084
  496SOL     OW 3641   4.363   6.360   2.306 -0.5313  1.0833 -0.2664
  496SOL    HW1 3642   4.303   6.336   2.235 -1.0088  0.4254  0.3471
  496SOL    HW2 3643   4.331   6.445   2.337 -0.2926  1.3953 -0.8604
  497SOL     OW 3644   6.200   9.407   2.999  0.0406  0.3804 -0.6333
  497SOL    HW1 3645   6.147   9.478   2.960  0.1168  0.3687 -0.7572
  497SOL    HW2 3646   6.140   9.332   3.002  0.0724  0.3476 -0.8386
  498SOL     OW 3647   2.480   8.011   1.769  0.5643  0.3574  0.1214
  498SOL    HW1 3648   2.505   8.079   1.706 -1.4764  0.2625 -0.8723
  498SOL    HW2 3649   2.546   7.942   1.756  0.9017  0.8625 -1.0396
  499SOL     OW 3650   5.467   2.456   8.927  0.0277  0.4443 -0.5759
  499SOL    HW1 3651   5.531   2.390   8.901  1.5892  1.5027  0.4867
  499SOL    HW2 3652   5.396   2.405   8.968  1.6540 -0.5659  1.1562
  500SOL     OW 3653   8.195   4.584   1.006 -0.0521  0.3041 -0.1142
  500SOL    HW1 3654   8.245   4.647   0.955 -0.7998 -0.0940 -1.3708
  500SOL    HW2 3655   8.254   4.510   1.019  0.1402  0.4075 -0.3941
  501SOL     OW 3656   4.334   3.309   6.803 -0.4791  0.0562  0.5756
  501SOL    HW1 3657   4.274   3.261   6.860 -1.2247  1.8096  1.3410
  501SOL    HW2 3658   4.296   3.299   6.715 -0.9518 -0.2646  0.8132
  502SOL     OW 3659   0.009   0.126   9.072 -0.1413  0.1133  0.0473
  502SOL    HW1 3660   0.058   0.145   8.993  1.8559  0.2582  1.2380
  502SOL    HW2 3661   0.011   0.208   9.122  1.7166 -0.8677  1.7442
  503SOL     OW 3662   7.398   1.875   1.158 -0.7154  0.1262 -0.6041
  503SOL    HW1 3663   7.377   1.787   1.126  3.8587 -1.2063 -0.6753
  503SOL    HW2 3664   7.352   1.934   1.098 -4.0759 -2.0723 -0.4782
  504SOL     OW 3665   4.517   4.978   7.692 -0.0912 -0.2818  0.3536
  504SOL    HW1 3666   4.426   4.960   7.715 -1.3606  4.9890  0.7055
  504SOL    HW2 3667   4.559   5.002   7.774  1.3208 -1.3211 -0.0189
  505SOL     OW 3668   1.749   0.438   9.024 -0.8874 -0.0584 -0.2093
  505SOL    HW1 3669   1.821   0.490   8.987 -0.6169 -0.0423  0.3325
  505SOL    HW2 3670   1.791   0.361   9.062 -1.3727 -1.1421 -1.7831
  506SOL     OW 3671   7.056   5.181   7.275  0.7187 -0.1076  0.7123
  506SOL    HW1 3672   7.068   5.116   7.344  0.3142  1.1995  2.0815
  506SOL    HW2 3673   7.085   5.263   7.315 -1.0068  0.9649 -0.1212
  507SOL     OW 3674   3.155   8.077   4.027 -0.4121 -0.0566  0.0010
  507SOL    HW1 3675   3.164   8.106   4.118  0.6040  0.3209 -0.2097
  507SOL    HW2 3676   3.128   7.986   4.034  2.0279 -0.7941  0.7298
  508SOL     OW 3677   1.330   8.129   2.183  0.3013  0.2137 -0.7822
  508SOL    HW1 3678   1.416   8.168   2.165  0.8528 -0.7178 -0.2177
  508SOL    HW2 3679   1.278   8.149   2.105  1.8426 -1.4938 -2.3324
  509SOL     OW 3680   5.638   3.937   8.897 -0.7780  0.7365 -0.4772
  509SOL    HW1 3681   5.585   3.857   8.905 -1.0688  0.8690 -1.0589
  509SOL    HW2 3682   5.715   3.920   8.952 -1.0262  0.2155 -0.2805
  510SOL     OW 3683   7.515   3.987   5.520 -0.1960 -0.7669  0.3577
  510SOL    HW1 3684   7.575   3.961   5.590  0.2714 -0.4627  0.0759
  510SOL    HW2 3685   7.573   4.016   5.449 -0.6935  0.7002  0.5253
  511SOL     OW 3686   7.821   4.396   9.234  0.3067  0.4814  0.2667
  511SOL    HW1 3687   7.826   4.317   9.288  0.7646  1.1023  1.1418
  511SOL    HW2 3688   7.729   4.422   9.238  0.0782 -0.2034 -0.3254
  512SOL     OW 3689   2.740   8.866   4.399  0.3186  0.2498 -0.3130
  512SOL    HW1 3690   2.718   8.910   4.317  0.2373  1.0753  0.1396
  512SOL    HW2 3691   2.662   8.816   4.421 -0.4336  1.6199  0.2802
  513SOL     OW 3692   4.079   8.610   1.170 -0.2058 -0.2720 -0.2936
  513SOL    HW1 3693   3.984   8.608   1.185 -0.1217 -0.3887  0.2381
  513SOL    HW2 3694   4.088   8.652   1.085 -0.8448 -2.0811 -1.2991
  514SOL     OW 3695   4.473   9.604   6.166 -0.1864  0.0889  0.0314
  514SOL    HW1 3696   4.493   9.641   6.252  1.9441  0.1293 -0.4416
  514SOL    HW2 3697   4.532   9.530   6.157 -1.3708 -0.8008 -0.8533
  515SOL     OW 3698   1.732   5.155   6.859  0.1540  0.1275 -0.4344
  515SOL    HW1 3699   1.786   5.189   6.930 -1.0857  1.0016  0.1280
  515SOL    HW2 3700   1.715   5.064   6.884 -0.8378  0.6174  0.7724
  516SOL     OW 3701   3.708   8.413   6.652 -0.2407 -0.5911  0.2040
  516SOL    HW1 3702   3.636   8.450   6.602  0.6945  1.5772  0.3417
  516SOL    HW2 3703   3.786   8.458   6.618  0.7536 -1.1603  1.6416
  517SOL     OW 3704   9.075   2.743   3.965  0.2425 -0.2944 -0.4014
  517SOL    HW1 3705   9.000   2.774   4.016  0.0036 -0.5346 -0.6011
  517SOL    HW2 3706   9.046   2.751   3.874  1.8143  3.2793 -0.7463
  518SOL     OW 3707   1.466   2.424   2.273  0.0396 -0.6001  0.0210
  518SOL    HW1 3708   1.454   2.444   2.180 -0.7555 -1.6293 -0.1159
  518SOL    HW2 3709   1.379   2.401   2.305  0.6590 -2.6135  0.4221
  519SOL     OW 3710   2.779   7.191   2.133  0.5426 -0.3233 -0.2741
  519SOL    HW1 3711   2.776   7.134   2.211  1.6956 -0.4764 -0.3272
  519SOL    HW2 3712   2.700   7.244   2.139 -0.8125 -2.2145 -0.4353
  520SOL     OW 3713   3.074   9.446   3.282  0.2074 -0.4683  0.4795
  520SOL    HW1 3714   3.021   9.429   3.204  0.5353 -1.4524  0.4473
  520SOL    HW2 3715   3.024   9.511   3.332 -0.5248 -0.6169 -0.0409
  521SOL     OW 3716   4.422   9.212   1.564 -0.0885  0.3355  0.4756
  521SOL    HW1 3717   4.361   9.151   1.604 -0.5394  0.3782 -0.1385
  521SOL    HW2 3718   4.401   9.210   1.470  0.1416  1.1437  0.3991
  522SOL     OW 3719   8.528   8.687   6.876 -0.2943  0.3660 -0.3139
  522SOL    HW1 3720   8.598   8.667   6.814 -1.4861  1.7544 -2.2190
  522SOL    HW2 3721   8.478   8.605   6.883 -0.9137  0.5440 -2.2763
  523SOL     OW 3722   2.129   6.734   9.175  0.9532 -0.5063  0.1982
  523SOL    HW1 3723   2.209   6.786   9.169  0.1804  0.7628  0.6093
  523SOL    HW2 3724   2.085   6.748   9.091  0.3131  0.2609  0.6450
  524SOL     OW 3725   2.731   9.433   5.499 -0.3773 -0.6152  0.8069
  524SOL    HW1 3726   2.695   9.365   5.556  0.1927 -0.6778  1.0991
  524SOL    HW2 3727   2.670   9.438   5.425 -0.6612 -1.1278  1.0066
  525SOL     OW 3728   2.951   0.243   9.197  0.0394  0.4571 -0.6730
  525SOL    HW1 3729   2.992   0.157   9.202  0.7142  0.8466  1.4748
  525SOL    HW2 3730   2.950   0.275   9.287 -1.3487  2.1821 -1.2261
  526SOL     OW 3731   8.170   8.175   7.080  0.0225 -0.0996 -0.3788
  526SOL    HW1 3732   8.205   8.184   6.992  1.2130 -0.3819  0.0448
  526SOL    HW2 3733   8.080   8.146   7.068  0.5368 -1.3414 -1.4902
  527SOL     OW 3734   9.107   0.047   8.206  0.2125 -0.9012  0.0440
  527SOL    HW1 3735   9.029   0.069   8.155 -0.1298  2.0653  1.5849
  527SOL    HW2 3736   9.072   0.018   8.290  0.7254 -0.2990  0.4748
  528SOL     OW 3737   4.612   1.593   7.007  0.5498  0.1889  0.2548
  528SOL    HW1 3738   4.657   1.676   6.988 -0.6281  0.7804 -0.0278
  528SOL    HW2 3739   4.579   1.604   7.096  0.6561 -0.1066  0.3318
  529SOL     OW 3740   6.815   7.824   7.880 -0.2780 -0.6059  0.0192
  529SOL    HW1 3741   6.770   7.884   7.822 -1.2929 -1.7073 -0.3752
  529SOL    HW2 3742   6.908   7.836   7.860 -0.5247  0.0800 -0.7671
  530SOL     OW 3743   6.056   8.048   8.861 -0.0422 -0.5055 -0.2131
  530SOL    HW1 3744   6.103   7.977   8.905 -1.9759 -0.4122  2.2283
  530SOL    HW2 3745   6.002   8.004   8.795 -1.3742 -1.3959  1.4110
  531SOL     OW 3746   8.852   6.228   6.961 -0.1510 -0.2464 -0.7458
  531SOL    HW1 3747   8.828   6.181   7.041  0.5549  0.1206 -0.3088
  531SOL    HW2 3748   8.784   6.203   6.897  0.7092 -2.6346 -0.8314
  532SOL     OW 3749   4.319   9.399   4.875 -0.1833  0.0436 -0.1424
  532SOL    HW1 3750   4.369   9.421   4.954 -0.1432 -1.0695  0.1565
  532SOL    HW2 3751   4.315   9.303   4.875 -1.6932  0.0856 -0.5509
  533SOL     OW 3752   2.523   6.871   8.024  0.4220 -0.2819  0.3182
  533SOL    HW1 3753   2.479   6.846   7.942 -1.5826  1.1395  0.8793
  533SOL    HW2 3754   2.602   6.818   8.025 -0.3610 -1.6471 -1.6840
  534SOL     OW 3755   1.338   3.567   7.916 -0.1486  0.4185 -0.4938
  534SOL    HW1 3756   1.360   3.498   7.853 -1.4243 -1.6474  1.1592
  534SOL    HW2 3757   1.253   3.600   7.888 -1.6618 -1.8417  1.0044
  535SOL     OW 3758   8.158   1.046   3.035 -0.0522  0.0042  0.4296
  535SOL    HW1 3759   8.242   1.084   3.010  0.5351 -0.0838  2.1386
  535SOL    HW2 3760   8.155   0.963   2.989  1.1596 -0.3324  0.9160
  536SOL     OW 3761   1.618   9.533   2.490  0.0416 -0.1741 -0.1678
  536SOL    HW1 3762   1.676   9.501   2.421  0.2953  0.5554 -0.3066
  536SOL    HW2 3763   1.533   9.541   2.448  0.4123  1.2497 -0.7026
  537SOL     OW 3764   3.292   6.164   0.716  0.5519 -0.3462  0.2908
  537SOL    HW1 3765   3.369   6.211   0.685 -0.4113  1.1370  0.0203
  537SOL    HW2 3766   3.229   6.171   0.644 -0.1893 -0.6083  0.8968
  538SOL     OW 3767   7.964   3.846   5.941 -0.2507 -0.3588 -0.4521
  538SOL    HW1 3768   8.028   3.779   5.963  0.2325  0.4687  0.7471
  538SOL    HW2 3769   7.973   3.858   5.847  0.6750 -0.9359 -0.4451
  539SOL     OW 3770   7.092   2.917   3.999 -0.3688  0.1223  0.5601
  539SOL    HW1 3771   7.177   2.899   3.958 -1.0228 -1.1649 -0.3090
  539SOL    HW2 3772   7.094   2.868   4.081 -0.6682 -0.7938  0.0294
  540SOL     OW 3773   6.895   3.248   5.757  0.1318  0.0687  0.2243
  540SOL    HW1 3774   6.905   3.321   5.818  0.4119  0.3640 -0.1649
  540SOL    HW2 3775   6.908   3.288   5.671  2.5921 -0.8501  0.1120
  541SOL     OW 3776   0.969   9.589   1.190 -0.2204 -0.0590  0.2371
  541SOL    HW1 3777   1.014   9.612   1.109 -1.3032 -0.3360 -0.4672
  541SOL    HW2 3778   1.026   9.525   1.232  0.4564  0.2558 -0.1823
  542SOL     OW 3779   1.505   1.578   1.379  0.0605  0.1883  0.5122
  542SOL    HW1 3780   1.591   1.571   1.420  0.2429  0.4788  0.1778
  542SOL    HW2 3781   1.496   1.671   1.357  0.9549 -0.2961 -2.2336
  543SOL     OW 3782   3.862   1.368   6.545 -0.2683 -0.5071 -0.4307
  543SOL    HW1 3783   3.929   1.314   6.586 -0.2549 -0.7678 -0.7889
  543SOL    HW2 3784   3.780   1.335   6.581 -0.1746  0.3379  0.6204
  544SOL     OW 3785   2.689   9.296   4.379  0.3326  0.3190  0.3086
  544SOL    HW1 3786   2.756   9.248   4.429  0.1970  0.5605  0.7329
  544SOL    HW2 3787   2.697   9.262   4.290  1.2301  0.5667  0.2824
  545SOL     OW 3788   8.930   3.097   5.725  0.2684 -0.0382  0.0527
  545SOL    HW1 3789   8.981   3.112   5.646  3.0040 -2.5563  1.1836
  545SOL    HW2 3790   8.839   3.091   5.694  0.9132  1.5127 -2.4638
  546SOL     OW 3791   8.586   4.076   2.083  0.0322 -0.9016 -0.0075
  546SOL    HW1 3792   8.512   4.136   2.092  0.3456 -0.3885 -0.7305
  546SOL    HW2 3793   8.549   3.999   2.039  0.4383  0.5154 -3.1356
  547SOL     OW 3794   0.493   6.686   1.114 -0.1495  0.1293 -0.0608
  547SOL    HW1 3795   0.453   6.611   1.159 -2.0088  0.4184 -1.1282
  547SOL    HW2 3796   0.455   6.762   1.158  3.2087  0.6196  2.3618
  548SOL     OW 3797   7.589   5.394   4.377  0.0936  0.5310  0.5033
  548SOL    HW1 3798   7.499   5.363   4.385 -0.0443  1.0299  1.0025
  548SOL    HW2 3799   7.605   5.401   4.283 -0.6388  1.1271  0.4145
  549SOL     OW 3800   0.927   5.276   8.472 -0.1680 -0.4537  0.1330
  549SOL    HW1 3801   0.901   5.248   8.559 -1.7175 -1.6716 -0.6843
  549SOL    HW2 3802   1.008   5.228   8.455  0.1540 -0.1945  0.8939
  550SOL     OW 3803   6.153   8.830   3.491  0.0455  0.4995 -0.5161
  550SOL    HW1 3804   6.074   8.830   3.546 -1.3849  0.3108 -2.4472
  550SOL    HW2 3805   6.128   8.881   3.414  0.1548 -3.2279 -3.2914
  551SOL     OW 3806   2.379   2.231   0.472 -0.1791 -0.7815  0.1112
  551SOL    HW1 3807   2.402   2.203   0.561 -0.3346  0.2082  0.4775
  551SOL    HW2 3808   2.309   2.294   0.484  1.3524  1.1559 -0.5205
  552SOL     OW 3809   2.724   3.253   8.931  0.5911  0.2273 -0.4976
  552SOL    HW1 3810   2.789   3.220   8.994  0.8765  1.1975 -0.2661
  552SOL    HW2 3811   2.720   3.185   8.864  0.2599 -0.8544  0.5691
  553SOL     OW 3812   8.625   4.623   1.934  0.3900 -0.5214 -0.4436
  553SOL    HW1 3813   8.689   4.560   1.968  0.7007 -0.4430 -0.8750
  553SOL    HW2 3814   8.556   4.624   2.000  1.2171  0.0094  0.4463
  554SOL     OW 3815   7.701   2.886   2.842 -1.0821 -0.2363  0.0051
  554SOL    HW1 3816   7.744   2.942   2.777 -0.3351 -1.0027 -0.1863
  554SOL    HW2 3817   7.653   2.946   2.898 -1.5707  0.4650 -1.1316
  555SOL     OW 3818   8.909   8.205   5.035 -0.7462  0.1461  0.4663
  555SOL    HW1 3819   8.993   8.176   5.000 -0.8108 -1.0505  1.2682
  555SOL    HW2 3820   8.909   8.300   5.019  1.0995  0.3136  1.1691
  556SOL     OW 3821   8.142   6.297   8.399  0.4709  0.1891 -0.5955
  556SOL    HW1 3822   8.135   6.323   8.491  2.1835 -0.0314 -0.3681
  556SOL    HW2 3823   8.076   6.350   8.355 -0.7774 -0.1100  0.8203
  557SOL     OW 3824   8.710   1.945   8.715  0.3172 -0.0651  0.3969
  557SOL    HW1 3825   8.675   1.856   8.721  1.8356 -0.9844 -2.3988
  557SOL    HW2 3826   8.695   1.970   8.624  4.3273  0.4845 -0.2930
  558SOL     OW 3827   7.484   7.100   1.064  0.1761  0.6061 -0.0183
  558SOL    HW1 3828   7.466   7.192   1.045 -0.1999  0.4806 -0.2824
  558SOL    HW2 3829   7.545   7.073   0.996 -0.6358  0.3435 -0.6584
  559SOL     OW 3830   2.570   3.353   0.672 -0.6473  0.0828 -0.3236
  559SOL    HW1 3831   2.615   3.351   0.757 -0.6647 -1.2486 -0.3315
  559SOL    HW2 3832   2.484   3.316   0.690 -0.1483 -1.6097 -1.1730
  560SOL     OW 3833   4.809   9.356   0.178 -0.6566 -0.3290  0.2995
  560SOL    HW1 3834   4.801   9.436   0.230  1.0635 -0.5803  1.0087
  560SOL    HW2 3835   4.847   9.385   0.095 -1.9976 -0.1400 -0.2688
  561SOL     OW 3836   8.760   9.127   1.622 -0.2641  0.5002  0.0758
  561SOL    HW1 3837   8.786   9.102   1.533 -0.6550 -1.3298  0.4309
  561SOL    HW2 3838   8.767   9.222   1.623  1.7889  0.4293 -1.2728
  562SOL     OW 3839   1.120   6.672   3.334  0.3104  0.4229 -0.5225
  562SOL    HW1 3840   1.072   6.752   3.356  0.1440 -0.1205  1.2194
  562SOL    HW2 3841   1.053   6.604   3.334  0.6380  0.0995 -0.8672
  563SOL     OW 3842   1.837   5.097   0.786 -0.7816  0.3994  0.0328
  563SOL    HW1 3843   1.928   5.079   0.764 -1.0813 -0.5518 -0.4607
  563SOL    HW2 3844   1.804   5.015   0.822 -1.1656  1.0323  1.1799
  564SOL     OW 3845   7.007   0.193   4.871 -0.8710 -1.0510  0.2381
  564SOL    HW1 3846   6.951   0.174   4.945 -2.5436 -0.8020 -0.9113
  564SOL    HW2 3847   7.037   0.283   4.885  0.2849 -1.5882  1.4631
  565SOL     OW 3848   9.427   5.339   3.024 -0.3334  0.1365  0.2849
  565SOL    HW1 3849   9.343   5.351   3.069  0.5963 -0.3911  2.2801
  565SOL    HW2 3850   9.492   5.373   3.085  0.9476  0.3852 -1.1580
  566SOL     OW 3851   8.926   4.999   4.722  0.1971  0.4111  0.3269
  566SOL    HW1 3852   8.989   4.930   4.743  0.0417  0.2826  0.3669
  566SOL    HW2 3853   8.871   4.962   4.653  0.1157  0.4962  0.3455
  567SOL     OW 3854   2.920   5.172   8.618  0.1551  0.6951  0.1517
  567SOL    HW1 3855   2.928   5.179   8.523 -0.9214 -0.7094 -0.0649
  567SOL    HW2 3856   3.011   5.162   8.648  0.3481 -1.8713 -1.0343
  568SOL     OW 3857   7.156   7.733   2.547 -0.1500  0.2732 -0.6791
  568SOL    HW1 3858   7.138   7.747   2.640  1.8995 -0.3944 -0.1243
  568SOL    HW2 3859   7.148   7.639   2.535  2.0732  0.0102 -0.5241
  569SOL     OW 3860   8.674   1.378   8.878  0.4188 -0.2667 -0.4697
  569SOL    HW1 3861   8.631   1.349   8.797 -2.3727  0.7434  0.5165
  569SOL    HW2 3862   8.731   1.306   8.902 -0.3879 -1.5479 -2.1788
  570SOL     OW 3863   7.251   0.104   7.309 -0.2630 -0.2643 -0.3051
  570SOL    HW1 3864   7.212   0.093   7.396 -0.3209 -0.3710 -0.3449
  570SOL    HW2 3865   7.182   0.081   7.248 -1.1214  2.3504 -0.4562
  571SOL     OW 3866   7.547   1.947   3.825 -0.2224 -0.2584  0.0955
  571SOL    HW1 3867   7.618   1.889   3.854  1.5918  1.2645 -1.1080
  571SOL    HW2 3868   7.530   1.921   3.735  0.3400  0.7682 -0.3276
  572SOL     OW 3869   7.934   2.791   2.138 -0.0009  0.0559 -0.2818
  572SOL    HW1 3870   7.996   2.832   2.078  0.7167 -0.7191 -0.0832
  572SOL    HW2 3871   7.985   2.726   2.186 -0.9654 -0.6411 -0.1487
  573SOL     OW 3872   4.273   8.769   6.629 -0.4484 -0.2240  0.1573
  573SOL    HW1 3873   4.369   8.763   6.635 -0.4685 -0.3052  0.4263
  573SOL    HW2 3874   4.243   8.678   6.630 -0.4613 -0.2610 -1.2562
  574SOL     OW 3875   8.958   5.365   8.688  0.5130 -0.2697 -0.0088
  574SOL    HW1 3876   8.983   5.315   8.611 -2.1886 -1.2078 -0.3944
  574SOL    HW2 3877   8.914   5.301   8.745 -0.1788  1.0021  0.9400
  575SOL     OW 3878   8.285   3.195   2.539  0.0176  0.1022 -0.2354
  575SOL    HW1 3879   8.260   3.204   2.631 -0.8879  1.1030 -0.5630
  575SOL    HW2 3880   8.204   3.173   2.494  0.0742  1.4485 -1.0466
  576SOL     OW 3881   0.284   5.370   2.833 -0.8359 -0.7547  0.5417
  576SOL    HW1 3882   0.308   5.408   2.917 -0.6271 -0.0509  0.1644
  576SOL    HW2 3883   0.366   5.366   2.784 -1.1632 -0.0291 -0.0760
  577SOL     OW 3884   6.928   5.534   2.316 -0.0573  0.6875 -0.3808
  577SOL    HW1 3885   6.880   5.579   2.385 -1.2089 -1.3448  0.2093
  577SOL    HW2 3886   6.992   5.479   2.363  0.1336  0.3741 -0.9925
  578SOL     OW 3887   3.938   1.363   2.195 -0.3002 -0.0928 -0.0067
  578SOL    HW1 3888   3.860   1.415   2.177  0.0767  0.7624  0.7685
  578SOL    HW2 3889   3.911   1.273   2.177 -1.8288  0.0509  1.3593
  579SOL     OW 3890   0.702   4.804   8.973  0.0149 -0.2644  0.2991
  579SOL    HW1 3891   0.616   4.779   9.005 -0.7045  0.8167 -0.7195
  579SOL    HW2 3892   0.702   4.899   8.976  0.0431 -0.1060 -2.4439
  580SOL     OW 3893   7.665   1.122   1.449 -0.4174 -0.3425  0.1783
  580SOL    HW1 3894   7.608   1.184   1.404  0.4999  0.2990 -0.1064
  580SOL    HW2 3895   7.747   1.123   1.401 -0.1651 -1.3093  0.5471
  581SOL     OW 3896   1.397   5.712   7.985 -0.1203 -0.0204  0.3129
  581SOL    HW1 3897   1.457   5.646   8.019 -0.9889  0.1875  2.3668
  581SOL    HW2 3898   1.418   5.791   8.034  0.0183  0.9184 -1.1922
  582SOL     OW 3899   9.297   9.140   2.506  0.3094  0.0233 -0.2776
  582SOL    HW1 3900   9.261   9.066   2.555 -0.1638  0.3510 -0.1196
  582SOL    HW2 3901   9.379   9.161   2.549  0.9429 -1.0435 -0.9312
  583SOL     OW 3902   8.825   5.262   4.795  0.5311  0.5007 -0.0591
  583SOL    HW1 3903   8.846   5.176   4.760 -1.5954  0.6870 -2.1248
  583SOL    HW2 3904   8.730   5.269   4.783  0.1930  2.0148  2.7719
  584SOL     OW 3905   8.341   1.606   9.451 -0.1573  0.1250  0.1495
  584SOL    HW1 3906   8.298   1.690   9.441 -0.4067  0.0033  0.1820
  584SOL    HW2 3907   8.284   1.544   9.404  1.2848  0.3505 -2.0744
  585SOL     OW 3908   6.576   5.382   8.920  0.3095  0.3017  0.0706
  585SOL    HW1 3909   6.490   5.383   8.879  1.0142  1.0828 -1.4884
  585SOL    HW2 3910   6.585   5.468   8.961  0.8349  0.7511 -0.9346
  586SOL     OW 3911   7.291   5.305   5.831 -0.1311 -0.3744 -0.7485
  586SOL    HW1 3912   7.277   5.302   5.736  0.6555 -1.9985 -0.8616
  586SOL    HW2 3913   7.293   5.213   5.857 -0.1330  0.0484  0.8180
  587SOL     OW 3914   8.857   4.920   4.038  0.1224  0.0972  0.5684
  587SOL    HW1 3915   8.788   4.987   4.045 -1.5079 -1.6121  1.9147
  587SOL    HW2 3916   8.851   4.889   3.948 -0.8721  0.0074  0.6504
  588SOL     OW 3917   5.414   3.582   5.587 -0.5859  0.3153 -0.7368
  588SOL    HW1 3918   5.339   3.641   5.596 -0.4058  0.3344  1.2094
  588SOL    HW2 3919   5.382   3.498   5.621  0.2856  0.3739  0.2890
  589SOL     OW 3920   6.051   0.172   6.166  0.0537  0.2178  0.0575
  589SOL    HW1 3921   5.995   0.098   6.142  1.5628 -0.1056 -3.0266
  589SOL    HW2 3922   6.005   0.249   6.132  0.3589  0.2068 -0.3935
  590SOL     OW 3923   8.009   1.077   3.267 -0.4685  0.1498 -0.6478
  590SOL    HW1 3924   7.930   1.123   3.239  0.3558  0.3846 -2.7437
  590SOL    HW2 3925   8.072   1.092   3.197  1.1216 -0.9008  0.4801
  591SOL     OW 3926   0.401   7.445   5.026  0.0196  0.4393  0.0056
  591SOL    HW1 3927   0.315   7.481   5.003 -0.7533 -1.0484  0.4504
  591SOL    HW2 3928   0.418   7.477   5.114 -1.0113 -0.8312  0.6999
  592SOL     OW 3929   0.238   4.200   9.351 -0.2501  0.1959 -0.6744
  592SOL    HW1 3930   0.307   4.140   9.377  2.2164  1.7833 -2.9926
  592SOL    HW2 3931   0.162   4.145   9.334  1.2251 -1.9820 -0.5135
  593SOL     OW 3932   3.647   8.531   6.003 -0.0108  0.3784  0.0639
  593SOL    HW1 3933   3.649   8.617   6.045  0.6081  0.6756 -0.5533
  593SOL    HW2 3934   3.664   8.549   5.910 -0.3049 -0.3713 -0.1472
  594SOL     OW 3935   6.134   4.920   3.321 -0.4623 -0.4117  0.1277
  594SOL    HW1 3936   6.148   4.991   3.257 -0.4336 -0.2862  0.2717
  594SOL    HW2 3937   6.057   4.948   3.370 -1.0355 -0.9504 -0.4564
  595SOL     OW 3938   7.176   4.519   3.336 -0.2031 -0.8501 -0.2265
  595SOL    HW1 3939   7.234   4.523   3.259 -0.0901 -1.8881 -0.2008
  595SOL    HW2 3940   7.181   4.429   3.366 -0.0212 -0.3954  1.1932
  596SOL     OW 3941   1.032   6.888   3.061  0.2702  0.0954  0.3463
  596SOL    HW1 3942   1.054   6.795   3.057  1.8060  0.3166  1.9850
  596SOL    HW2 3943   1.068   6.925   2.980  1.4125 -0.4498  0.5829
  597SOL     OW 3944   7.904   5.228   3.660 -0.0827  0.1234 -0.3461
  597SOL    HW1 3945   7.913   5.208   3.753  1.5150  1.1360 -0.2456
  597SOL    HW2 3946   7.974   5.178   3.618 -1.4701 -1.1836 -1.1721
  598SOL     OW 3947   3.027   5.077   7.686 -0.1150  0.3145  0.2864
  598SOL    HW1 3948   2.947   5.051   7.731  1.2388 -1.6404  1.7713
  598SOL    HW2 3949   3.034   5.171   7.700 -2.2594  0.5747 -0.1365
  599SOL     OW 3950   6.994   7.921   3.488 -0.2446 -0.0467  0.3225
  599SOL    HW1 3951   6.988   7.904   3.582 -1.4577  1.1182  0.4757
  599SOL    HW2 3952   6.904   7.916   3.457  0.2849 -2.1010 -1.1199
  600SOL     OW 3953   7.161   2.301   0.132  0.5138  0.0907  0.1036
  600SOL    HW1 3954   7.153   2.215   0.090  0.8355 -0.3053  0.8271
  600SOL    HW2 3955   7.241   2.339   0.095 -0.3267  0.6499 -1.1940
  601SOL     OW 3956   4.344   2.068   8.220 -0.3524  0.3210  0.1670
  601SOL    HW1 3957   4.324   2.050   8.312  0.0931 -0.6239  0.0902
  601SOL    HW2 3958   4.389   1.989   8.190 -0.0074  0.8474 -0.7124
  602SOL     OW 3959   2.139   9.541   7.782  0.0365  0.2318  0.3739
  602SOL    HW1 3960   2.183   9.463   7.749  3.0103  2.4933 -1.5035
  602SOL    HW2 3961   2.195   9.572   7.853 -2.1538 -0.2639  2.4513
  603SOL     OW 3962   6.602   0.201   2.150 -0.4031  0.5000  0.1691
  603SOL    HW1 3963   6.515   0.173   2.180 -0.4965 -0.0858 -0.6279
  603SOL    HW2 3964   6.641   0.122   2.113 -0.0037  1.0354 -0.5782
  604SOL     OW 3965   4.345   4.210   4.420  0.4078  0.2136 -0.4926
  604SOL    HW1 3966   4.313   4.297   4.395  1.6080  0.2838 -2.0189
  604SOL    HW2 3967   4.336   4.158   4.340  2.8373 -0.0702 -0.6737
  605SOL     OW 3968   3.181   8.681   0.074 -0.2426  0.2901  0.3179
  605SOL    HW1 3969   3.197   8.605   0.130  1.0292 -0.3538 -0.8903
  605SOL    HW2 3970   3.268   8.719   0.060 -0.7416  1.3606  0.0354
  606SOL     OW 3971   6.916   3.121   4.057 -0.0396  0.1873  0.4821
  606SOL    HW1 3972   6.978   3.048   4.059 -1.4425 -1.0992 -0.6614
  606SOL    HW2 3973   6.893   3.130   3.965 -0.8367  1.2671  0.7705
  607SOL     OW 3974   4.789   5.252   4.691 -0.8312 -0.2931  0.2414
  607SOL    HW1 3975   4.855   5.320   4.702 -1.0708 -0.0488  0.1883
  607SOL    HW2 3976   4.710   5.299   4.664 -0.9854 -0.5976  0.1516
  608SOL     OW 3977   8.897   9.050   7.250  0.0239 -0.0682  0.3766
  608SOL    HW1 3978   8.959   8.978   7.236  1.6532  1.6868 -2.2318
  608SOL    HW2 3979   8.952   9.127   7.260 -1.7354  1.3349 -0.3680
  609SOL     OW 3980   6.574   0.131   0.484  0.1427 -0.2682 -0.0867
  609SOL    HW1 3981   6.634   0.183   0.537  1.5379 -3.0800  1.3331
  609SOL    HW2 3982   6.630   0.086   0.420 -0.8683 -0.6664 -0.7293
  610SOL     OW 3983   6.223   3.063   5.410  0.7977  0.4685  0.2549
  610SOL    HW1 3984   6.279   3.019   5.474  1.5708 -0.0246 -0.7330
  610SOL    HW2 3985   6.267   3.146   5.394 -0.5613  1.5989  1.9765
  611SOL     OW 3986   8.548   0.108   9.076 -0.2534  0.1497  0.1683
  611SOL    HW1 3987   8.502   0.026   9.092  1.0123 -0.8564 -1.0614
  611SOL    HW2 3988   8.555   0.149   9.162  0.0628 -1.5708  1.0110
  612SOL     OW 3989   6.209   6.713   2.751 -0.4325  0.1452  0.1321
  612SOL    HW1 3990   6.217   6.804   2.779  0.5140  0.4657 -1.1030
  612SOL    HW2 3991   6.299   6.680   2.751 -0.6071 -0.3588 -0.8040
  613SOL     OW 3992   7.145   2.421   7.909  0.0293 -0.1745  0.4785
  613SOL    HW1 3993   7.133   2.515   7.895 -0.6525 -0.1457  1.1880
  613SOL    HW2 3994   7.065   2.381   7.875  1.6251 -0.8493 -2.8644
  614SOL     OW 3995   1.779   3.355   6.966 -0.3057 -0.3592 -0.3199
  614SOL    HW1 3996   1.868   3.331   6.990 -1.2756 -3.3064  0.7904
  614SOL    HW2 3997   1.729   3.348   7.047 -1.9401 -1.1610 -1.3265
  615SOL     OW 3998   3.340   6.763   4.569  0.6732 -0.9526 -0.1374
  615SOL    HW1 3999   3.327   6.779   4.663  3.8489  0.3234  0.2009
  615SOL    HW2 4000   3.361   6.670   4.564  2.1986 -0.6999  0.7339
  616SOL     OW 4001   6.558   1.871   8.269 -0.2625 -0.2433 -0.4097
  616SOL    HW1 4002   6.561   1.967   8.268  0.5714 -0.2560 -2.0448
  616SOL    HW2 4003   6.519   1.849   8.354  0.2859  1.5170  0.3357
  617SOL     OW 4004   5.061   6.245   8.213  0.0060 -0.1131 -0.1178
  617SOL    HW1 4005   5.145   6.289   8.226 -0.1618  0.4929 -1.0194
  617SOL    HW2 4006   4.999   6.317   8.199 -0.4517 -0.6042 -0.6081
  618SOL     OW 4007   8.146   5.427   1.739  0.8612  0.1567 -0.7317
  618SOL    HW1 4008   8.239   5.403   1.745  0.3245 -1.9631 -0.1482
  618SOL    HW2 4009   8.147   5.521   1.722  3.1402 -0.1509 -2.9007
  619SOL     OW 4010   4.271   6.484   8.330  0.2569  0.0168  0.4134
  619SOL    HW1 4011   4.286   6.532   8.248 -0.0683 -0.0824  0.2924
  619SOL    HW2 4012   4.217   6.410   8.304  0.4598 -0.2175  0.6611
  620SOL     OW 4013   6.486   5.170   9.108 -0.0836  0.5673  0.0308
  620SOL    HW1 4014   6.461   5.206   9.193  1.8760 -2.4505  2.0609
  620SOL    HW2 4015   6.569   5.213   9.087  1.2634 -1.2091  1.4935
  621SOL     OW 4016   3.376   2.810   9.099 -0.2004 -0.1334  0.3837
  621SOL    HW1 4017   3.341   2.732   9.143 -2.1766  0.1097 -0.6174
  621SOL    HW2 4018   3.324   2.882   9.134 -0.8691  0.2367 -1.2293
  622SOL     OW 4019   1.988   3.048   7.777 -0.2267 -0.4618  0.4315
  622SOL    HW1 4020   1.925   3.017   7.712  1.1533 -0.5722 -0.9325
  622SOL    HW2 4021   2.049   2.975   7.788  2.0840  0.9792 -1.5323
  623SOL     OW 4022   2.882   5.193   3.588 -0.3301  0.0332 -0.3385
  623SOL    HW1 4023   2.851   5.275   3.550  0.8245  0.9584  0.6221
  623SOL    HW2 4024   2.814   5.168   3.651  0.2206  1.3679  0.8361
  624SOL     OW 4025   5.375   2.296   3.458 -0.0908  0.0170 -0.2203
  624SOL    HW1 4026   5.400   2.277   3.548 -0.0224 -0.0284 -0.2485
  624SOL    HW2 4027   5.311   2.366   3.465  1.2551  1.3005 -0.2368
  625SOL     OW 4028   8.467   3.071   3.065 -0.4008  0.1191  0.6150
  625SOL    HW1 4029   8.547   3.065   3.117  0.1094  1.2002 -0.0181
  625SOL    HW2 4030   8.492   3.040   2.978 -0.7705  0.1115  0.5087
  626SOL     OW 4031   6.691   7.913   3.514  0.1212  0.4091  0.0385
  626SOL    HW1 4032   6.650   7.920   3.600  0.8702 -0.0811  0.4424
  626SOL    HW2 4033   6.657   7.831   3.478 -0.6273  0.8858 -0.3850
  627SOL     OW 4034   0.820   9.627   8.577  0.4234 -0.1016 -0.0663
  627SOL    HW1 4035   0.794   9.712   8.542 -0.8390 -0.3274  0.2777
  627SOL    HW2 4036   0.801   9.633   8.671 -0.0931 -0.8982 -0.1089
  628SOL     OW 4037   3.773   0.143   0.868  0.1914 -0.0219  0.0508
  628SOL    HW1 4038   3.745   0.195   0.793 -1.2182 -1.1286 -0.2491
  628SOL    HW2 4039   3.841   0.086   0.834 -0.4068 -0.4825 -0.3965
  629SOL     OW 4040   5.540   6.142   8.988  0.1949  0.0072 -0.5142
  629SOL    HW1 4041   5.520   6.236   8.988 -0.0165  0.0042  1.4708
  629SOL    HW2 4042   5.636   6.138   8.988  0.2370  0.1519 -2.6676
  630SOL     OW 4043   1.284   1.214   8.219  0.8676  0.0909 -0.0021
  630SOL    HW1 4044   1.222   1.170   8.278  0.6594  1.5323  0.9022
  630SOL    HW2 4045   1.230   1.255   8.153  0.7043  2.1679  1.3330
  631SOL     OW 4046   9.142   1.761   4.847  0.0464  0.1337 -0.5564
  631SOL    HW1 4047   9.063   1.710   4.827 -0.2107  0.0387  0.6486
  631SOL    HW2 4048   9.207   1.695   4.873  0.1318  0.3195 -0.2985
  632SOL     OW 4049   4.397   2.867   1.120  0.1838  0.0791  1.0329
  632SOL    HW1 4050   4.391   2.781   1.161  1.8988  0.3367  1.9297
  632SOL    HW2 4051   4.471   2.910   1.164 -0.3950  1.8808  0.3703
  633SOL     OW 4052   2.314   9.606   4.446  0.0069  0.0805 -0.0024
  633SOL    HW1 4053   2.397   9.559   4.445  0.2128  0.4232  0.8290
  633SOL    HW2 4054   2.268   9.575   4.524 -0.0387  0.9289  0.3209
  634SOL     OW 4055   1.097   8.964   6.611  0.9257  0.1011 -0.0449
  634SOL    HW1 4056   1.152   8.918   6.674  1.1207  1.2659  0.6791
  634SOL    HW2 4057   1.108   8.916   6.529  1.3873 -0.9062  0.5938
  635SOL     OW 4058   3.422   3.829   8.359 -0.4205  0.7434  0.3084
  635SOL    HW1 4059   3.407   3.739   8.386  1.0364  0.4993  0.3727
  635SOL    HW2 4060   3.351   3.879   8.401 -2.4908 -0.5986 -1.3747
  636SOL     OW 4061   3.756   1.015   3.896  0.0815 -0.0741  0.1214
  636SOL    HW1 4062   3.828   0.961   3.929 -0.2078 -1.0964 -0.8590
  636SOL    HW2 4063   3.798   1.089   3.853  0.4774  0.8082  1.9429
  637SOL     OW 4064   9.381   0.821   1.379 -0.3087 -0.0942  0.7176
  637SOL    HW1 4065   9.465   0.776   1.391  0.0902 -0.1045 -1.5059
  637SOL    HW2 4066   9.326   0.758   1.332 -0.6066  0.8169 -0.2086
  638SOL     OW 4067   2.321   8.165   9.483 -0.2590 -0.3128  0.7279
  638SOL    HW1 4068   2.226   8.151   9.481 -0.6610  1.9324 -1.7031
  638SOL    HW2 4069   2.332   8.246   9.533  0.5267 -1.0818  1.8487
  639SOL     OW 4070   6.777   7.672   5.008  0.2903 -0.4077  0.1469
  639SOL    HW1 4071   6.818   7.721   5.079 -2.1027  0.6885  0.9057
  639SOL    HW2 4072   6.785   7.729   4.931 -0.5665  0.2330  0.5136
  640SOL     OW 4073   6.323   8.391   6.670  0.2658 -0.4802 -0.4186
  640SOL    HW1 4074   6.284   8.475   6.645  0.0838 -0.4762 -0.1269
  640SOL    HW2 4075   6.285   8.372   6.756 -0.3693 -1.2923 -0.8704
  641SOL     OW 4076   0.159   8.622   5.689  0.1877 -0.0222 -0.2526
  641SOL    HW1 4077   0.215   8.582   5.755  1.3187  0.7521 -0.7053
  641SOL    HW2 4078   0.104   8.551   5.658 -0.6532 -0.3349  1.7717
  642SOL     OW 4079   7.221   9.219   2.484  0.1373  0.4233  0.4477
  642SOL    HW1 4080   7.260   9.152   2.427 -2.1211  0.1955 -0.9331
  642SOL    HW2 4081   7.247   9.302   2.445 -2.2384  0.2816 -1.6953
  643SOL     OW 4082   2.585   5.001   2.269  0.1217  0.2958  0.2498
  643SOL    HW1 4083   2.659   4.940   2.275 -0.6161 -0.5997  0.5643
  643SOL    HW2 4084   2.561   5.020   2.359 -1.7523 -1.6341  0.2519
  644SOL     OW 4085   1.814   4.801   8.362  0.0283  0.0568  1.0400
  644SOL    HW1 4086   1.818   4.733   8.294  0.7392  1.8222 -0.7746
  644SOL    HW2 4087   1.882   4.774   8.424  0.1501 -1.0274  0.4778
  645SOL     OW 4088   7.128   5.185   9.322 -0.1147 -0.1675 -0.1009
  645SOL    HW1 4089   7.096   5.098   9.345  0.6327 -0.4663 -0.1605
  645SOL    HW2 4090   7.096   5.199   9.233 -0.8212 -0.0893  0.1601
  646SOL     OW 4091   2.736   1.903   5.059  0.4900 -0.3213 -0.5814
  646SOL    HW1 4092   2.750   1.814   5.093  3.0912  0.3521  0.3849
  646SOL    HW2 4093   2.741   1.893   4.964  0.7546 -1.2198 -0.4908
  647SOL     OW 4094   9.129   4.285   3.543  0.4677 -0.0708 -0.3375
  647SOL    HW1 4095   9.161   4.209   3.495 -0.5222 -0.0388 -1.0813
  647SOL    HW2 4096   9.050   4.254   3.587  0.6929  0.2293  0.2838
  648SOL     OW 4097   6.346   2.085   2.415  0.0414 -0.5189 -0.5198
  648SOL    HW1 4098   6.429   2.077   2.462 -0.3764  0.8943  0.5309
  648SOL    HW2 4099   6.354   2.166   2.364 -1.6024  1.2093  1.7188
  649SOL     OW 4100   9.328   5.620   1.488 -0.4025 -1.1868 -0.2825
  649SOL    HW1 4101   9.403   5.674   1.513  0.5940 -2.3834 -0.6265
  649SOL    HW2 4102   9.362   5.531   1.485 -2.1088 -1.9177  0.6765
  650SOL     OW 4103   4.246   9.209   0.590 -0.6539  0.0821 -0.2618
  650SOL    HW1 4104   4.311   9.222   0.520 -2.0107 -0.6344 -1.7114
  650SOL    HW2 4105   4.237   9.295   0.630 -0.7371  0.8098 -1.7851
  651SOL     OW 4106   6.996   1.956   6.461 -0.6223  0.2465 -0.1505
  651SOL    HW1 4107   6.936   1.888   6.491 -0.4533  0.3435  0.4225
  651SOL    HW2 4108   7.083   1.916   6.467 -0.5963  0.2168 -0.6642
  652SOL     OW 4109   5.189   6.313   2.822 -0.3157 -0.0861 -0.1522
  652SOL    HW1 4110   5.227   6.228   2.801 -0.5368 -0.1069 -0.4788
  652SOL    HW2 4111   5.225   6.373   2.757  0.0486  0.1302  0.2397
  653SOL     OW 4112   8.683   6.528   9.210 -0.8654  0.0325 -0.0836
  653SOL    HW1 4113   8.591   6.554   9.220 -0.5038  1.3927 -0.0971
  653SOL    HW2 4114   8.721   6.542   9.297 -0.4975  0.2431 -0.2764
  654SOL     OW 4115   3.209   3.847   1.492 -0.0971  0.1719  0.1294
  654SOL    HW1 4116   3.286   3.808   1.534 -0.1329 -2.0317 -1.6792
  654SOL    HW2 4117   3.221   3.831   1.399 -3.2475 -1.3383 -0.1501
  655SOL     OW 4118   9.312   4.252   7.836  0.1983  0.6792 -0.0518
  655SOL    HW1 4119   9.288   4.316   7.769  0.1022  1.0535  0.3336
  655SOL    HW2 4120   9.242   4.257   7.901  0.2070  0.2034 -0.0041
  656SOL     OW 4121   3.116   0.683   8.954 -0.2297 -0.4441 -0.1264
  656SOL    HW1 4122   3.192   0.700   8.898  0.2735 -0.0361  0.6609
  656SOL    HW2 4123   3.074   0.606   8.915  1.2735 -1.4299  0.1036
  657SOL     OW 4124   0.660   2.234   5.212 -0.0609 -0.2354  0.2801
  657SOL    HW1 4125   0.652   2.199   5.301 -1.4407 -0.7767 -0.0318
  657SOL    HW2 4126   0.620   2.321   5.217  2.7881  1.1681  0.9016
  658SOL     OW 4127   6.613   4.541   4.337  0.3308 -0.8789 -0.5175
  658SOL    HW1 4128   6.611   4.586   4.421 -0.2193 -0.6429 -0.6507
  658SOL    HW2 4129   6.590   4.451   4.357  0.6156 -0.9160 -0.3586
  659SOL     OW 4130   5.891   4.733   1.742 -0.4259 -0.1501 -0.0237
  659SOL    HW1 4131   5.917   4.654   1.789 -2.0876 -1.7239 -1.5990
  659SOL    HW2 4132   5.838   4.782   1.806 -1.3933 -1.5118  0.2733
  660SOL     OW 4133   1.364   6.630   6.432  0.3026  0.4104 -0.2048
  660SOL    HW1 4134   1.420   6.703   6.457  1.7471  0.3827 -2.9947
  660SOL    HW2 4135   1.425   6.560   6.410 -0.8874 -0.2806 -1.4453
  661SOL     OW 4136   7.343   6.646   4.130 -0.9852  0.0040 -0.2859
  661SOL    HW1 4137   7.410   6.591   4.171 -1.8693 -0.1360  1.0187
  661SOL    HW2 4138   7.328   6.717   4.193 -2.9736 -0.6642  0.0566
  662SOL     OW 4139   7.570   3.406   1.651 -0.2381 -0.1854 -0.1018
  662SOL    HW1 4140   7.514   3.481   1.670  1.4910  0.8906  1.0692
  662SOL    HW2 4141   7.621   3.433   1.574  1.4134  0.4942  1.1770
  663SOL     OW 4142   9.158   4.388   5.224 -0.5440  0.0367 -0.2194
  663SOL    HW1 4143   9.177   4.469   5.178 -1.6617  0.3674 -0.1312
  663SOL    HW2 4144   9.224   4.382   5.293 -0.2679  0.7016 -0.4246
  664SOL     OW 4145   1.558   7.336   7.318  0.2028 -0.0196 -0.0801
  664SOL    HW1 4146   1.605   7.318   7.399  2.4864 -2.0464 -1.6901
  664SOL    HW2 4147   1.469   7.356   7.345  1.0609  0.1295  2.9389
  665SOL     OW 4148   4.448   8.422   3.294 -0.2138 -0.4004  0.9137
  665SOL    HW1 4149   4.398   8.478   3.353 -0.3170 -0.2099  0.6462
  665SOL    HW2 4150   4.417   8.333   3.314 -0.8228 -0.2618  0.5883
  666SOL     OW 4151   0.084   5.758   8.921 -0.6724 -0.1412 -0.5821
  666SOL    HW1 4152   0.164   5.804   8.895 -0.5269 -0.8575 -1.4448
  666SOL    HW2 4153   0.044   5.815   8.987  1.0087 -0.2089  0.5474
  667SOL     OW 4154   8.562   3.478   9.213  0.4640 -0.0075  0.4920
  667SOL    HW1 4155   8.568   3.567   9.178 -1.4350  0.3712  1.0366
  667SOL    HW2 4156   8.529   3.489   9.302 -0.2639 -1.2849  0.4035
  668SOL     OW 4157   3.369   0.350   5.876 -0.3484 -0.7232 -0.1317
  668SOL    HW1 4158   3.330   0.263   5.883 -0.4195 -0.8629 -1.7752
  668SOL    HW2 4159   3.448   0.337   5.823  0.2866  0.0383  0.6023
  669SOL     OW 4160   4.744   7.750   8.661 -0.1033  0.2598 -0.0270
  669SOL    HW1 4161   4.739   7.803   8.741  2.0106  0.4711  0.0097
  669SOL    HW2 4162   4.726   7.812   8.590  2.1765  1.0567  0.0254
  670SOL     OW 4163   0.351   7.736   9.611 -0.4920 -0.0336  0.2276
  670SOL    HW1 4164   0.272   7.774   9.646 -0.7026 -2.3984  2.6669
  670SOL    HW2 4165   0.324   7.698   9.527 -1.8657 -0.4430  0.8262
  671SOL     OW 4166   6.653   3.790   1.836 -0.2285  0.1980 -0.5301
  671SOL    HW1 4167   6.734   3.819   1.877 -1.4789  1.4267  1.2430
  671SOL    HW2 4168   6.633   3.857   1.771 -0.8470  1.0419  0.4919
  672SOL     OW 4169   0.265   2.952   2.286 -0.6599  0.4221  0.6400
  672SOL    HW1 4170   0.329   3.018   2.315  1.1454 -1.2067  0.5243
  672SOL    HW2 4171   0.233   2.913   2.368 -0.5271  0.3534  0.6599
  673SOL     OW 4172   8.725   1.974   1.343  0.4705 -0.0131 -0.0671
  673SOL    HW1 4173   8.765   1.902   1.294 -1.0860 -1.7164  1.0568
  673SOL    HW2 4174   8.790   1.996   1.410  2.1913  1.6749 -2.1604
  674SOL     OW 4175   1.689   4.715   7.262 -1.0553 -0.5276  0.2846
  674SOL    HW1 4176   1.774   4.722   7.306 -1.3494 -2.5905  1.3101
  674SOL    HW2 4177   1.667   4.805   7.239 -0.0087  0.4792  2.7575
  675SOL     OW 4178   7.739   0.638   8.287 -0.6524  0.4870 -0.2585
  675SOL    HW1 4179   7.819   0.596   8.318 -0.2953 -0.7352 -2.6323
  675SOL    HW2 4180   7.763   0.731   8.278  0.2385  0.2787 -0.1120
  676SOL     OW 4181   8.520   9.260   5.254 -0.3896 -0.2084 -0.4505
  676SOL    HW1 4182   8.472   9.177   5.245  1.4425 -1.3869 -0.0369
  676SOL    HW2 4183   8.575   9.247   5.331  0.3035  1.2203 -0.6730
  677SOL     OW 4184   2.327   9.398   0.595  0.1732  0.2685 -0.1240
  677SOL    HW1 4185   2.334   9.436   0.507 -0.5794  0.4964 -0.0906
  677SOL    HW2 4186   2.233   9.393   0.611  0.1741 -2.2309 -0.4143
  678SOL     OW 4187   8.296   7.818   6.941  0.1003  0.1005 -0.8015
  678SOL    HW1 4188   8.309   7.910   6.920  0.6117  0.3331  0.4645
  678SOL    HW2 4189   8.365   7.773   6.892 -0.5603  0.2880 -1.9585
  679SOL     OW 4190   1.053   0.370   8.166  0.0518  0.1788 -0.8928
  679SOL    HW1 4191   1.129   0.395   8.218 -0.5044 -3.1167  1.8684
  679SOL    HW2 4192   0.984   0.430   8.193  0.4676  0.1680  0.2224
  680SOL     OW 4193   4.984   1.151   0.590  0.1397  0.1040  0.5078
  680SOL    HW1 4194   4.892   1.175   0.583  0.0526 -0.4362 -0.3979
  680SOL    HW2 4195   5.027   1.230   0.623 -0.2114  1.3995 -1.8875
  681SOL     OW 4196   3.019   7.902   9.498  0.3507  0.4602 -0.0587
  681SOL    HW1 4197   3.069   7.842   9.442  0.6114  1.1204 -0.5401
  681SOL    HW2 4198   3.018   7.984   9.450  2.2324  1.6235  1.7459
  682SOL     OW 4199   0.480   7.691   5.952 -0.0169 -0.0283  0.7000
  682SOL    HW1 4200   0.433   7.774   5.961 -1.6917 -0.8759  0.3046
  682SOL    HW2 4201   0.449   7.638   6.026 -0.6587 -1.0337 -0.2548
  683SOL     OW 4202   1.922   6.164   4.815 -0.0783  0.8544 -0.1802
  683SOL    HW1 4203   1.940   6.242   4.764 -2.4342  1.8150  0.3573
  683SOL    HW2 4204   1.848   6.122   4.771  0.0122 -0.1224  0.5538
  684SOL     OW 4205   8.874   0.565   4.252  0.7042  0.2023  0.0502
  684SOL    HW1 4206   8.806   0.559   4.319 -0.0323  0.2384 -0.6756
  684SOL    HW2 4207   8.829   0.600   4.175  0.7604 -2.8118 -1.4891
  685SOL     OW 4208   6.966   0.980   4.695  0.2588  0.1324  0.0656
  685SOL    HW1 4209   7.051   1.005   4.731  0.4726 -1.6148  0.8814
  685SOL    HW2 4210   6.915   0.952   4.771 -0.8605  0.6223 -0.4848
  686SOL     OW 4211   6.640   1.594   8.922 -0.1049 -0.4955  0.2155
  686SOL    HW1 4212   6.555   1.602   8.965  0.1876 -1.0524  0.9221
  686SOL    HW2 4213   6.682   1.520   8.965 -0.3008 -1.9258 -1.8908
  687SOL     OW 4214   3.069   7.838   4.139 -0.1620  0.1606  0.4512
  687SOL    HW1 4215   2.990   7.850   4.192 -0.0099  0.5521  0.5922
  687SOL    HW2 4216   3.055   7.755   4.093 -0.1407 -0.3780  1.3898
  688SOL     OW 4217   0.983   7.502   6.225  0.1150 -0.2725  0.0514
  688SOL    HW1 4218   1.078   7.506   6.236 -0.0038 -0.1859  1.1543
  688SOL    HW2 4219   0.949   7.566   6.288 -0.6758 -0.3226 -0.3168
  689SOL     OW 4220   3.756   9.068   8.104 -0.1763  0.0894 -0.0210
  689SOL    HW1 4221   3.688   9.094   8.041  0.0125  1.5368  0.3292
  689SOL    HW2 4222   3.716   8.998   8.155 -0.3927 -0.9873 -1.6184
  690SOL     OW 4223   9.014   6.249   4.980  0.2530 -0.4162 -0.3843
  690SOL    HW1 4224   8.919   6.253   4.986  0.3126  0.7349 -0.0244
  690SOL    HW2 4225   9.044   6.337   5.000  1.4224 -0.8661 -0.0192
  691SOL     OW 4226   8.625   3.997   8.416 -0.0146  0.2094 -0.6500
  691SOL    HW1 4227   8.693   4.034   8.472 -0.9445 -0.3084  0.9022
  691SOL    HW2 4228   8.546   4.047   8.438 -0.9954 -1.7293  0.5426
  692SOL     OW 4229   0.118   7.617   7.855  0.2780 -0.1259  0.0686
  692SOL    HW1 4230   0.204   7.656   7.867  0.8368 -1.1762 -0.3905
  692SOL    HW2 4231   0.064   7.688   7.819  0.6265  0.8482  1.4129
  693SOL     OW 4232   0.141   1.754   6.383  0.8737  0.2299 -0.4070
  693SOL    HW1 4233   0.207   1.741   6.315  1.6170 -1.7282  0.5936
  693SOL    HW2 4234   0.191   1.750   6.465 -0.1128  1.6527  0.3112
  694SOL     OW 4235   9.515   2.282   3.857 -0.1815  0.0089  0.4387
  694SOL    HW1 4236   9.600   2.315   3.885  0.3649  0.8318 -1.9647
  694SOL    HW2 4237   9.531   2.190   3.836  0.2340  0.2469 -0.3356
  695SOL     OW 4238   8.517   7.186   7.080 -0.1153  0.4851 -0.0772
  695SOL    HW1 4239   8.592   7.218   7.132  0.4778  0.3495 -0.8296
  695SOL    HW2 4240   8.556   7.158   6.997 -1.1508  1.5031 -0.9418
  696SOL     OW 4241   1.856   3.844   7.303  0.7838  0.2364  0.4092
  696SOL    HW1 4242   1.901   3.805   7.228  0.1820 -1.4320  0.8808
  696SOL    HW2 4243   1.901   3.807   7.379  0.3832  0.7037  0.8776
  697SOL     OW 4244   1.907   7.187   6.659  0.8567  0.5624  0.2769
  697SOL    HW1 4245   1.971   7.116   6.659 -1.2105 -1.3892  0.5163
  697SOL    HW2 4246   1.956   7.262   6.694  3.4521 -0.3376 -1.1198
  698SOL     OW 4247   7.110   5.592   2.799  0.8541 -0.0217  0.1572
  698SOL    HW1 4248   7.165   5.598   2.721  1.2429 -2.7083  0.1252
  698SOL    HW2 4249   7.172   5.597   2.872  0.8835 -0.7211  0.1859
  699SOL     OW 4250   1.705   0.736   6.451  0.2244  0.2463 -0.2274
  699SOL    HW1 4251   1.776   0.707   6.395  0.4984  0.2677  0.1081
  699SOL    HW2 4252   1.635   0.762   6.390  0.6273  0.5535 -0.5639
  700SOL     OW 4253   7.553   6.266   6.037  0.0113  0.1434 -0.0831
  700SOL    HW1 4254   7.553   6.210   5.959 -0.6656  1.1462 -0.8180
  700SOL    HW2 4255   7.491   6.336   6.016  1.8219  1.9275  0.2539
  701SOL     OW 4256   5.607   3.822   6.734  0.1754  0.1048 -0.0070
  701SOL    HW1 4257   5.604   3.820   6.829 -0.6251 -0.1792 -0.0283
  701SOL    HW2 4258   5.605   3.915   6.712 -0.4190  0.1511  0.2372
  702SOL     OW 4259   7.589   3.031   7.846  0.4991 -0.3373  0.1945
  702SOL    HW1 4260   7.678   3.061   7.826  0.2041 -0.6761 -1.7616
  702SOL    HW2 4261   7.537   3.060   7.772 -1.2417  0.6393  1.7149
  703SOL     OW 4262   8.554   3.260   0.518 -0.0238  0.1075 -0.0045
  703SOL    HW1 4263   8.595   3.199   0.457  0.7968  0.3445  0.3042
  703SOL    HW2 4264   8.541   3.209   0.598 -1.3793 -0.2937 -0.4457
  704SOL     OW 4265   0.404   7.967   9.078  0.0494  0.1823 -0.2732
  704SOL    HW1 4266   0.335   8.008   9.026  0.5118  1.4231  0.0466
  704SOL    HW2 4267   0.393   8.004   9.166  1.6027  1.0399 -0.4022
  705SOL     OW 4268   2.965   0.812   3.295  0.6188  0.0002 -0.5433
  705SOL    HW1 4269   2.886   0.759   3.300  0.9526 -0.7925 -2.5530
  705SOL    HW2 4270   2.983   0.838   3.385 -0.6956 -1.6248  0.2364
  706SOL     OW 4271   4.750   5.560   5.432  0.0155  0.2954  0.0083
  706SOL    HW1 4272   4.670   5.553   5.485  1.7593 -0.2082  2.7700
  706SOL    HW2 4273   4.726   5.520   5.348 -2.2494 -1.0810  1.2086
  707SOL     OW 4274   5.729   6.853   8.590  0.3323  1.1389  0.2314
  707SOL    HW1 4275   5.635   6.847   8.573  0.5452 -0.9291 -0.5784
  707SOL    HW2 4276   5.735   6.862   8.685 -0.6823  4.0202  0.1308
  708SOL     OW 4277   8.978   7.432   2.827  0.3240  0.0897  0.3307
  708SOL    HW1 4278   9.070   7.454   2.842  0.7109 -0.2768 -1.3132
  708SOL    HW2 4279   8.977   7.391   2.741 -1.1449 -1.4496  1.0305
  709SOL     OW 4280   1.869   0.308   0.549  0.2664  0.7388  0.0177
  709SOL    HW1 4281   1.913   0.246   0.491  1.2433  0.2810  1.2049
  709SOL    HW2 4282   1.882   0.393   0.507  2.9024  0.7164  0.6287
  710SOL     OW 4283   9.076   8.764   1.979  0.1901  0.4837  0.2004
  710SOL    HW1 4284   9.067   8.826   1.907 -0.1710  1.2279  0.8608
  710SOL    HW2 4285   9.072   8.678   1.938  0.5476  0.8917 -0.7251
  711SOL     OW 4286   4.136   6.683   5.398  0.1564  0.3540 -0.4565
  711SOL    HW1 4287   4.210   6.744   5.395  0.1303  0.3808 -0.5597
  711SOL    HW2 4288   4.155   6.619   5.329  0.0434  0.4078 -0.5375
  712SOL     OW 4289   6.839   6.489   8.891  0.2202  0.3071  0.6678
  712SOL    HW1 4290   6.918   6.446   8.858 -0.3755 -1.2725  1.2197
  712SOL    HW2 4291   6.768   6.432   8.865 -0.6369  1.0637  1.2749
  713SOL     OW 4292   9.078   7.467   4.144  0.1518  0.5015  0.0945
  713SOL    HW1 4293   9.053   7.526   4.215 -1.2998  1.7786 -1.4240
  713SOL    HW2 4294   9.152   7.510   4.102 -0.2823  0.7536 -0.4131
  714SOL     OW 4295   4.491   7.676   0.621  0.3012 -0.2397  0.3625
  714SOL    HW1 4296   4.463   7.612   0.556  0.4321 -0.3837  0.4468
  714SOL    HW2 4297   4.586   7.668   0.622  0.3508  0.2921  0.0293
  715SOL     OW 4298   8.766   0.541   8.432 -0.2704 -0.0539  0.0952
  715SOL    HW1 4299   8.820   0.489   8.373 -0.4179 -1.2519  0.9695
  715SOL    HW2 4300   8.690   0.566   8.380  1.2827  2.0909 -1.3056
  716SOL     OW 4301   1.786   3.310   0.144  0.7165 -0.3450  0.2688
  716SOL    HW1 4302   1.772   3.236   0.085 -0.2988 -0.0609  0.1302
  716SOL    HW2 4303   1.853   3.280   0.204 -2.1035 -2.8087  2.5150
  717SOL     OW 4304   2.488   1.418   5.288 -0.0706 -0.0351  0.1924
  717SOL    HW1 4305   2.523   1.392   5.373  2.4186 -0.1264 -0.7674
  717SOL    HW2 4306   2.491   1.514   5.289  1.3331 -0.0564 -0.2786
  718SOL     OW 4307   6.634   8.371   1.952 -0.0808  0.2504  0.1130
  718SOL    HW1 4308   6.649   8.452   1.903 -1.8815  0.5423 -0.0068
  718SOL    HW2 4309   6.722   8.333   1.962  0.5161  0.8815 -2.1122
  719SOL     OW 4310   1.252   6.216   0.057  0.0051 -0.0596  0.8679
  719SOL    HW1 4311   1.160   6.199   0.041  0.0862  0.4922 -0.3437
  719SOL    HW2 4312   1.286   6.135   0.095 -0.1813 -1.7703 -2.2168
  720SOL     OW 4313   4.245   0.182   0.289 -0.2320 -0.6548  0.1546
  720SOL    HW1 4314   4.170   0.219   0.242  0.5449  0.6650 -0.0797
  720SOL    HW2 4315   4.293   0.133   0.222 -0.6514 -1.1656  0.2179
  721SOL     OW 4316   5.615   0.640   8.231  0.1624 -0.1611  0.8756
  721SOL    HW1 4317   5.550   0.622   8.163 -0.4743 -0.3497  1.5235
  721SOL    HW2 4318   5.578   0.601   8.311  1.4313 -0.9587  1.1022
  722SOL     OW 4319   0.041   5.011   9.633  0.2331  0.7603  0.3100
  722SOL    HW1 4320  -0.046   4.978   9.611 -0.2060  0.3391  2.4362
  722SOL    HW2 4321   0.094   4.991   9.556 -1.2984  0.0884 -0.6300
  723SOL     OW 4322   4.499   7.030   4.873  0.1237  0.0548 -0.0864
  723SOL    HW1 4323   4.448   6.990   4.943  1.8126 -1.4745  0.3216
  723SOL    HW2 4324   4.440   7.029   4.797 -0.8444 -0.6096  0.6456
  724SOL     OW 4325   3.436   2.125   2.215  0.2128 -0.0849 -0.1542
  724SOL    HW1 4326   3.506   2.133   2.280  0.6055 -2.9616 -0.1147
  724SOL    HW2 4327   3.477   2.149   2.132  0.6143  0.3609  0.1644
  725SOL     OW 4328   8.336   2.054   7.320 -0.0030  0.0334 -0.2913
  725SOL    HW1 4329   8.328   1.994   7.395 -0.8086  1.3131  0.6981
  725SOL    HW2 4330   8.253   2.045   7.273  0.2269 -0.2661 -0.6403
  726SOL     OW 4331   2.266   4.036   3.979  0.0337  0.1106  0.8273
  726SOL    HW1 4332   2.195   3.976   3.957 -1.8922  2.6367 -0.4292
  726SOL    HW2 4333   2.323   4.035   3.903 -0.7497  0.8311  0.2079
  727SOL     OW 4334   9.082   5.261   1.414  0.0086  0.5586 -0.4862
  727SOL    HW1 4335   9.029   5.183   1.399 -1.0395  1.4746 -1.6966
  727SOL    HW2 4336   9.173   5.230   1.408 -0.3652 -0.8092  0.4710
  728SOL     OW 4337   1.898   4.249   9.491 -0.3784  0.0867 -0.7158
  728SOL    HW1 4338   1.813   4.274   9.454 -1.4212 -2.0871  0.0293
  728SOL    HW2 4339   1.879   4.229   9.583  0.7877 -1.1386 -0.7179
  729SOL     OW 4340   0.610   0.834   7.602 -0.1343  0.1513  0.1784
  729SOL    HW1 4341   0.586   0.823   7.509 -1.1909  0.4803  0.3968
  729SOL    HW2 4342   0.554   0.906   7.632 -0.6104 -0.6847  1.3471
  730SOL     OW 4343   1.449   3.340   3.029 -0.1291  0.6760  0.7695
  730SOL    HW1 4344   1.468   3.289   2.950 -0.1714 -2.5192  2.6783
  730SOL    HW2 4345   1.356   3.360   3.023 -0.3649 -0.4492  0.4872
  731SOL     OW 4346   0.886   3.179   2.429 -0.0721  0.6216 -0.3868
  731SOL    HW1 4347   0.823   3.108   2.420 -1.6627  1.7314  1.3753
  731SOL    HW2 4348   0.898   3.189   2.524  3.0886  0.2037 -0.6411
  732SOL     OW 4349   3.028   7.793   4.689  0.2763 -0.1160 -0.0417
  732SOL    HW1 4350   3.115   7.772   4.722  0.7148 -0.0968 -1.1498
  732SOL    HW2 4351   3.013   7.884   4.715 -0.2414 -0.6861  1.8442
  733SOL     OW 4352   9.572   0.494   3.699 -0.2094 -0.0419 -0.4182
  733SOL    HW1 4353   9.555   0.585   3.724  1.1980 -0.4739  2.5818
  733SOL    HW2 4354   9.522   0.442   3.762  0.7805 -1.3028 -0.6219
  734SOL     OW 4355   7.984   5.115   4.641 -0.2665 -0.4121  0.0106
  734SOL    HW1 4356   7.966   5.208   4.654 -1.3234 -0.5005 -0.7083
  734SOL    HW2 4357   7.950   5.072   4.719  0.1832 -0.2042  0.3241
  735SOL     OW 4358   3.667   2.220   2.860 -0.1363 -0.4771  0.1730
  735SOL    HW1 4359   3.727   2.243   2.789 -1.0141 -0.5463 -0.6125
  735SOL    HW2 4360   3.672   2.294   2.920 -1.0989  0.7016 -1.1161
  736SOL     OW 4361   8.559   5.285   4.792  0.0301  0.6449 -0.5037
  736SOL    HW1 4362   8.485   5.314   4.846  0.4143  1.5679 -0.4594
  736SOL    HW2 4363   8.519   5.247   4.714 -0.4998  0.9582 -0.3887
  737SOL     OW 4364   8.892   0.769   4.958 -0.4827  0.2766 -0.9541
  737SOL    HW1 4365   8.880   0.804   4.870 -0.0004  0.5411 -0.9183
  737SOL    HW2 4366   8.820   0.806   5.009 -0.3868  0.6511 -1.0864
  738SOL     OW 4367   1.129   1.838   8.387  0.3109  0.0058  0.3915
  738SOL    HW1 4368   1.089   1.789   8.314  0.9147  1.4284 -0.9475
  738SOL    HW2 4369   1.183   1.773   8.432 -0.2824 -0.9715 -0.2518
  739SOL     OW 4370   4.048   5.334   4.452 -0.4068 -0.0388  0.6891
  739SOL    HW1 4371   4.080   5.348   4.363 -1.3152  0.3729  0.4107
  739SOL    HW2 4372   4.055   5.239   4.466 -0.2064 -0.0963  0.2010
  740SOL     OW 4373   1.031   1.866   6.420 -0.1793 -0.9282  0.2022
  740SOL    HW1 4374   1.082   1.947   6.420 -1.7742  0.1494 -1.2975
  740SOL    HW2 4375   1.025   1.841   6.513  0.7959  0.3341  0.6353
  741SOL     OW 4376   3.938   0.477   0.843 -0.4203 -0.3504  0.8752
  741SOL    HW1 4377   3.956   0.480   0.937 -0.9913  1.9539  0.9633
  741SOL    HW2 4378   3.851   0.518   0.834 -0.3373 -0.4593 -0.6615
  742SOL     OW 4379   2.213   9.299   7.280  0.0545  0.1107  0.1151
  742SOL    HW1 4380   2.155   9.342   7.218 -1.2622  0.3844  1.4926
  742SOL    HW2 4381   2.165   9.222   7.310  1.5198 -1.2041 -0.7122
  743SOL     OW 4382   9.269   6.505   8.732  0.1653 -0.2132 -0.6381
  743SOL    HW1 4383   9.348   6.451   8.730  0.9127  0.7633  0.9461
  743SOL    HW2 4384   9.258   6.535   8.642  1.4275 -0.6086 -0.9437
  744SOL     OW 4385   7.405   2.572   5.449  0.3275 -0.0409  0.5540
  744SOL    HW1 4386   7.490   2.591   5.410  1.0750  1.4505  2.7184
  744SOL    HW2 4387   7.363   2.512   5.387  1.6814  1.5500 -2.1119
  745SOL     OW 4388   2.469   7.944   4.795 -0.3237  0.0580  0.2935
  745SOL    HW1 4389   2.507   7.875   4.741 -0.0012  0.6371 -0.2370
  745SOL    HW2 4390   2.543   7.978   4.846 -0.6667 -0.6263  1.2662
  746SOL     OW 4391   5.121   5.197   6.433 -0.3542  0.0446 -0.8691
  746SOL    HW1 4392   5.214   5.216   6.446 -0.4920  0.1786  0.0106
  746SOL    HW2 4393   5.076   5.280   6.453 -0.7674 -0.4432  0.3647
  747SOL     OW 4394   5.486   0.868   0.204 -0.9602 -0.4116 -0.6002
  747SOL    HW1 4395   5.438   0.806   0.259 -0.8445 -2.1410 -2.3349
  747SOL    HW2 4396   5.419   0.904   0.145 -0.7648  0.0325 -0.5542
  748SOL     OW 4397   1.714   3.966   1.143  0.5937 -0.5214  0.1794
  748SOL    HW1 4398   1.806   3.967   1.115  0.1322 -0.0041 -1.4164
  748SOL    HW2 4399   1.696   3.875   1.164  0.9805 -0.9745 -1.3195
  749SOL     OW 4400   1.048   9.580   9.420 -0.2992  0.0742 -0.6097
  749SOL    HW1 4401   1.122   9.632   9.449 -0.5759 -0.8087  1.9626
  749SOL    HW2 4402   0.993   9.641   9.370  1.7515  0.9041 -1.9461
  750SOL     OW 4403   5.737   5.627   6.093 -0.4262 -0.3801  0.6842
  750SOL    HW1 4404   5.651   5.628   6.136 -0.7446 -0.5084  0.0641
  750SOL    HW2 4405   5.761   5.720   6.087 -1.2945 -0.2086 -0.6264
  751SOL     OW 4406   9.435   0.390   8.831  0.0602  0.2620 -0.6476
  751SOL    HW1 4407   9.367   0.364   8.894  1.8002  1.9160  2.1295
  751SOL    HW2 4408   9.446   0.484   8.844  2.3001  0.1961 -1.5675
  752SOL     OW 4409   8.019   5.139   7.027 -0.5607  0.2286 -0.6768
  752SOL    HW1 4410   7.934   5.113   6.993 -1.1609  1.2683 -0.0217
  752SOL    HW2 4411   8.036   5.080   7.099 -1.8072  1.4195  0.6609
  753SOL     OW 4412   1.077   1.274   1.085  0.3864 -0.1153 -0.7941
  753SOL    HW1 4413   0.984   1.265   1.103  0.6797  0.7224  1.5260
  753SOL    HW2 4414   1.089   1.365   1.059  0.6805  0.0839  0.0037
  754SOL     OW 4415   5.241   3.848   3.465  0.2927  0.2460 -0.1906
  754SOL    HW1 4416   5.307   3.805   3.518 -1.6463 -0.4939  1.7575
  754SOL    HW2 4417   5.235   3.936   3.500  1.3524  0.8553 -1.4601
  755SOL     OW 4418   0.011   3.399   7.559 -0.6541  0.2997 -0.1571
  755SOL    HW1 4419   0.092   3.450   7.555  0.5339 -1.5349 -0.9589
  755SOL    HW2 4420   0.017   3.353   7.643 -0.7551  0.0293 -0.2951
  756SOL     OW 4421   2.712   5.367   3.067 -0.1169  0.1732 -0.3489
  756SOL    HW1 4422   2.628   5.326   3.049 -0.4291 -0.0911  1.4683
  756SOL    HW2 4423   2.717   5.441   3.007 -0.8058 -0.8682 -1.7311
  757SOL     OW 4424   6.921   3.855   2.303 -0.3452 -0.1823 -0.0531
  757SOL    HW1 4425   6.938   3.761   2.301  1.7619  0.1370  0.9078
  757SOL    HW2 4426   6.826   3.861   2.312 -0.4721 -2.2310  0.6214
  758SOL     OW 4427   0.718   4.815   2.653  0.0022 -0.0062  0.3534
  758SOL    HW1 4428   0.636   4.848   2.619  0.1322  1.0618  1.0242
  758SOL    HW2 4429   0.740   4.874   2.726  1.7328  0.2034 -0.2831
  759SOL     OW 4430   7.089   5.501   1.085 -0.2451  0.0124 -0.4315
  759SOL    HW1 4431   7.128   5.516   1.171  0.5872 -0.1548 -0.7720
  759SOL    HW2 4432   7.047   5.415   1.091  0.4823 -0.3432 -0.4282
  760SOL     OW 4433   0.695   3.165   6.908  0.1693  0.0460  0.2601
  760SOL    HW1 4434   0.739   3.081   6.916  0.2263  0.1906  1.6911
  760SOL    HW2 4435   0.713   3.210   6.990 -0.8404  0.9797  0.0019
  761SOL     OW 4436   2.555   0.854   5.653  0.5483 -0.1363 -0.0415
  761SOL    HW1 4437   2.545   0.791   5.581 -0.7445 -0.5441  0.4734
  761SOL    HW2 4438   2.641   0.835   5.690  0.3837 -1.2598 -0.2159
  762SOL     OW 4439   1.087   2.148   4.152  0.2095 -0.7771 -0.0556
  762SOL    HW1 4440   1.164   2.117   4.199  0.2462 -1.6217 -0.6583
  762SOL    HW2 4441   1.098   2.115   4.063 -0.6433 -0.5568 -0.2518
  763SOL     OW 4442   2.855   7.838   8.103  0.0450 -0.3191 -0.3087
  763SOL    HW1 4443   2.950   7.830   8.092  0.1058 -0.8680  0.4960
  763SOL    HW2 4444   2.832   7.921   8.062  1.3610  1.4844  2.3160
  764SOL     OW 4445   3.712   2.758   3.986 -0.2708  0.0592 -0.0364
  764SOL    HW1 4446   3.760   2.829   3.944  1.7648 -0.4626  1.2992
  764SOL    HW2 4447   3.769   2.727   4.056 -1.2724 -2.5933 -0.2610
  765SOL     OW 4448   0.903   5.562   0.896  0.5003 -0.1904 -0.0823
  765SOL    HW1 4449   0.835   5.617   0.936  2.1875  1.9361  0.0701
  765SOL    HW2 4450   0.919   5.493   0.960  0.0040  0.5582  0.8814
  766SOL     OW 4451   0.839   7.003   6.213  0.1165  0.1805 -0.3620
  766SOL    HW1 4452   0.881   7.029   6.131  0.9178 -0.8308 -0.2919
  766SOL    HW2 4453   0.909   7.008   6.278 -0.2422 -0.0731  0.0470
  767SOL     OW 4454   5.923   0.980   7.929  0.2593 -0.1355  0.1537
  767SOL    HW1 4455   5.837   1.022   7.924  0.9452  1.1880 -1.6143
  767SOL    HW2 4456   5.918   0.907   7.868 -0.0407 -0.9959  1.1675
  768SOL     OW 4457   8.643   5.120   2.864 -0.0040  0.2169 -0.3790
  768SOL    HW1 4458   8.652   5.045   2.805  1.1553  0.1103 -0.0880
  768SOL    HW2 4459   8.659   5.196   2.809  0.8905  0.1269 -0.2617
  769SOL     OW 4460   5.173   0.788   9.057 -0.0106 -0.5338  0.6667
  769SOL    HW1 4461   5.241   0.850   9.082 -1.6201  1.0929  1.2641
  769SOL    HW2 4462   5.180   0.718   9.122  0.6909 -0.0840  1.0900
  770SOL     OW 4463   5.460   4.650   2.454  0.1563  0.5376 -0.5575
  770SOL    HW1 4464   5.451   4.580   2.389 -1.5959  0.9935 -0.8643
  770SOL    HW2 4465   5.484   4.605   2.535  0.9924 -0.1910 -1.1973
  771SOL     OW 4466   6.499   6.489   8.353  0.0682  0.3829 -0.7992
  771SOL    HW1 4467   6.588   6.513   8.328 -0.2352  0.2807 -2.0361
  771SOL    HW2 4468   6.453   6.478   8.270 -0.9985  0.0455 -0.1806
  772SOL     OW 4469   4.713   4.379   2.637  0.0797 -0.3039 -0.5893
  772SOL    HW1 4470   4.665   4.430   2.572  0.7901  0.0610 -0.8449
  772SOL    HW2 4471   4.774   4.327   2.585 -1.5788 -2.5219 -0.4573
  773SOL     OW 4472   8.096   0.253   0.210  0.0429  0.3814 -0.1126
  773SOL    HW1 4473   8.029   0.194   0.244  1.7269 -1.1735  0.6671
  773SOL    HW2 4474   8.084   0.251   0.115 -0.9081  0.0208  0.0046
  774SOL     OW 4475   5.350   5.709   4.491 -0.2801 -0.6168 -0.2494
  774SOL    HW1 4476   5.350   5.670   4.404  0.5422 -1.5134  0.1306
  774SOL    HW2 4477   5.411   5.655   4.541  1.8800  1.8609 -0.0194
  775SOL     OW 4478   0.497   0.916   3.247 -0.1094  0.4348 -0.6268
  775SOL    HW1 4479   0.479   0.879   3.333  1.4897 -0.8752 -0.8227
  775SOL    HW2 4480   0.537   0.845   3.197 -1.0021  1.1582 -2.4729
  776SOL     OW 4481   2.808   3.001   4.962  0.4051  0.2913  0.3204
  776SOL    HW1 4482   2.837   3.092   4.955  0.2919  0.3778  0.9087
  776SOL    HW2 4483   2.882   2.950   4.929 -0.9245  0.6888 -3.7651
  777SOL     OW 4484   7.972   8.966   4.775  0.2203  0.0455 -0.4117
  777SOL    HW1 4485   8.028   9.013   4.837 -1.6982  0.4256  1.1269
  777SOL    HW2 4486   7.980   8.874   4.800 -0.4881  0.1883  0.4201
  778SOL     OW 4487   7.399   2.557   6.666 -0.4631 -0.2461 -0.0229
  778SOL    HW1 4488   7.402   2.599   6.580 -0.2089  1.3230  0.7341
  778SOL    HW2 4489   7.424   2.466   6.648  1.1304  0.4086 -1.3785
  779SOL     OW 4490   1.713   7.449   5.962  0.1051  0.2260 -0.3668
  779SOL    HW1 4491   1.627   7.469   5.927 -0.0068  2.1504  0.8604
  779SOL    HW2 4492   1.698   7.378   6.024 -0.6861  0.8687  0.1922
  780SOL     OW 4493   5.523   0.022   2.553  0.3497 -0.4616 -0.3279
  780SOL    HW1 4494   5.484   0.109   2.565 -1.4772 -1.1666 -0.8437
  780SOL    HW2 4495   5.559  -0.000   2.639  1.8703  1.2325 -0.4519
  781SOL     OW 4496   5.114   8.873   6.426  0.0383 -0.0877 -0.4852
  781SOL    HW1 4497   5.173   8.863   6.351  0.3044 -1.0489 -0.1625
  781SOL    HW2 4498   5.169   8.910   6.495 -0.0623  0.2448 -0.5813
  782SOL     OW 4499   0.293   7.296   5.711 -0.4118  0.2680 -0.6461
  782SOL    HW1 4500   0.386   7.319   5.716 -0.5203  0.4344  1.7539
  782SOL    HW2 4501   0.249   7.379   5.693 -0.1551  0.2177 -1.6174
  783SOL     OW 4502   7.188   2.881   3.368  0.0948  0.5879 -0.0530
  783SOL    HW1 4503   7.244   2.882   3.446  0.0725  1.3453 -0.0352
  783SOL    HW2 4504   7.225   2.951   3.313  0.3610 -0.2067 -0.9003
  784SOL     OW 4505   6.762   8.411   5.515  0.2992 -0.2855 -0.4290
  784SOL    HW1 4506   6.781   8.426   5.423 -1.5730  0.1412 -0.7913
  784SOL    HW2 4507   6.711   8.331   5.516  0.2382 -0.2445  0.2303
  785SOL     OW 4508   5.353   1.725   4.853  0.4124  0.5727  0.4290
  785SOL    HW1 4509   5.277   1.779   4.874  0.2663  0.0144  1.3781
  785SOL    HW2 4510   5.408   1.782   4.798 -1.0999  0.6599 -1.0788
  786SOL     OW 4511   3.229   2.906   1.263 -0.7092  0.1772  0.1968
  786SOL    HW1 4512   3.196   2.992   1.288 -0.1629  1.1612 -2.1620
  786SOL    HW2 4513   3.159   2.867   1.211  0.1434  0.4844 -1.2382
  787SOL     OW 4514   8.483   4.739   3.897  0.2105  0.8258  0.0553
  787SOL    HW1 4515   8.435   4.807   3.850 -0.9038  0.1872  0.2527
  787SOL    HW2 4516   8.442   4.657   3.870  1.0773  0.2761  0.3602
  788SOL     OW 4517   5.597   9.463   7.845  0.0106  0.5539  0.4332
  788SOL    HW1 4518   5.586   9.502   7.932 -1.3935  1.4559 -0.1155
  788SOL    HW2 4519   5.564   9.530   7.784  1.2414  0.0695 -0.8334
  789SOL     OW 4520   4.584   8.826   2.087 -0.2089 -0.1622 -0.1521
  789SOL    HW1 4521   4.518   8.762   2.063 -0.1835 -0.1296 -0.3151
  789SOL    HW2 4522   4.626   8.790   2.165 -0.8118  0.0933  0.2998
  790SOL     OW 4523   1.883   9.625   6.060  0.2921 -0.0399  0.3600
  790SOL    HW1 4524   1.805   9.573   6.079  0.7027  0.3096  3.4129
  790SOL    HW2 4525   1.849   9.712   6.036 -0.2626 -0.2493  0.3756
  791SOL     OW 4526   9.587   4.826   3.523  0.1205 -0.0658  0.1765
  791SOL    HW1 4527   9.517   4.778   3.568  0.3517 -0.6170 -0.0402
  791SOL    HW2 4528   9.616   4.767   3.454 -0.3574  0.8557 -0.8381
  792SOL     OW 4529   2.613   1.065   1.272 -1.0894  0.1137 -0.3169
  792SOL    HW1 4530   2.691   1.121   1.274 -0.4423 -0.7708 -0.3365
  792SOL    HW2 4531   2.605   1.033   1.361 -0.9924 -0.3891 -0.4887
  793SOL     OW 4532   5.090   3.764   7.071 -0.6253 -0.0072 -0.1514
  793SOL    HW1 4533   5.009   3.796   7.110 -0.1432  1.3544 -0.2285
  793SOL    HW2 4534   5.078   3.778   6.977 -0.2792  0.2579 -0.1575
  794SOL     OW 4535   7.605   1.823   2.313  0.0299  0.0768  0.8887
  794SOL    HW1 4536   7.649   1.839   2.229 -0.2354  0.6296  0.8510
  794SOL    HW2 4537   7.673   1.840   2.379 -0.2059  1.2474  0.8431
  795SOL     OW 4538   0.397   0.153   7.260 -0.4246  0.6612 -0.1015
  795SOL    HW1 4539   0.335   0.221   7.285  0.3920  0.9611  1.2101
  795SOL    HW2 4540   0.439   0.186   7.180 -2.3696  0.1489 -1.4138
  796SOL     OW 4541   7.140   1.616   1.606  0.1972  0.0262  0.6735
  796SOL    HW1 4542   7.070   1.627   1.670  0.5708  1.1692  0.9166
  796SOL    HW2 4543   7.203   1.685   1.628  0.8381 -0.2417 -0.2680
  797SOL     OW 4544   0.570   4.505   0.981 -0.4359 -0.2704 -0.1749
  797SOL    HW1 4545   0.650   4.525   0.932  0.0308 -0.3170  0.5650
  797SOL    HW2 4546   0.529   4.434   0.931  0.9502 -1.5731  0.4646
  798SOL     OW 4547   4.394   1.376   0.096  0.4808  0.0998  0.1040
  798SOL    HW1 4548   4.327   1.418   0.042 -0.4777 -1.0821  0.3178
  798SOL    HW2 4549   4.367   1.394   0.186  0.1498 -0.8054  0.1951
  799SOL     OW 4550   1.705   2.603   0.571 -0.6228 -0.3686 -0.4899
  799SOL    HW1 4551   1.686   2.509   0.571  3.2626 -1.3175 -1.1993
  799SOL    HW2 4552   1.684   2.631   0.660  2.2783 -3.0589  1.2848
  800SOL     OW 4553   9.229   0.855   8.474 -0.0245  0.0570  0.0119
  800SOL    HW1 4554   9.297   0.804   8.519 -0.1646  1.1247  1.5372
  800SOL    HW2 4555   9.273   0.935   8.447 -0.4188  0.2827  0.0312
  801SOL     OW 4556   1.766   0.137   8.626  0.6258 -0.6455  0.2922
  801SOL    HW1 4557   1.741   0.211   8.683  1.7505  0.6652 -0.8529
  801SOL    HW2 4558   1.854   0.113   8.655  1.6898  0.7941 -1.5608
  802SOL     OW 4559   7.430   0.972   8.612  0.1930 -0.2634 -0.7452
  802SOL    HW1 4560   7.467   0.987   8.525 -1.6168 -0.6131 -1.6188
  802SOL    HW2 4561   7.354   1.030   8.616  1.3228  1.2073  1.3846
  803SOL     OW 4562   8.727   4.828   4.617  0.0499  0.7501  0.4796
  803SOL    HW1 4563   8.650   4.842   4.673  0.1291  2.5417  0.1908
  803SOL    HW2 4564   8.692   4.788   4.538 -0.7428  2.2972  0.0089
  804SOL     OW 4565   4.477   8.502   5.029  0.3124  0.5651 -0.5582
  804SOL    HW1 4566   4.546   8.534   5.088  0.2323  2.2204 -1.3192
  804SOL    HW2 4567   4.504   8.412   5.009 -0.2667 -0.5584  2.8795
  805SOL     OW 4568   8.780   6.162   9.306 -0.3568 -0.2726  0.2661
  805SOL    HW1 4569   8.801   6.070   9.325  0.4747  0.2702  2.3832
  805SOL    HW2 4570   8.755   6.198   9.391 -1.4769  1.2823 -0.6788
  806SOL     OW 4571   6.691   5.539   4.920 -0.1127 -0.1441 -0.1487
  806SOL    HW1 4572   6.668   5.499   4.837 -0.2297  0.3875 -0.3801
  806SOL    HW2 4573   6.622   5.512   4.980 -0.0516 -0.4917 -0.2321
  807SOL     OW 4574   3.405   4.958   1.660  0.1058  0.1426  0.1515
  807SOL    HW1 4575   3.360   4.972   1.743  1.0441  0.5569  0.5997
  807SOL    HW2 4576   3.334   4.947   1.596 -0.6892  2.6117  0.5191
  808SOL     OW 4577   3.572   5.904   3.643  0.6981  0.1601 -0.4977
  808SOL    HW1 4578   3.483   5.937   3.647  0.3018 -0.8745 -0.4051
  808SOL    HW2 4579   3.589   5.894   3.549  0.2168 -0.8942 -0.4888
  809SOL     OW 4580   5.292   7.537   7.434 -0.5713 -0.2318 -0.4460
  809SOL    HW1 4581   5.249   7.457   7.404  0.4808 -0.8968 -0.2091
  809SOL    HW2 4582   5.306   7.523   7.528 -0.8164  0.4416 -0.3003
  810SOL     OW 4583   6.403   4.836   8.799  0.5773 -0.0434  0.4499
  810SOL    HW1 4584   6.378   4.906   8.860  0.3230  0.5681 -0.3285
  810SOL    HW2 4585   6.498   4.832   8.805  0.6280  0.6305  0.2513
  811SOL     OW 4586   7.677   1.142   0.829  0.5033 -0.3285  0.2029
  811SOL    HW1 4587   7.645   1.089   0.903 -0.6099  0.6315  0.4406
  811SOL    HW2 4588   7.768   1.159   0.850 -0.0841  0.9175  1.9917
  812SOL     OW 4589   3.351   8.642   1.501 -0.1443 -0.2268  0.3329
  812SOL    HW1 4590   3.314   8.713   1.553  1.2329  0.9807 -0.2724
  812SOL    HW2 4591   3.330   8.665   1.410  0.1823 -0.6808  0.1375
  813SOL     OW 4592   8.063   9.412   1.535 -0.0073 -0.2860 -0.8743
  813SOL    HW1 4593   8.147   9.453   1.518 -1.0264  1.9574 -0.8692
  813SOL    HW2 4594   8.044   9.363   1.456  0.7456  0.2134 -1.3802
  814SOL     OW 4595   3.121   3.786   7.048  0.1087  0.1197  0.0905
  814SOL    HW1 4596   3.076   3.701   7.050  2.5813 -1.2629  1.1281
  814SOL    HW2 4597   3.156   3.792   6.959 -0.5623  0.3632 -0.1665
  815SOL     OW 4598   9.351   6.799   0.769 -0.0404  0.0746  0.2375
  815SOL    HW1 4599   9.332   6.788   0.675  0.7072 -0.6143  0.1539
  815SOL    HW2 4600   9.290   6.866   0.798 -1.1417 -0.5883 -0.4703
  816SOL     OW 4601   9.048   5.502   5.399  0.3390 -0.4676  0.0028
  816SOL    HW1 4602   9.117   5.489   5.464  0.5041 -3.3166 -0.6271
  816SOL    HW2 4603   9.095   5.519   5.317  0.2157 -0.0709  0.0131
  817SOL     OW 4604   1.210   4.912   0.602 -0.9267 -0.5301  0.0727
  817SOL    HW1 4605   1.235   4.873   0.518  0.4174 -2.0263  1.1041
  817SOL    HW2 4606   1.229   4.844   0.666 -0.1168  1.2415  1.7987
  818SOL     OW 4607   8.304   6.710   7.502 -0.3019  0.0565  0.2581
  818SOL    HW1 4608   8.227   6.689   7.555 -0.6870  0.3991 -0.1612
  818SOL    HW2 4609   8.378   6.700   7.563 -0.7862  1.1446  1.0603
  819SOL     OW 4610   7.785   5.727   2.134 -0.2846 -0.1989 -0.3942
  819SOL    HW1 4611   7.872   5.753   2.103  0.3089 -0.2859  1.1187
  819SOL    HW2 4612   7.751   5.670   2.065  1.8724 -2.1356  0.0232
  820SOL     OW 4613   2.271   3.655   0.060 -0.1347  0.2243  0.3157
  820SOL    HW1 4614   2.209   3.672  -0.011 -1.7957 -1.3486  1.3264
  820SOL    HW2 4615   2.244   3.713   0.130 -0.4825 -0.4561  0.7560
  821SOL     OW 4616   3.085   1.253   9.469 -0.0777 -0.0731 -0.1096
  821SOL    HW1 4617   3.154   1.318   9.484  0.2264 -0.6367  1.0293
  821SOL    HW2 4618   3.035   1.251   9.550  0.3839 -1.7916  0.1799
  822SOL     OW 4619   7.052   5.734   1.623  0.3763  0.2724  0.2609
  822SOL    HW1 4620   7.036   5.761   1.533 -0.3760  0.4336  0.4356
  822SOL    HW2 4621   7.146   5.716   1.627  0.4738  0.6143 -0.4593
  823SOL     OW 4622   9.318   1.961   8.629  0.7115 -0.1475 -0.1378
  823SOL    HW1 4623   9.350   2.051   8.627 -0.8972  0.5685  2.2359
  823SOL    HW2 4624   9.223   1.970   8.634  0.5273 -1.9706  0.3426
  824SOL     OW 4625   4.938   2.576   4.398  0.2360 -0.2979  0.7917
  824SOL    HW1 4626   4.971   2.665   4.410  0.1361 -0.3251  1.2987
  824SOL    HW2 4627   4.932   2.565   4.303  0.2790  0.2246  0.7260
  825SOL     OW 4628   1.167   2.277   5.591 -0.1752  0.2197  0.0769
  825SOL    HW1 4629   1.115   2.245   5.517 -0.8926 -0.2757  0.7842
  825SOL    HW2 4630   1.210   2.199   5.626 -0.2027  0.3758  0.4656
  826SOL     OW 4631   7.732   6.796   6.295  0.5716 -0.3727  0.6984
  826SOL    HW1 4632   7.686   6.722   6.256 -0.4913  0.4457  0.3597
  826SOL    HW2 4633   7.809   6.809   6.240 -0.1306 -0.1654 -0.2508
  827SOL     OW 4634   2.656   5.245   0.227  0.2725  0.6579  0.1807
  827SOL    HW1 4635   2.654   5.170   0.287 -0.8632 -0.9466 -1.7567
  827SOL    HW2 4636   2.586   5.302   0.258 -1.0128 -0.6701 -0.2226
  828SOL     OW 4637   1.685   4.838   0.355  0.2152  0.8047  0.2541
  828SOL    HW1 4638   1.649   4.761   0.399 -1.1430  0.4367 -1.3810
  828SOL    HW2 4639   1.722   4.805   0.274  0.6261  1.7451  0.0417
  829SOL     OW 4640   4.770   3.320   8.674 -0.2712  0.5481  0.3317
  829SOL    HW1 4641   4.704   3.347   8.610 -1.1588  0.3476  1.1370
  829SOL    HW2 4642   4.720   3.292   8.750  0.6882 -0.9563  0.4640
  830SOL     OW 4643   6.409   7.463   5.347 -0.3649  0.3732  0.2506
  830SOL    HW1 4644   6.342   7.445   5.281  0.5725 -0.3795 -0.5268
  830SOL    HW2 4645   6.460   7.382   5.352  1.1528  1.2779  0.0221
  831SOL     OW 4646   8.864   7.310   5.474  0.4069 -0.0447  0.6523
  831SOL    HW1 4647   8.845   7.218   5.492 -1.0660  0.2427  0.6830
  831SOL    HW2 4648   8.877   7.350   5.560 -0.7047  0.1201  0.7553
  832SOL     OW 4649   6.450   8.511   8.242 -0.0170 -0.5655 -0.3517
  832SOL    HW1 4650   6.414   8.423   8.243 -0.9656 -0.1880  0.4667
  832SOL    HW2 4651   6.530   8.505   8.294 -1.3648 -0.4586  1.8591
  833SOL     OW 4652   8.475   1.318   3.175  0.4625  0.2225 -0.3148
  833SOL    HW1 4653   8.508   1.260   3.243 -0.8452  0.6833  0.7588
  833SOL    HW2 4654   8.532   1.394   3.178  0.4009  0.2478  0.2850
  834SOL     OW 4655   7.006   1.098   6.626 -0.1353  0.9564  0.0358
  834SOL    HW1 4656   7.037   1.088   6.536  0.4041  3.2859 -0.0900
  834SOL    HW2 4657   6.934   1.160   6.620 -0.2306  0.9781  1.1757
  835SOL     OW 4658   4.082   8.440   5.771  0.0962  0.0475  0.6111
  835SOL    HW1 4659   4.025   8.413   5.699  2.1786  0.4995 -1.3175
  835SOL    HW2 4660   4.109   8.529   5.749 -2.2655  1.8100  4.0382
  836SOL     OW 4661   3.519   4.147   9.268 -0.1394 -0.5314  0.3147
  836SOL    HW1 4662   3.455   4.175   9.203  1.5084  3.1391  0.0421
  836SOL    HW2 4663   3.603   4.153   9.223  0.7195 -1.9706  1.6333
  837SOL     OW 4664   2.259   4.001   8.568 -0.0731 -0.5141 -0.3223
  837SOL    HW1 4665   2.273   3.939   8.496  2.2032  0.4363 -0.7996
  837SOL    HW2 4666   2.170   4.035   8.554 -0.0726 -1.1414 -2.0690
  838SOL     OW 4667   8.485   1.657   8.488 -0.6660  0.2948  0.4196
  838SOL    HW1 4668   8.477   1.658   8.583 -1.7596  0.3880  0.3354
  838SOL    HW2 4669   8.411   1.709   8.457  0.9620  2.2855 -0.4198
  839SOL     OW 4670   2.668   7.922   2.969  0.0908 -0.1069  0.3632
  839SOL    HW1 4671   2.660   7.838   2.924 -0.5367  0.3740 -0.4403
  839SOL    HW2 4672   2.604   7.979   2.927  0.4671  0.7674  0.9321
  840SOL     OW 4673   1.533   9.342   6.296  0.0184 -0.2440  0.0790
  840SOL    HW1 4674   1.524   9.274   6.363  1.7069 -1.4694 -0.8373
  840SOL    HW2 4675   1.616   9.384   6.316 -0.6514  1.0743  0.1806
  841SOL     OW 4676   3.508   9.028   7.357  0.1947 -0.0358  0.1459
  841SOL    HW1 4677   3.481   9.072   7.276 -1.5751  0.2772  0.8478
  841SOL    HW2 4678   3.602   9.012   7.346  0.5086  2.1647 -0.9467
  842SOL     OW 4679   2.080   7.142   5.320  0.6704  0.0001  0.2143
  842SOL    HW1 4680   2.039   7.180   5.243  0.5282  0.7929  0.6696
  842SOL    HW2 4681   2.039   7.187   5.394  1.4176 -0.1237  0.7224
  843SOL     OW 4682   4.259   2.888   1.538  0.2383  0.2875  0.0957
  843SOL    HW1 4683   4.345   2.929   1.551  0.2279  0.7091 -1.0437
  843SOL    HW2 4684   4.201   2.933   1.599  0.7498  0.2196  0.6458
  844SOL     OW 4685   4.304   2.303   7.806  0.0237 -0.4147  0.1088
  844SOL    HW1 4686   4.329   2.293   7.898 -0.2773 -0.2771  0.2064
  844SOL    HW2 4687   4.295   2.397   7.794  3.3384 -0.1178 -0.9443
  845SOL     OW 4688   5.829   5.414   1.117 -0.2245  0.0616 -0.0498
  845SOL    HW1 4689   5.795   5.433   1.030  1.3594  0.5370 -0.6073
  845SOL    HW2 4690   5.770   5.349   1.153  0.3224 -1.8503 -2.3695
  846SOL     OW 4691   1.915   5.408   6.403  0.3272  0.1011  0.0053
  846SOL    HW1 4692   1.824   5.378   6.407  0.4326 -0.6808 -2.0297
  846SOL    HW2 4693   1.929   5.454   6.486 -1.2930 -1.4978  1.2543
  847SOL     OW 4694   0.583   9.486   6.539  0.4564  0.5097  0.9543
  847SOL    HW1 4695   0.629   9.480   6.455 -0.1948 -0.1268  0.6300
  847SOL    HW2 4696   0.491   9.489   6.515  0.1279 -1.7086  1.6929
  848SOL     OW 4697   5.880   1.695   9.366  0.7528 -0.4154  0.1976
  848SOL    HW1 4698   5.806   1.651   9.408  0.0729 -0.0981 -0.6380
  848SOL    HW2 4699   5.851   1.786   9.356  0.8039 -0.5243 -1.1405
  849SOL     OW 4700   2.821   8.507   7.421  0.0007 -0.1001  0.0850
  849SOL    HW1 4701   2.848   8.464   7.502 -0.8854  1.4029  1.2395
  849SOL    HW2 4702   2.757   8.446   7.382  2.1868 -1.9598 -0.7965
  850SOL     OW 4703   4.519   2.028   6.618  0.0777  0.4733 -0.0520
  850SOL    HW1 4704   4.532   1.951   6.673 -1.7739 -0.1132 -0.3638
  850SOL    HW2 4705   4.593   2.028   6.558  0.2648 -0.8942  0.1476
  851SOL     OW 4706   4.320   6.934   0.976 -0.0509 -0.4378 -0.3450
  851SOL    HW1 4707   4.225   6.938   0.962 -0.1724 -1.3616  0.1285
  851SOL    HW2 4708   4.344   7.024   0.997 -0.7110 -0.0655 -1.1070
  852SOL     OW 4709   1.307   3.174   3.444  0.3779  0.7366  0.1720
  852SOL    HW1 4710   1.390   3.194   3.488  0.7905 -1.8025  0.6637
  852SOL    HW2 4711   1.259   3.257   3.447  2.3746  1.9547  0.9760
  853SOL     OW 4712   1.341   2.892   1.222 -0.0980  0.2791 -0.3917
  853SOL    HW1 4713   1.295   2.946   1.158  1.2899  1.0913 -0.7431
  853SOL    HW2 4714   1.337   2.941   1.303  0.2078  0.3944 -0.4441
  854SOL     OW 4715   2.886   8.760   0.323 -0.3978 -0.5035  0.2699
  854SOL    HW1 4716   2.844   8.842   0.297 -0.7921 -0.4460  1.0455
  854SOL    HW2 4717   2.904   8.772   0.416  1.1152 -0.6347  0.0060
  855SOL     OW 4718   8.247   4.276   0.805  0.3205 -0.5933  0.3186
  855SOL    HW1 4719   8.290   4.196   0.775 -0.9513 -1.9901  2.0172
  855SOL    HW2 4720   8.286   4.294   0.890  0.4418  0.5075  0.0446
  856SOL     OW 4721   7.686   7.315   1.435 -0.2021 -0.2264 -0.8955
  856SOL    HW1 4722   7.627   7.390   1.437 -2.2048 -1.7279 -0.8777
  856SOL    HW2 4723   7.689   7.284   1.526  1.2711  0.2746 -0.7445
  857SOL     OW 4724   2.323   1.702   3.580  0.0997  0.1074 -0.4650
  857SOL    HW1 4725   2.345   1.615   3.549 -1.0732 -0.4528  0.2018
  857SOL    HW2 4726   2.265   1.738   3.513  0.0228  0.0955 -0.4057
  858SOL     OW 4727   7.897   8.955   4.071 -0.5291 -0.2978  0.8620
  858SOL    HW1 4728   7.920   8.957   3.979  0.5751 -3.1253  0.9779
  858SOL    HW2 4729   7.981   8.959   4.117 -1.0174  0.2869  1.7377
  859SOL     OW 4730   4.869   3.764   3.340  0.3881  0.2077  0.1560
  859SOL    HW1 4731   4.952   3.768   3.293  0.4648  0.8125  0.3267
  859SOL    HW2 4732   4.816   3.702   3.291  0.9459 -0.1900  0.0534
  860SOL     OW 4733   5.076   6.171   9.434  0.6889 -0.3737 -0.0568
  860SOL    HW1 4734   5.108   6.106   9.497  1.2437 -0.1223 -0.0694
  860SOL    HW2 4735   4.992   6.200   9.471  1.2831  0.1974  0.8939
  861SOL     OW 4736   4.476   7.647   5.994 -0.2407  0.2082  0.1736
  861SOL    HW1 4737   4.491   7.683   5.906  1.1482 -0.4375  0.1227
  861SOL    HW2 4738   4.393   7.601   5.987 -0.6110  0.9558 -0.5405
  862SOL     OW 4739   5.071   7.748   9.014 -0.1576 -0.1534  0.2722
  862SOL    HW1 4740   5.046   7.762   8.923 -0.2095 -2.4879 -0.1221
  862SOL    HW2 4741   4.989   7.723   9.058  0.2439 -1.1560  0.4678
  863SOL     OW 4742   6.168   5.489   1.920 -0.1362 -0.0553 -0.0015
  863SOL    HW1 4743   6.086   5.514   1.877 -0.5931 -0.3785  0.6705
  863SOL    HW2 4744   6.193   5.407   1.877 -0.8681 -0.6564  0.6902
  864SOL     OW 4745   6.561   8.968   3.003 -0.2113  0.2030  0.3050
  864SOL    HW1 4746   6.498   9.035   3.030 -1.2549  0.1854 -1.8567
  864SOL    HW2 4747   6.643   9.015   2.989 -0.7988  0.9725 -0.6710
  865SOL     OW 4748   3.408   4.442   6.809 -0.0218  0.0044  0.0676
  865SOL    HW1 4749   3.473   4.497   6.853  0.1440  0.8554 -1.1774
  865SOL    HW2 4750   3.444   4.429   6.721 -1.7893  1.0003 -0.8690
  866SOL     OW 4751   2.403   7.578   8.612  0.3477 -0.2243  0.4836
  866SOL    HW1 4752   2.458   7.636   8.560 -0.0589  0.3120  0.6404
  866SOL    HW2 4753   2.317   7.582   8.570 -0.1855  0.7980  1.5956
  867SOL     OW 4754   5.098   0.421   6.022  0.3210  0.0201 -0.0469
  867SOL    HW1 4755   5.023   0.366   6.000  0.1006 -0.2133  1.2288
  867SOL    HW2 4756   5.154   0.418   5.944  0.0589 -1.5960 -0.1944
  868SOL     OW 4757   3.290   6.786   1.259  0.3352  0.0067 -0.4748
  868SOL    HW1 4758   3.230   6.712   1.258  0.3612 -0.0122 -1.6556
  868SOL    HW2 4759   3.375   6.749   1.284  0.0574 -0.1131  0.3179
  869SOL     OW 4760   6.327   4.523   5.354 -0.3224 -0.6761 -0.4749
  869SOL    HW1 4761   6.232   4.534   5.366 -0.1903 -0.0847  0.0913
  869SOL    HW2 4762   6.353   4.463   5.424  0.0265  0.7378  0.6737
  870SOL     OW 4763   5.506   4.187   1.624  0.5539 -0.6493  0.2660
  870SOL    HW1 4764   5.514   4.254   1.556 -0.2624 -0.0112  0.7893
  870SOL    HW2 4765   5.505   4.104   1.575 -2.4273 -0.1396 -0.7776
  871SOL     OW 4766   2.895   4.153   0.551  0.2239  0.3910 -0.2410
  871SOL    HW1 4767   2.907   4.121   0.461 -0.9020  0.1063 -0.3065
  871SOL    HW2 4768   2.802   4.139   0.569  0.6952 -0.8157  1.4555
  872SOL     OW 4769   2.195   4.748   0.229 -0.1440 -0.3062 -0.2650
  872SOL    HW1 4770   2.189   4.654   0.249  1.5008 -0.2432  0.8095
  872SOL    HW2 4771   2.202   4.752   0.134  1.7328 -1.4798 -0.2399
  873SOL     OW 4772   2.860   9.216   8.532 -0.2720 -0.1040  0.8402
  873SOL    HW1 4773   2.873   9.237   8.624 -1.0168 -0.7529  1.1053
  873SOL    HW2 4774   2.785   9.269   8.505 -1.5590 -1.6043  1.2648
  874SOL     OW 4775   4.977   4.240   3.580 -0.2320  0.6213  0.0449
  874SOL    HW1 4776   4.986   4.333   3.600  0.5464  0.7702 -0.9462
  874SOL    HW2 4777   5.065   4.211   3.557 -0.4227 -0.4184  0.5274
  875SOL     OW 4778   0.620   7.182   7.202 -0.2822  0.3971 -0.2980
  875SOL    HW1 4779   0.713   7.183   7.222 -0.7100 -1.0142  2.2933
  875SOL    HW2 4780   0.578   7.156   7.285 -2.8273 -0.7763 -1.8165
  876SOL     OW 4781   8.080   6.912   0.653  0.1612 -0.1907 -0.3843
  876SOL    HW1 4782   8.082   6.949   0.565  0.6112  1.1590  0.1706
  876SOL    HW2 4783   7.994   6.870   0.659  1.1380 -2.7780 -2.3938
  877SOL     OW 4784   3.807   4.801   5.308 -0.1698  0.0253 -0.2203
  877SOL    HW1 4785   3.878   4.744   5.340  0.0738  0.8985  0.8374
  877SOL    HW2 4786   3.830   4.818   5.216 -0.1191 -1.3689 -0.4950
  878SOL     OW 4787   0.506   9.467   7.042  0.3226 -0.5572 -0.4666
  878SOL    HW1 4788   0.497   9.372   7.039  0.1549 -0.5444 -4.0463
  878SOL    HW2 4789   0.588   9.485   6.996  1.7155  1.0309  2.3422
  879SOL     OW 4790   0.989   8.790   1.405 -0.4600  0.4682 -0.4610
  879SOL    HW1 4791   0.945   8.848   1.343 -0.6006  0.4226 -0.4053
  879SOL    HW2 4792   1.080   8.818   1.404 -0.4227  0.3389 -0.8363
  880SOL     OW 4793   9.462   5.804   0.284  0.0765  0.2071 -0.5439
  880SOL    HW1 4794   9.493   5.878   0.232 -0.7173 -0.1969 -1.6223
  880SOL    HW2 4795   9.441   5.737   0.219 -1.7007 -0.0329  0.2286
  881SOL     OW 4796   0.431   8.352   6.700 -0.3353 -0.2202  0.4066
  881SOL    HW1 4797   0.365   8.308   6.753 -2.8841  0.0981 -2.2896
  881SOL    HW2 4798   0.406   8.444   6.700  1.9604  0.4854  1.7841
  882SOL     OW 4799   7.624   6.944   3.088  0.5678 -0.0870 -0.7984
  882SOL    HW1 4800   7.706   6.975   3.051  1.3635  0.3709  1.1982
  882SOL    HW2 4801   7.619   6.986   3.174 -2.1138  0.4575 -1.1264
  883SOL     OW 4802   4.030   0.411   6.662 -0.2643 -0.1601  0.9216
  883SOL    HW1 4803   4.030   0.481   6.598 -2.1731 -0.4754  0.5241
  883SOL    HW2 4804   4.116   0.417   6.705  1.0588  0.0604 -1.6094
  884SOL     OW 4805   7.548   0.250   5.174 -0.1009 -0.3742 -0.1271
  884SOL    HW1 4806   7.580   0.162   5.152 -0.8789 -1.3954  2.4802
  884SOL    HW2 4807   7.615   0.285   5.233 -0.7611 -0.0600  0.4493
  885SOL     OW 4808   4.841   9.475   4.483  0.1001 -0.6467 -0.1961
  885SOL    HW1 4809   4.750   9.454   4.504  0.2662 -2.8186 -1.3545
  885SOL    HW2 4810   4.891   9.405   4.525  1.1903  0.1729 -0.1022
  886SOL     OW 4811   3.711   5.374   3.650 -0.2146 -0.0522 -0.0715
  886SOL    HW1 4812   3.710   5.469   3.661 -1.0566  0.1654 -1.6509
  886SOL    HW2 4813   3.740   5.340   3.735  0.1514  1.6029  0.5098
  887SOL     OW 4814   0.469   0.680   0.495 -0.0439 -0.1000  0.2524
  887SOL    HW1 4815   0.487   0.638   0.411 -2.6016 -1.7150  0.3932
  887SOL    HW2 4816   0.463   0.774   0.475 -1.4285 -0.5297 -1.5801
  888SOL     OW 4817   8.885   2.179   1.028 -0.1813 -0.6681  0.4098
  888SOL    HW1 4818   8.868   2.230   0.949 -1.1813  1.1735  1.7443
  888SOL    HW2 4819   8.814   2.115   1.031 -1.0792  0.3143  0.6348
  889SOL     OW 4820   6.996   6.645   1.323 -0.6648 -0.4853  0.0297
  889SOL    HW1 4821   7.079   6.651   1.369  0.5493 -0.4693 -2.0439
  889SOL    HW2 4822   7.013   6.683   1.237 -3.3470  1.2871  0.1536
  890SOL     OW 4823   3.025   2.950   6.765  0.1746 -0.2799 -0.0422
  890SOL    HW1 4824   3.037   2.855   6.769  0.4035 -0.2468  0.0228
  890SOL    HW2 4825   3.109   2.986   6.793 -0.7267 -0.0503  2.7165
  891SOL     OW 4826   0.209   4.522   6.731  0.2032 -0.0422  0.1433
  891SOL    HW1 4827   0.287   4.485   6.773  0.5659 -0.4804 -0.8875
  891SOL    HW2 4828   0.242   4.596   6.680 -0.1314  0.0706  0.0899
  892SOL     OW 4829   0.378   5.178   2.357  0.2069 -0.4435  0.5135
  892SOL    HW1 4830   0.391   5.136   2.272 -1.3836  0.1396 -0.0597
  892SOL    HW2 4831   0.466   5.207   2.383  0.7296 -0.6777 -0.8997
  893SOL     OW 4832   8.994   5.523   0.206 -0.3682 -0.2784 -0.6259
  893SOL    HW1 4833   9.019   5.571   0.127  0.8421  2.3884  1.2174
  893SOL    HW2 4834   9.076   5.491   0.242 -0.7014 -0.1123  0.3169
  894SOL     OW 4835   1.205   7.817   8.810 -0.2072  0.4555  0.0855
  894SOL    HW1 4836   1.148   7.851   8.879  2.4790  0.8674  2.3246
  894SOL    HW2 4837   1.237   7.894   8.764  1.4395  0.6344  1.4108
  895SOL     OW 4838   3.235   8.091   4.321  0.3519  0.2297  0.2834
  895SOL    HW1 4839   3.151   8.124   4.351 -0.2325 -0.2167 -0.8059
  895SOL    HW2 4840   3.293   8.167   4.320 -0.8878  1.2119 -1.9330
  896SOL     OW 4841   6.376   3.914   0.907  0.5591 -0.0922  1.0457
  896SOL    HW1 4842   6.382   4.004   0.938 -1.1226  0.7740 -0.8423
  896SOL    HW2 4843   6.286   3.887   0.928 -0.1490  0.0140 -1.4346
  897SOL     OW 4844   2.740   4.530   2.706 -0.0948  0.3139  0.6386
  897SOL    HW1 4845   2.719   4.437   2.708 -0.8708  0.4238 -1.0660
  897SOL    HW2 4846   2.655   4.575   2.708  0.0819  0.8738 -1.6876
  898SOL     OW 4847   6.570   5.546   3.596 -0.2571  0.2285  0.2180
  898SOL    HW1 4848   6.618   5.484   3.651  2.6459  3.0528  1.1723
  898SOL    HW2 4849   6.541   5.613   3.657 -1.5529  0.8655 -1.0480
  899SOL     OW 4850   3.253   7.586   5.590  0.5036 -0.0843  0.0496
  899SOL    HW1 4851   3.277   7.647   5.521  0.4437 -0.3073 -0.1701
  899SOL    HW2 4852   3.242   7.502   5.545  0.8938 -0.3250  0.3927
  900SOL     OW 4853   7.192   0.985   5.961  0.1893  0.2729 -0.0415
  900SOL    HW1 4854   7.199   0.989   6.056  1.2767 -1.3800 -0.0035
  900SOL    HW2 4855   7.115   0.930   5.944  0.7791 -0.5673 -0.0683
  901SOL     OW 4856   5.173   1.482   5.255  0.5067 -0.3879  0.6131
  901SOL    HW1 4857   5.209   1.552   5.310 -0.6434 -0.5231  1.5891
  901SOL    HW2 4858   5.090   1.517   5.224  0.5910 -0.7834 -0.0702
  902SOL     OW 4859   1.968   6.084   1.114 -0.0827 -0.5006 -0.3198
  902SOL    HW1 4860   1.951   6.017   1.180 -0.3792  0.3618  0.5110
  902SOL    HW2 4861   1.928   6.051   1.034 -1.7695 -0.5358  0.4997
  903SOL     OW 4862   7.083   8.027   7.564 -0.2065 -0.0562 -0.1913
  903SOL    HW1 4863   6.999   8.059   7.596 -0.1894 -1.1383  1.0614
  903SOL    HW2 4864   7.146   8.061   7.628  0.6107  2.2213 -2.0583
  904SOL     OW 4865   8.867   1.125   2.740  0.8975  0.1422  0.4798
  904SOL    HW1 4866   8.885   1.115   2.647  0.5549 -0.8559  0.5140
  904SOL    HW2 4867   8.913   1.206   2.765  0.7188  0.5909 -0.6128
  905SOL     OW 4868   9.499   0.426   1.322 -0.2484 -0.0176 -0.1656
  905SOL    HW1 4869   9.558   0.383   1.384  1.9927  1.6754 -0.9933
  905SOL    HW2 4870   9.502   0.371   1.244 -0.9220 -0.6931  0.2718
  906SOL     OW 4871   6.577   7.926   5.038 -0.0558 -0.1219 -0.6051
  906SOL    HW1 4872   6.576   7.838   4.999 -0.7351  0.9235 -3.1082
  906SOL    HW2 4873   6.657   7.966   5.005 -0.8587  0.9472 -1.3048
  907SOL     OW 4874   9.062   7.472   6.601 -0.1684 -0.5621  0.2311
  907SOL    HW1 4875   9.033   7.474   6.510  2.6636 -2.4869 -0.8573
  907SOL    HW2 4876   9.099   7.559   6.618  0.5182 -0.6047 -0.9630
  908SOL     OW 4877   2.833   0.889   8.423 -0.1020  0.3064  0.4279
  908SOL    HW1 4878   2.840   0.874   8.329 -0.8382  0.6436  0.3173
  908SOL    HW2 4879   2.897   0.828   8.461  0.6612  0.6134 -0.3196
  909SOL     OW 4880   1.684   5.527   6.668  0.8253  0.1620  0.2639
  909SOL    HW1 4881   1.590   5.522   6.685  0.6455 -2.2730 -1.0871
  909SOL    HW2 4882   1.696   5.484   6.583  3.0516  1.3543 -0.1112
  910SOL     OW 4883   8.315   9.048   4.088 -0.3817 -0.0376 -0.6849
  910SOL    HW1 4884   8.243   9.044   4.151  0.3813 -2.7916  0.1584
  910SOL    HW2 4885   8.394   9.046   4.142  0.4121  2.3140 -1.6257
  911SOL     OW 4886   7.526   1.359   1.423  0.0880  0.6052 -0.1082
  911SOL    HW1 4887   7.501   1.330   1.511  0.8196 -0.4085 -0.2216
  911SOL    HW2 4888   7.570   1.443   1.437  0.1154  0.4941  0.4927
  912SOL     OW 4889   3.586   5.894   7.325 -0.6437 -0.2662 -0.0423
  912SOL    HW1 4890   3.660   5.904   7.385  0.9175  0.6284 -2.0215
  912SOL    HW2 4891   3.618   5.835   7.256 -1.2002  1.2905 -1.7154
  913SOL     OW 4892   5.221   3.747   7.339  0.1510  0.7444  0.0957
  913SOL    HW1 4893   5.139   3.770   7.384  0.3404  0.1575  0.7479
  913SOL    HW2 4894   5.194   3.730   7.249 -0.2813  1.6055  0.0415
  914SOL     OW 4895   5.199   9.466   6.614  0.1614 -0.6652  0.1580
  914SOL    HW1 4896   5.226   9.448   6.523  1.0453 -0.8950  0.4571
  914SOL    HW2 4897   5.133   9.535   6.606 -0.6081 -1.4916 -0.7435
  915SOL     OW 4898   9.623   7.097   6.716  0.1106 -0.5381 -0.6083
  915SOL    HW1 4899   9.582   7.079   6.801  1.4876 -1.4576 -0.0999
  915SOL    HW2 4900   9.580   7.038   6.655  0.5176 -1.3646 -0.1154
  916SOL     OW 4901   1.829   9.259   9.240 -0.1576  0.1005  0.2794
  916SOL    HW1 4902   1.861   9.338   9.198  0.7319 -0.1180  0.5180
  916SOL    HW2 4903   1.816   9.197   9.169  0.1385  0.1375  0.1895
  917SOL     OW 4904   5.988   8.443   2.744 -0.5493 -0.5857 -0.6287
  917SOL    HW1 4905   6.025   8.524   2.709 -1.4685 -0.1530 -0.6400
  917SOL    HW2 4906   5.998   8.380   2.673  1.0390 -0.7572 -0.2751
  918SOL     OW 4907   7.326   0.040   1.787  0.0423 -0.3816  0.1003
  918SOL    HW1 4908   7.265   0.110   1.763 -1.2133 -0.3246  3.0059
  918SOL    HW2 4909   7.314  -0.027   1.719 -1.6573  0.5797 -0.6074
  919SOL     OW 4910   0.654   2.493   0.740  0.1041 -0.1366 -0.3074
  919SOL    HW1 4911   0.563   2.488   0.769 -0.2146 -0.9543 -1.3860
  919SOL    HW2 4912   0.648   2.490   0.644  1.1705  1.4655 -0.4645
  920SOL     OW 4913   7.635   4.700   2.699 -0.1040 -0.2898 -0.2374
  920SOL    HW1 4914   7.622   4.605   2.694 -2.1570 -0.0645 -0.0997
  920SOL    HW2 4915   7.558   4.732   2.747  0.5642  1.4542 -0.2567
  921SOL     OW 4916   9.374   6.595   8.198 -0.2421  0.0008 -0.4617
  921SOL    HW1 4917   9.362   6.689   8.205  0.5593  0.1090 -0.4362
  921SOL    HW2 4918   9.337   6.559   8.279  1.8304  0.5428  0.8173
  922SOL     OW 4919   4.988   7.161   2.998 -0.4655 -0.1176 -0.4855
  922SOL    HW1 4920   4.907   7.207   3.019  0.3851  1.0757  0.3565
  922SOL    HW2 4921   5.005   7.106   3.074 -0.2516  0.0064 -0.4402
  923SOL     OW 4922   3.656   2.208   2.373  0.0409  0.1629 -0.6123
  923SOL    HW1 4923   3.666   2.172   2.462  1.0491 -0.6143 -1.0247
  923SOL    HW2 4924   3.629   2.298   2.388 -2.4082 -0.6615  0.4577
  924SOL     OW 4925   8.423   9.216   5.789 -0.4792  0.1757  0.0658
  924SOL    HW1 4926   8.358   9.203   5.720 -1.5495 -0.2524  1.1141
  924SOL    HW2 4927   8.493   9.154   5.768 -0.0026  1.1801 -1.5030
  925SOL     OW 4928   8.413   1.880   5.446  0.8392 -0.4040 -0.3717
  925SOL    HW1 4929   8.363   1.926   5.379  1.0520 -0.5651 -0.6452
  925SOL    HW2 4930   8.351   1.821   5.487  0.0714  1.4573  1.2795
  926SOL     OW 4931   1.269   6.542   9.494  0.0464 -0.5480  0.0402
  926SOL    HW1 4932   1.266   6.471   9.558 -2.6050  0.7924  1.5704
  926SOL    HW2 4933   1.224   6.506   9.417  0.1788 -1.0686  0.1996
  927SOL     OW 4934   2.843   7.209   0.930  0.2169  0.2506  0.0601
  927SOL    HW1 4935   2.867   7.259   1.008  2.1019 -0.1743 -0.2145
  927SOL    HW2 4936   2.895   7.129   0.936 -0.4538 -0.2864 -1.0791
  928SOL     OW 4937   3.379   1.520   0.643  0.3585  1.0353 -0.0898
  928SOL    HW1 4938   3.376   1.613   0.622 -2.0181  1.4130  1.4978
  928SOL    HW2 4939   3.315   1.481   0.583  1.0079  0.4679 -0.4290
  929SOL     OW 4940   0.677   4.545   4.426  0.3424  0.1070 -0.0493
  929SOL    HW1 4941   0.732   4.623   4.420 -1.4675  1.5004  0.3698
  929SOL    HW2 4942   0.610   4.568   4.491 -0.8583 -1.3996 -0.6832
  930SOL     OW 4943   5.995   4.725   7.177  0.2074  0.0834  0.3467
  930SOL    HW1 4944   5.946   4.713   7.096 -1.7694  1.5811  1.2452
  930SOL    HW2 4945   6.041   4.642   7.189 -0.9330 -0.8576 -1.3324
  931SOL     OW 4946   3.451   6.203   4.746  0.4473  0.1245 -0.7895
  931SOL    HW1 4947   3.381   6.260   4.780  0.2931 -0.0521 -0.8109
  931SOL    HW2 4948   3.420   6.176   4.660 -0.8624 -2.3617  0.3684
  932SOL     OW 4949   4.782   4.520   9.030 -0.0773 -0.1180  0.7779
  932SOL    HW1 4950   4.765   4.430   9.003 -0.3628 -0.0819  0.8372
  932SOL    HW2 4951   4.794   4.515   9.125  0.5003 -0.1805  0.7076
  933SOL     OW 4952   1.911   7.520   2.682  0.4982 -0.0235 -0.1068
  933SOL    HW1 4953   1.949   7.505   2.769 -0.9369 -0.0479  0.5352
  933SOL    HW2 4954   1.851   7.447   2.669 -0.4911  0.8332 -0.4294
  934SOL     OW 4955   4.253   1.905   6.857  0.0000 -0.4330  0.4074
  934SOL    HW1 4956   4.225   1.967   6.790  1.8978 -0.5204 -0.5068
  934SOL    HW2 4957   4.293   1.959   6.925  0.1127 -0.5327  0.4204
  935SOL     OW 4958   3.134   9.392   4.027 -0.6492  0.3099 -0.2981
  935SOL    HW1 4959   3.097   9.373   3.941  1.4555  1.5555 -1.5842
  935SOL    HW2 4960   3.162   9.307   4.060  0.9255  0.0372 -2.1114
  936SOL     OW 4961   2.085   0.154   3.704  0.0067  0.4078  0.0963
  936SOL    HW1 4962   2.032   0.222   3.746  1.0808  0.0011  2.2683
  936SOL    HW2 4963   2.150   0.130   3.770  0.8575 -1.3924 -1.2994
  937SOL     OW 4964   7.586   9.189   2.121 -0.0630  0.4002 -0.0435
  937SOL    HW1 4965   7.616   9.280   2.122 -0.0469  0.4125  1.7498
  937SOL    HW2 4966   7.532   9.181   2.200 -0.8067 -0.9079 -0.6612
  938SOL     OW 4967   7.031   0.274   5.359 -0.3533  0.5601  0.2579
  938SOL    HW1 4968   7.064   0.360   5.384 -1.6507  1.0025  0.5146
  938SOL    HW2 4969   7.000   0.235   5.440 -1.3821  0.5784 -0.1157
  939SOL     OW 4970   5.148   2.039   8.761  0.1388  0.5709 -0.3301
  939SOL    HW1 4971   5.223   2.062   8.706 -0.2189  0.4725 -0.8600
  939SOL    HW2 4972   5.088   1.994   8.702  0.9170 -2.0261  0.7209
  940SOL     OW 4973   9.054   5.233   2.383 -0.0373 -0.4431  0.6822
  940SOL    HW1 4974   9.082   5.324   2.370  0.3899 -0.6178  0.3740
  940SOL    HW2 4975   9.133   5.187   2.411  0.1410 -1.0602 -0.7533
  941SOL     OW 4976   6.923   7.193   7.978 -0.4608  0.6960  0.8582
  941SOL    HW1 4977   6.951   7.239   8.057  1.8593  0.5545  0.2040
  941SOL    HW2 4978   6.998   7.201   7.918 -0.9558 -1.7506 -0.2049
  942SOL     OW 4979   0.939   6.479   4.766 -0.1375 -0.2315 -0.2263
  942SOL    HW1 4980   0.858   6.432   4.787 -0.0243  0.1866  1.2451
  942SOL    HW2 4981   0.940   6.554   4.825  1.5911 -0.5320  0.1979
  943SOL     OW 4982   2.807   2.163   2.010  0.6076  0.5005 -0.1846
  943SOL    HW1 4983   2.737   2.119   1.962  1.6074 -2.6281  1.0018
  943SOL    HW2 4984   2.789   2.143   2.102  2.5080  0.4526  0.2162
  944SOL     OW 4985   2.683   5.835   8.031  0.1930  0.7086  0.0212
  944SOL    HW1 4986   2.735   5.769   7.986  0.0145  0.0354  0.7659
  944SOL    HW2 4987   2.698   5.916   7.982 -0.1399 -0.0202 -1.3310
  945SOL     OW 4988   8.262   6.584   1.860  0.4746  0.2653 -0.3642
  945SOL    HW1 4989   8.267   6.607   1.767  0.7858  0.2248 -0.3581
  945SOL    HW2 4990   8.191   6.521   1.865  1.8264 -1.3689 -0.9172
  946SOL     OW 4991   7.982   8.111   4.241 -0.2795 -0.3745  0.1564
  946SOL    HW1 4992   7.946   8.083   4.325  0.5540 -0.1542  0.6047
  946SOL    HW2 4993   8.016   8.199   4.257  1.8884 -1.1522  0.2407
  947SOL     OW 4994   5.369   6.868   8.359  0.6623 -0.0392 -0.1087
  947SOL    HW1 4995   5.321   6.897   8.437 -1.1260  0.3828 -1.3264
  947SOL    HW2 4996   5.398   6.780   8.381 -0.6203 -0.2888  0.7101
  948SOL     OW 4997   7.980   2.543   6.206  0.2069 -0.5245 -0.7531
  948SOL    HW1 4998   7.926   2.612   6.167 -0.5534 -0.8502 -0.2907
  948SOL    HW2 4999   7.961   2.465   6.155  0.3712 -0.6025 -0.6951
  949SOL     OW 5000   6.005   7.279   7.914 -0.1091 -0.1337 -0.1403
  949SOL    HW1 5001   6.099   7.271   7.894  1.3250  1.2160  4.6359
  949SOL    HW2 5002   5.979   7.361   7.873  0.2447 -1.2901 -2.8746
  950SOL     OW 5003   3.198   0.808   2.242 -0.1366  0.5348  0.0909
  950SOL    HW1 5004   3.144   0.778   2.316  0.9393  0.6095  0.9212
  950SOL    HW2 5005   3.156   0.768   2.166 -0.0715 -1.2786  0.9380
  951SOL     OW 5006   5.673   0.309   6.523  0.3564  0.0666 -0.1622
  951SOL    HW1 5007   5.634   0.317   6.436  1.6071 -0.6843 -0.8389
  951SOL    HW2 5008   5.615   0.249   6.570 -0.7588  1.0970 -0.1913
  952SOL     OW 5009   5.882   0.164   7.980 -0.3164 -0.2740 -0.9756
  952SOL    HW1 5010   5.879   0.259   7.985  1.2863 -0.1384 -1.9538
  952SOL    HW2 5011   5.970   0.144   7.949 -0.2479 -2.1413  0.2568
  953SOL     OW 5012   9.311   6.334   2.296 -0.1439  0.2218  0.2374
  953SOL    HW1 5013   9.229   6.328   2.247  0.0128  1.6694 -0.2714
  953SOL    HW2 5014   9.284   6.346   2.387 -0.4444 -1.7352  0.4450
  954SOL     OW 5015   3.078   3.869   7.685 -0.4341 -0.4987 -0.0468
  954SOL    HW1 5016   3.166   3.830   7.689 -0.6209 -0.8619  2.9887
  954SOL    HW2 5017   3.019   3.796   7.669 -0.2372 -0.2103 -2.4208
  955SOL     OW 5018   7.297   3.978   1.945  0.3470 -0.3902 -0.5323
  955SOL    HW1 5019   7.221   3.943   1.899 -1.1804 -0.5946  1.9704
  955SOL    HW2 5020   7.352   3.901   1.962 -0.5412 -0.8115  0.5341
  956SOL     OW 5021   8.268   4.253   7.111  0.0840 -0.1084  0.9683
  956SOL    HW1 5022   8.275   4.213   7.024 -2.8519 -1.2810  1.1483
  956SOL    HW2 5023   8.357   4.251   7.146  1.1729 -0.4616 -1.6250
  957SOL     OW 5024   4.801   2.939   8.571 -0.1944  0.3029  0.2120
  957SOL    HW1 5025   4.751   3.019   8.558 -0.0183  0.1043 -2.1250
  957SOL    HW2 5026   4.891   2.964   8.548 -0.0468 -0.4306 -0.0274
  958SOL     OW 5027   6.573   3.924   0.310  0.0701  1.1158  0.1255
  958SOL    HW1 5028   6.543   4.015   0.314  0.2281  1.2326 -0.9879
  958SOL    HW2 5029   6.667   3.932   0.292 -0.0786  0.7356 -0.8628
  959SOL     OW 5030   6.465   1.487   7.911 -0.5817  0.1331 -0.2113
  959SOL    HW1 5031   6.486   1.479   8.004 -0.6819 -0.1622 -0.2140
  959SOL    HW2 5032   6.523   1.557   7.880  0.8801 -1.0794 -0.3547
  960SOL     OW 5033   7.337   4.220   9.461  0.5297 -0.1659 -0.0468
  960SOL    HW1 5034   7.245   4.192   9.460  0.2210  0.7391 -2.5936
  960SOL    HW2 5035   7.384   4.147   9.421  0.3567  0.8665 -2.2621
  961SOL     OW 5036   9.246   6.977   4.634  0.0731 -0.0165  0.3212
  961SOL    HW1 5037   9.207   7.046   4.580  1.0749  0.0114 -0.3955
  961SOL    HW2 5038   9.329   7.015   4.665  0.5381 -0.8230  0.0787
  962SOL     OW 5039   9.119   1.998   5.838 -0.1403  0.3269 -0.0165
  962SOL    HW1 5040   9.139   2.011   5.931 -0.4181  0.2106  0.0595
  962SOL    HW2 5041   9.058   2.069   5.817  0.0650  0.4634 -0.1581
  963SOL     OW 5042   9.204   7.085   8.177  0.0810 -0.0800 -0.4358
  963SOL    HW1 5043   9.281   7.131   8.144  0.2295  0.6071  0.7876
  963SOL    HW2 5044   9.167   7.144   8.243 -0.3649 -1.2289  0.3916
  964SOL     OW 5045   2.055   9.333   0.614  0.3421 -0.2313  0.3376
  964SOL    HW1 5046   1.984   9.292   0.565 -0.5988  0.0612  1.4148
  964SOL    HW2 5047   2.053   9.291   0.700  1.9495 -0.7290  0.1788
  965SOL     OW 5048   4.084   3.018   3.675 -0.4187  0.2990  0.4084
  965SOL    HW1 5049   4.104   2.926   3.658  0.9552  0.4913  0.8326
  965SOL    HW2 5050   4.119   3.065   3.599 -2.1593  0.4058 -0.3813
  966SOL     OW 5051   4.925   4.992   2.033 -0.3322  0.3577 -0.5404
  966SOL    HW1 5052   4.943   4.998   2.126 -1.6387  3.2849 -0.3604
  966SOL    HW2 5053   4.997   5.038   1.991 -0.6190  0.5408 -0.8413
  967SOL     OW 5054   8.818   3.467   6.013  0.6683 -0.6580  0.2974
  967SOL    HW1 5055   8.753   3.487   6.080  0.2595 -1.6029  0.1978
  967SOL    HW2 5056   8.902   3.483   6.055  0.3924  1.8033  0.0501
  968SOL     OW 5057   9.103   5.473   2.332  0.5633 -0.2230  0.3696
  968SOL    HW1 5058   9.021   5.484   2.284  1.8018 -1.2267 -2.1275
  968SOL    HW2 5059   9.136   5.563   2.341  0.6538 -0.0500 -1.3684
  969SOL     OW 5060   8.909   3.201   3.756  0.3827 -0.5065 -0.0113
  969SOL    HW1 5061   8.829   3.191   3.807  1.6574 -0.2052  2.1849
  969SOL    HW2 5062   8.893   3.151   3.675 -2.2590  0.2012  0.0005
  970SOL     OW 5063   5.429   7.964   8.981  0.5087  0.4666  0.5180
  970SOL    HW1 5064   5.427   7.885   8.928  3.7676  0.3212  0.4129
  970SOL    HW2 5065   5.431   8.036   8.918 -0.9417  0.5990  0.5931
  971SOL     OW 5066   3.619   6.397   2.943 -0.2803  0.7120 -0.1380
  971SOL    HW1 5067   3.559   6.386   2.869 -1.1931 -0.1464  0.7128
  971SOL    HW2 5068   3.699   6.353   2.914 -0.9197 -0.3941 -0.2938
  972SOL     OW 5069   3.541   1.227   7.044 -0.1823 -0.6901 -0.0153
  972SOL    HW1 5070   3.459   1.275   7.054 -0.3877 -0.9728 -0.3156
  972SOL    HW2 5071   3.607   1.295   7.033 -0.7312 -0.4464 -2.4635
  973SOL     OW 5072   8.560   8.539   2.919 -0.3509 -0.1045 -0.2898
  973SOL    HW1 5073   8.597   8.487   2.848  1.0723 -1.7899  1.5879
  973SOL    HW2 5074   8.541   8.476   2.988  0.0431  1.6768  1.5480
  974SOL     OW 5075   3.566   2.697   6.285 -0.0619 -0.0037  0.5925
  974SOL    HW1 5076   3.647   2.645   6.286 -0.3064 -0.4481 -0.7752
  974SOL    HW2 5077   3.527   2.681   6.371  1.0843 -0.1199  1.1200
  975SOL     OW 5078   1.773   4.310   1.593  0.5203 -0.3763 -0.0607
  975SOL    HW1 5079   1.758   4.303   1.499  0.7022 -1.6644 -0.0011
  975SOL    HW2 5080   1.735   4.395   1.617  1.4964  0.5159 -1.4831
  976SOL     OW 5081   9.422   9.130   3.535 -0.6193 -0.0802 -0.7996
  976SOL    HW1 5082   9.341   9.182   3.536 -0.2121  0.6075  1.2461
  976SOL    HW2 5083   9.401   9.052   3.586  0.1038  0.2974  0.0979
  977SOL     OW 5084   5.205   9.198   3.363  0.3896  0.3963  0.0174
  977SOL    HW1 5085   5.156   9.273   3.328  0.2177  0.6292  0.7358
  977SOL    HW2 5086   5.279   9.188   3.304 -0.3719  0.2123 -0.9327
  978SOL     OW 5087   1.693   0.787   9.617 -0.7000  0.1542  0.4612
  978SOL    HW1 5088   1.640   0.768   9.539 -0.9170  1.2274  0.3357
  978SOL    HW2 5089   1.767   0.838   9.583 -0.7771  0.5944  0.9550
  979SOL     OW 5090   4.794   6.454   4.792  0.7851 -0.2581  0.0696
  979SOL    HW1 5091   4.789   6.498   4.877  1.5905  0.3070 -0.1675
  979SOL    HW2 5092   4.809   6.524   4.729 -0.9878 -0.5349 -0.7129
  980SOL     OW 5093   9.509   2.039   8.946  0.0712  0.0475  0.5596
  980SOL    HW1 5094   9.566   2.109   8.978 -0.6795  0.5658  0.7904
  980SOL    HW2 5095   9.569   1.974   8.910  0.8398  0.3186  1.3109
  981SOL     OW 5096   2.156   3.689   1.923 -0.3074 -0.1630  0.7442
  981SOL    HW1 5097   2.216   3.762   1.904 -2.0179  0.9732 -0.5822
  981SOL    HW2 5098   2.209   3.611   1.909  0.7798  0.7818 -0.8170
  982SOL     OW 5099   0.777   7.339   3.060 -0.3993  0.4208 -0.7000
  982SOL    HW1 5100   0.860   7.350   3.013 -0.4119  0.6891 -0.6622
  982SOL    HW2 5101   0.719   7.297   2.996 -0.0581 -0.3071 -0.5333
  983SOL     OW 5102   7.840   8.232   4.918 -0.0896 -0.3845  0.6859
  983SOL    HW1 5103   7.878   8.307   4.965  1.0910  0.4309 -1.4600
  983SOL    HW2 5104   7.758   8.215   4.965  0.6383  0.8459  2.5542
  984SOL     OW 5105   5.457   7.151   8.604  0.3581 -0.6557 -0.1209
  984SOL    HW1 5106   5.449   7.200   8.686 -1.6384 -1.3033  0.1051
  984SOL    HW2 5107   5.473   7.061   8.631 -1.5261 -1.0975 -0.3695
  985SOL     OW 5108   6.981   3.761   8.828  0.2344  0.1125  0.0663
  985SOL    HW1 5109   7.015   3.811   8.754  0.7449  0.0500  0.2535
  985SOL    HW2 5110   6.887   3.761   8.816  0.1632  1.7594  0.4720
  986SOL     OW 5111   6.986   9.055   2.701  0.4180 -0.0846  0.3248
  986SOL    HW1 5112   7.061   9.007   2.665  0.7621  1.0810 -0.6047
  986SOL    HW2 5113   6.930   9.072   2.625 -0.1791  0.1392  0.8058
  987SOL     OW 5114   2.623   0.184   9.213  0.5491 -0.0391  0.0353
  987SOL    HW1 5115   2.656   0.157   9.298  1.0255  2.5085  0.7418
  987SOL    HW2 5116   2.700   0.179   9.155  1.3108  2.0747  0.7610
  988SOL     OW 5117   8.486   3.066   2.383  0.1099  0.2481 -0.4542
  988SOL    HW1 5118   8.403   3.095   2.421 -0.7204 -0.7001 -1.4758
  988SOL    HW2 5119   8.516   2.997   2.442  0.3782  0.8374  0.1173
  989SOL     OW 5120   2.780   6.931   0.683 -0.6091  0.1413 -0.0605
  989SOL    HW1 5121   2.750   7.015   0.647  0.0453  0.7685  0.8041
  989SOL    HW2 5122   2.704   6.899   0.732 -0.8883  0.1858 -0.4528
  990SOL     OW 5123   4.600   5.228   9.266 -0.3982  0.3362  0.2384
  990SOL    HW1 5124   4.537   5.297   9.247 -0.4702  0.3183  0.4091
  990SOL    HW2 5125   4.552   5.147   9.247 -0.7350  0.2896  1.2427
  991SOL     OW 5126   6.290   2.846   5.595 -0.7664  0.0353 -0.2462
  991SOL    HW1 5127   6.255   2.863   5.682 -2.2995  0.1509 -0.8632
  991SOL    HW2 5128   6.383   2.826   5.610 -1.3278 -1.4370  1.5489
  992SOL     OW 5129   9.389   0.348   0.043 -0.7193 -0.6043 -0.3007
  992SOL    HW1 5130   9.390   0.275   0.105 -0.7664 -1.1463 -0.9305
  992SOL    HW2 5131   9.453   0.325  -0.023  1.0946  1.0894  0.7704
  993SOL     OW 5132   7.325   4.046   4.778 -0.6056  0.0772  0.0393
  993SOL    HW1 5133   7.350   4.067   4.688 -0.9079 -0.6471 -0.2184
  993SOL    HW2 5134   7.378   3.970   4.801 -1.1899 -0.3038  0.1499
  994SOL     OW 5135   4.468   5.534   5.842  0.6162 -0.3801 -0.4766
  994SOL    HW1 5136   4.404   5.489   5.896 -0.3857  0.2191 -1.1363
  994SOL    HW2 5137   4.543   5.475   5.838  0.6212 -0.5483  1.3454
  995SOL     OW 5138   5.006   2.190   1.908 -0.6885 -0.0183  0.7082
  995SOL    HW1 5139   5.069   2.250   1.948 -0.9185  0.2333  0.6972
  995SOL    HW2 5140   5.050   2.105   1.909  0.1395  0.3636 -0.3965
  996SOL     OW 5141   9.286   3.566   0.988  0.0005 -0.5051  0.5844
  996SOL    HW1 5142   9.234   3.575   1.068 -0.8626 -0.4298  0.0348
  996SOL    HW2 5143   9.360   3.626   1.001 -1.2049  1.0697  0.5032
  997SOL     OW 5144   3.072   9.080   5.266  0.7891 -0.1042  0.0100
  997SOL    HW1 5145   3.082   9.018   5.339  0.5618 -0.1137  0.0320
  997SOL    HW2 5146   3.046   9.162   5.307  3.1628  0.6196  0.2159
  998SOL     OW 5147   2.714   5.398   7.727  0.1454 -0.6185  0.4349
  998SOL    HW1 5148   2.743   5.399   7.819 -1.4847 -0.1221  0.9786
  998SOL    HW2 5149   2.720   5.490   7.699  0.9672 -0.8204 -0.0802
  999SOL     OW 5150   6.558   3.011   9.432  0.0016  0.0041 -0.2980
  999SOL    HW1 5151   6.481   3.006   9.487 -0.2213 -0.6248 -0.6556
  999SOL    HW2 5152   6.595   3.097   9.450  0.3773 -0.4740  1.4037
 1000SOL     OW 5153   3.150   4.020   6.773 -0.5400 -0.0660 -0.1163
 1000SOL    HW1 5154   3.068   4.065   6.792 -1.4538 -2.3122  1.7192
 1000SOL    HW2 5155   3.199   4.023   6.855 -0.1482 -1.4017 -0.2773
 1001SOL     OW 5156   0.122   9.013   5.340  0.6341 -0.4137 -0.1672
 1001SOL    HW1 5157   0.180   8.978   5.272  0.8103  1.5746 -1.0903
 1001SOL    HW2 5158   0.179   9.064   5.397  0.1070 -0.0686  0.0639
 1002SOL     OW 5159   1.412   5.773   3.515 -0.0825  0.0539 -0.2978
 1002SOL    HW1 5160   1.480   5.715   3.548  0.6310  0.8373 -0.3601
 1002SOL    HW2 5161   1.456   5.828   3.450 -0.7976  0.5000 -0.4195
 1003SOL     OW 5162   6.802   7.208   5.060  0.0468  0.0786  0.0867
 1003SOL    HW1 5163   6.849   7.154   5.124 -0.0681  1.2104  1.1627
 1003SOL    HW2 5164   6.787   7.291   5.105 -0.8347  0.5949 -1.1062
 1004SOL     OW 5165   6.139   3.106   7.746 -0.0933 -0.2290  0.0369
 1004SOL    HW1 5166   6.137   3.136   7.655  0.7120  0.4918  0.2482
 1004SOL    HW2 5167   6.052   3.069   7.760 -0.8048  1.1586 -0.5243
 1005SOL     OW 5168   0.365   6.862   1.833 -0.1602  0.2511 -0.4283
 1005SOL    HW1 5169   0.312   6.928   1.878  1.7293  1.7107 -0.2114
 1005SOL    HW2 5170   0.384   6.901   1.748 -0.9557 -1.0607 -1.2235
 1006SOL     OW 5171   3.032   1.757   3.738  0.6189  0.3086 -0.0067
 1006SOL    HW1 5172   3.076   1.723   3.660  0.0927  0.0593 -0.1943
 1006SOL    HW2 5173   3.054   1.695   3.807 -1.9548 -1.5956 -0.7625
 1007SOL     OW 5174   8.722   0.319   8.762  0.3650 -0.0704  0.3957
 1007SOL    HW1 5175   8.651   0.335   8.701  1.3616 -1.1332 -1.1185
 1007SOL    HW2 5176   8.801   0.315   8.707  1.6062  1.0490  2.0035
 1008SOL     OW 5177   9.403   7.761   6.358 -0.2288 -0.6103  0.1123
 1008SOL    HW1 5178   9.407   7.799   6.446 -2.9339  0.5512 -0.1630
 1008SOL    HW2 5179   9.481   7.794   6.314  1.8235 -2.1573  2.3530
 1009SOL     OW 5180   6.598   2.843   8.786 -0.4790 -0.1520 -0.2880
 1009SOL    HW1 5181   6.509   2.825   8.816 -0.2527 -0.8650 -0.0181
 1009SOL    HW2 5182   6.614   2.934   8.812 -1.0878 -0.0560 -0.2422
 1010SOL     OW 5183   1.455   2.197   2.544 -0.3923  0.4270  0.0907
 1010SOL    HW1 5184   1.466   2.292   2.535 -1.6891  0.5730 -0.2963
 1010SOL    HW2 5185   1.456   2.164   2.454 -0.5493  0.1644  0.1834
 1011SOL     OW 5186   5.887   5.707   2.360  0.1271  0.2160 -0.0985
 1011SOL    HW1 5187   5.922   5.629   2.404 -0.5499  1.1088  2.2089
 1011SOL    HW2 5188   5.803   5.722   2.404  0.9371  3.0953  0.6587
 1012SOL     OW 5189   4.831   7.443   3.628  0.0918 -0.1306 -0.1557
 1012SOL    HW1 5190   4.753   7.395   3.600 -0.7995  0.5434  1.0217
 1012SOL    HW2 5191   4.904   7.398   3.585 -0.7658 -1.9867  0.1944
 1013SOL     OW 5192   5.395   9.138   9.442  0.2231 -0.1502  0.5449
 1013SOL    HW1 5193   5.394   9.203   9.512  0.1194  0.0091  0.3957
 1013SOL    HW2 5194   5.310   9.148   9.399 -0.3695 -1.3145  1.3813
 1014SOL     OW 5195   9.349   2.759   1.334  0.5085  0.0044  0.1029
 1014SOL    HW1 5196   9.325   2.852   1.327 -0.1251 -0.0763  1.0662
 1014SOL    HW2 5197   9.267   2.712   1.320  0.6642 -0.3753  0.4502
 1015SOL     OW 5198   0.632   6.598   9.431  0.0789  0.2550  1.2733
 1015SOL    HW1 5199   0.587   6.534   9.377  0.5313  0.7271  0.3171
 1015SOL    HW2 5200   0.675   6.657   9.369  1.3819  0.2677  2.1339
 1016SOL     OW 5201   9.307   4.005   0.161  0.1640  0.1528 -0.3483
 1016SOL    HW1 5202   9.235   4.034   0.218  1.4808 -0.6478  1.8163
 1016SOL    HW2 5203   9.386   4.038   0.203  1.1985 -0.2638 -1.8739
 1017SOL     OW 5204   1.369   2.600   3.748 -0.1520  0.6229 -0.0850
 1017SOL    HW1 5205   1.296   2.563   3.699  0.1390  0.4207 -0.3728
 1017SOL    HW2 5206   1.331   2.627   3.832 -0.4657  0.1132 -0.0588
 1018SOL     OW 5207   3.742   5.061   1.420  0.2255 -0.4115  0.3071
 1018SOL    HW1 5208   3.715   4.970   1.431 -0.5768 -0.2282 -0.0922
 1018SOL    HW2 5209   3.747   5.074   1.326 -0.6783  0.2377  0.3374
 1019SOL     OW 5210   5.328   2.385   0.240  0.1895  0.5230  0.1261
 1019SOL    HW1 5211   5.258   2.383   0.305  0.1307 -1.8276  0.0757
 1019SOL    HW2 5212   5.381   2.461   0.264 -1.4701  1.4258  1.1102
 1020SOL     OW 5213   6.061   5.934   4.372  0.4608 -0.3935  0.1357
 1020SOL    HW1 5214   6.011   5.925   4.291  1.3707 -3.0481 -0.2254
 1020SOL    HW2 5215   5.998   5.917   4.441 -0.5878  2.9648  0.1958
 1021SOL     OW 5216   0.153   3.180   6.840  0.0440 -0.5125 -0.2558
 1021SOL    HW1 5217   0.192   3.111   6.787 -0.6088 -0.3733 -0.9231
 1021SOL    HW2 5218   0.091   3.223   6.782 -2.0256 -1.4987  1.1217
 1022SOL     OW 5219   6.424   5.296   9.343  0.0248 -0.2661  0.4513
 1022SOL    HW1 5220   6.457   5.305   9.433  1.1117 -0.1433  0.0538
 1022SOL    HW2 5221   6.456   5.374   9.298  1.1275 -1.2185 -0.5079
 1023SOL     OW 5222   6.284   7.954   3.285 -0.6058  0.0259 -0.2020
 1023SOL    HW1 5223   6.374   7.952   3.251 -0.4255  1.4740  0.1503
 1023SOL    HW2 5224   6.240   7.882   3.239  0.6286 -0.4822 -0.6413
 1024SOL     OW 5225   7.895   0.206   4.722 -0.1438 -0.6928 -0.1783
 1024SOL    HW1 5226   7.972   0.197   4.777  1.6498  2.7581 -1.8296
 1024SOL    HW2 5227   7.829   0.244   4.779 -0.0914 -1.9558  0.7807
 1025SOL     OW 5228   5.788   1.997   3.652 -0.1094  0.2854  0.3453
 1025SOL    HW1 5229   5.798   2.055   3.728  0.1310  1.4208 -0.5123
 1025SOL    HW2 5230   5.707   1.949   3.668 -0.1203  0.5936  1.2643
 1026SOL     OW 5231   3.550   1.321   2.365  0.3022  0.3386  0.3468
 1026SOL    HW1 5232   3.521   1.248   2.310 -1.9970 -0.9529  2.9969
 1026SOL    HW2 5233   3.627   1.288   2.411 -0.5755 -0.3922  1.3404
 1027SOL     OW 5234   6.694   4.814   7.706  0.0387 -0.0596 -0.4245
 1027SOL    HW1 5235   6.635   4.783   7.775  0.4311 -3.2693 -1.3608
 1027SOL    HW2 5236   6.764   4.859   7.753  0.3094 -2.1604  1.3591
 1028SOL     OW 5237   4.539   7.608   2.363 -0.3234 -0.0436 -0.2117
 1028SOL    HW1 5238   4.489   7.568   2.292 -0.6487 -0.0785  0.0340
 1028SOL    HW2 5239   4.498   7.693   2.378  0.0752  0.1919 -0.4171
 1029SOL     OW 5240   0.667   0.434   2.071  0.1747 -0.5870 -0.2165
 1029SOL    HW1 5241   0.578   0.439   2.105  0.1298 -3.6254  0.4168
 1029SOL    HW2 5242   0.716   0.387   2.138  1.6126 -1.3285 -1.6999
 1030SOL     OW 5243   8.989   4.863   3.248 -0.3182  0.3252  0.0976
 1030SOL    HW1 5244   9.084   4.852   3.253 -0.4497 -0.9527  0.1209
 1030SOL    HW2 5245   8.965   4.827   3.163 -1.0004 -1.2177  0.9097
 1031SOL     OW 5246   8.358   8.232   2.762  0.5062 -0.3594 -0.5584
 1031SOL    HW1 5247   8.312   8.155   2.794 -1.4568  0.9426 -0.0264
 1031SOL    HW2 5248   8.359   8.292   2.836  0.4256  0.7822 -1.4506
 1032SOL     OW 5249   8.823   3.142   7.790  0.0705 -0.5424 -0.3238
 1032SOL    HW1 5250   8.798   3.206   7.857  0.7005 -1.2963  0.6569
 1032SOL    HW2 5251   8.878   3.192   7.729  0.0729 -0.0049  0.1087
 1033SOL     OW 5252   3.769   6.452   8.344 -0.2564 -0.0588 -0.2755
 1033SOL    HW1 5253   3.799   6.362   8.330  1.2715  0.5828 -1.3130
 1033SOL    HW2 5254   3.810   6.477   8.427 -1.4873 -0.6022  0.5436
 1034SOL     OW 5255   2.336   5.841   9.405  0.6596  0.3191  0.1778
 1034SOL    HW1 5256   2.284   5.909   9.448 -2.2684 -1.0882 -0.8331
 1034SOL    HW2 5257   2.424   5.851   9.440 -0.4101  2.5127  2.4936
 1035SOL     OW 5258   7.802   4.520   7.518 -0.1379  0.0152 -0.0549
 1035SOL    HW1 5259   7.746   4.595   7.500 -1.8149 -1.6906 -2.5557
 1035SOL    HW2 5260   7.741   4.447   7.532  1.4275 -1.2898  0.3486
 1036SOL     OW 5261   9.280   4.544   6.319  0.1716 -0.8320 -0.3531
 1036SOL    HW1 5262   9.217   4.612   6.298  0.3801 -1.1196 -2.0175
 1036SOL    HW2 5263   9.327   4.578   6.396 -0.5566  0.3316 -0.4012
 1037SOL     OW 5264   8.803   4.382   9.468  0.1922 -0.3300  0.5465
 1037SOL    HW1 5265   8.716   4.421   9.475 -0.5696 -2.1706  2.1356
 1037SOL    HW2 5266   8.857   4.433   9.529  0.0673  0.3427  0.1044
 1038SOL     OW 5267   3.950   6.891   0.659  0.3408  0.2797  0.0527
 1038SOL    HW1 5268   3.901   6.971   0.677  0.0447  0.2772 -0.7243
 1038SOL    HW2 5269   3.945   6.880   0.564  0.1271 -0.8129  0.1736
 1039SOL     OW 5270   5.329   1.911   8.939  0.6407 -0.0048 -0.6580
 1039SOL    HW1 5271   5.416   1.946   8.919  1.3695 -1.4988 -0.2506
 1039SOL    HW2 5272   5.280   1.922   8.857  1.5495 -0.1092 -1.2346
 1040SOL     OW 5273   2.279   7.580   4.998 -0.2421 -0.3194 -0.5083
 1040SOL    HW1 5274   2.266   7.639   4.924 -0.1622  0.6035  0.2015
 1040SOL    HW2 5275   2.284   7.493   4.958 -4.2654 -0.3899 -1.2649
 1041SOL     OW 5276   5.297   3.396   5.857  0.0697 -0.2053  0.0029
 1041SOL    HW1 5277   5.388   3.374   5.878 -0.5526 -2.9623  0.1660
 1041SOL    HW2 5278   5.270   3.455   5.928  1.5671  0.3011  0.1964
 1042SOL     OW 5279   0.074   6.722   3.654  0.3441  0.1431  0.4468
 1042SOL    HW1 5280   0.001   6.662   3.670  1.2412 -0.5520  2.2761
 1042SOL    HW2 5281   0.149   6.664   3.638  0.8068  0.8208  0.1072
 1043SOL     OW 5282   9.361   7.204   3.969  0.1317 -0.1334  0.2091
 1043SOL    HW1 5283   9.397   7.292   3.978  0.3874 -0.3905  1.9412
 1043SOL    HW2 5284   9.375   7.182   3.876 -1.3527  2.2100 -0.6549
 1044SOL     OW 5285   7.195   3.680   5.274 -0.4642 -0.1429  0.0966
 1044SOL    HW1 5286   7.100   3.686   5.288 -0.2524 -1.2251  2.5030
 1044SOL    HW2 5287   7.205   3.613   5.206 -1.4211  0.2158 -0.4125
 1045SOL     OW 5288   5.825   7.390   4.428  0.3046  0.3277  0.3129
 1045SOL    HW1 5289   5.881   7.421   4.357 -1.7203  0.6933 -1.2516
 1045SOL    HW2 5290   5.770   7.466   4.450  0.3512 -0.0220  1.7470
 1046SOL     OW 5291   0.761   3.457   2.482 -0.2484  0.1321  0.3399
 1046SOL    HW1 5292   0.769   3.385   2.544 -0.3298  0.2584  0.4967
 1046SOL    HW2 5293   0.823   3.435   2.412  1.9303  1.3530  1.7733
 1047SOL     OW 5294   7.835   3.093   3.219 -0.1632 -0.1647 -0.5679
 1047SOL    HW1 5295   7.853   3.131   3.305 -0.2363  0.0222 -0.6351
 1047SOL    HW2 5296   7.744   3.065   3.223 -0.5758  1.0241 -1.0149
 1048SOL     OW 5297   9.134   2.607   4.992  0.1967 -0.1695 -0.3490
 1048SOL    HW1 5298   9.089   2.531   4.956 -3.1615  0.6132  1.7279
 1048SOL    HW2 5299   9.108   2.680   4.936 -1.6266  0.3588  1.0977
 1049SOL     OW 5300   3.455   0.631   5.270 -0.1990  0.2481 -0.6703
 1049SOL    HW1 5301   3.490   0.577   5.340  0.0401 -1.9638 -2.4019
 1049SOL    HW2 5302   3.377   0.673   5.308  0.7923  0.3603  1.3342
 1050SOL     OW 5303   0.936   6.371   2.548  0.8705 -0.1086 -0.7565
 1050SOL    HW1 5304   1.009   6.321   2.512  0.9904 -1.0335  0.6722
 1050SOL    HW2 5305   0.905   6.318   2.622 -0.8238  0.5803 -0.9314
 1051SOL     OW 5306   4.123   5.027   2.253 -0.1355  0.1227 -0.3919
 1051SOL    HW1 5307   4.125   4.934   2.230  1.9880 -0.8027  2.8561
 1051SOL    HW2 5308   4.189   5.067   2.198 -1.1461 -0.2059 -1.9018
 1052SOL     OW 5309   4.835   4.665   9.500 -0.2407 -0.0961 -0.1386
 1052SOL    HW1 5310   4.796   4.711   9.575 -1.2877 -1.4587  0.2059
 1052SOL    HW2 5311   4.925   4.646   9.528 -0.5534 -0.4028  0.7128
 1053SOL     OW 5312   4.575   8.059   6.255 -0.7869  0.0612  0.6955
 1053SOL    HW1 5313   4.522   8.079   6.332 -0.3083 -0.7816  1.2573
 1053SOL    HW2 5314   4.511   8.028   6.190 -0.9753 -1.3596  1.5105
 1054SOL     OW 5315   5.780   7.704   3.020  0.1836  0.1330  0.0033
 1054SOL    HW1 5316   5.810   7.761   3.091 -3.4026  1.3550  0.7593
 1054SOL    HW2 5317   5.727   7.638   3.064 -1.7526  0.6577 -1.3854
 1055SOL     OW 5318   8.592   8.850   8.755  0.6340 -0.0112 -0.1253
 1055SOL    HW1 5319   8.527   8.799   8.803  1.8606 -0.4328  1.1618
 1055SOL    HW2 5320   8.676   8.825   8.794  1.3884  2.1730 -0.1916
 1056SOL     OW 5321   7.967   9.338   2.009 -0.0211  1.3450  0.3855
 1056SOL    HW1 5322   8.006   9.250   2.009  0.6526  1.6304  0.5048
 1056SOL    HW2 5323   7.974   9.367   1.918  0.6909  1.6658  0.5372
 1057SOL     OW 5324   6.659   1.179   0.916 -0.4683 -0.2825  0.0480
 1057SOL    HW1 5325   6.628   1.165   1.006 -0.5510 -2.6474 -0.2787
 1057SOL    HW2 5326   6.747   1.142   0.915  0.1901  1.2429 -0.4522
 1058SOL     OW 5327   2.524   0.280   3.869  0.2560  0.3945  0.8795
 1058SOL    HW1 5328   2.450   0.307   3.924 -1.2320  0.9833 -1.2551
 1058SOL    HW2 5329   2.585   0.354   3.875 -1.3041  1.9057 -0.6056
 1059SOL     OW 5330   1.760   8.548   3.030 -0.0477 -0.4682  0.4889
 1059SOL    HW1 5331   1.753   8.534   2.935 -1.9322  0.0979  0.4920
 1059SOL    HW2 5332   1.784   8.462   3.065 -2.2918 -1.4971 -0.2826
 1060SOL     OW 5333   1.761   8.056   6.947 -0.7576 -0.2236 -0.3075
 1060SOL    HW1 5334   1.679   8.014   6.973 -1.0045  0.8826  0.7874
 1060SOL    HW2 5335   1.828   8.012   6.999 -0.6639 -0.9810 -1.0456
 1061SOL     OW 5336   1.132   6.807   0.313  0.0564 -0.1561 -0.1389
 1061SOL    HW1 5337   1.079   6.887   0.320 -0.7759 -0.4179 -2.6205
 1061SOL    HW2 5338   1.134   6.788   0.219  1.1353 -2.4704  0.2997
 1062SOL     OW 5339   0.047   1.781   2.119 -0.7644  0.2443  0.0757
 1062SOL    HW1 5340   0.121   1.836   2.095 -0.1216 -0.0485  1.3184
 1062SOL    HW2 5341   0.070   1.694   2.086 -0.0816 -0.0603  1.2799
 1063SOL     OW 5342   3.615   5.470   2.987  0.3762 -0.2344  0.2206
 1063SOL    HW1 5343   3.610   5.541   3.051 -1.9092  1.5317 -1.7396
 1063SOL    HW2 5344   3.550   5.406   3.017  2.6797 -1.8474  2.1821
 1064SOL     OW 5345   2.138   4.330   9.343 -0.0770 -0.3924  0.4418
 1064SOL    HW1 5346   2.192   4.323   9.421 -0.5797  1.9925  1.0861
 1064SOL    HW2 5347   2.048   4.321   9.374 -0.2203 -0.6742 -0.0465
 1065SOL     OW 5348   4.484   4.390   0.583  0.7334  0.1100 -0.0887
 1065SOL    HW1 5349   4.478   4.480   0.553  0.2626 -0.7779 -2.9646
 1065SOL    HW2 5350   4.422   4.385   0.656  0.0746  1.8781 -0.4873
 1066SOL     OW 5351   1.310   8.325   3.011 -0.0354 -0.3209 -0.0454
 1066SOL    HW1 5352   1.219   8.311   3.034 -0.2255  0.6391 -0.1894
 1066SOL    HW2 5353   1.313   8.415   2.978  1.2297  0.1754  1.3193
 1067SOL     OW 5354   6.189   6.139   1.261  0.2370 -0.6339  0.2875
 1067SOL    HW1 5355   6.280   6.153   1.235  0.3089  0.0460  0.8848
 1067SOL    HW2 5356   6.182   6.178   1.348 -1.5402  2.6867 -1.1370
 1068SOL     OW 5357   4.111   9.453   0.280  0.0042  0.5204 -0.0637
 1068SOL    HW1 5358   4.157   9.418   0.204  0.1302  0.9659 -0.1951
 1068SOL    HW2 5359   4.076   9.537   0.251 -0.1555  0.5840  0.2993
 1069SOL     OW 5360   1.594   7.923   4.049  0.6807  0.3501  0.2445
 1069SOL    HW1 5361   1.503   7.919   4.079  0.4565  1.0296 -0.3179
 1069SOL    HW2 5362   1.602   7.851   3.986  0.7323 -0.1327  0.7889
 1070SOL     OW 5363   5.942   6.914   9.495 -0.2876 -0.3784  0.0135
 1070SOL    HW1 5364   5.896   6.905   9.578  0.5103  1.6829  0.7717
 1070SOL    HW2 5365   6.033   6.892   9.515  0.3449  2.1708  0.3076
 1071SOL     OW 5366   2.431   5.087   9.516 -0.5172  0.4672 -0.3047
 1071SOL    HW1 5367   2.485   5.016   9.482 -0.2202  0.9096 -0.7751
 1071SOL    HW2 5368   2.342   5.063   9.492 -0.5266 -0.1839  0.3244
 1072SOL     OW 5369   1.377   2.069   9.632 -0.0611  0.1086  0.1191
 1072SOL    HW1 5370   1.328   2.010   9.690 -0.8347 -0.7826 -1.3718
 1072SOL    HW2 5371   1.444   2.108   9.688  1.2434 -3.0645  0.9815
 1073SOL     OW 5372   9.490   6.278   4.823  0.0283  0.1096 -0.2541
 1073SOL    HW1 5373   9.425   6.348   4.832 -0.4090 -0.2962 -0.2171
 1073SOL    HW2 5374   9.450   6.215   4.763 -1.0242 -1.7284  2.2186
 1074SOL     OW 5375   4.973   2.074   1.145 -0.8885  0.6926 -0.3648
 1074SOL    HW1 5376   5.044   2.010   1.144 -1.3235  0.2107 -1.2744
 1074SOL    HW2 5377   4.991   2.129   1.221 -0.3629 -0.3425  0.2712
 1075SOL     OW 5378   1.819   1.247   0.288 -0.1010 -0.3476 -0.0802
 1075SOL    HW1 5379   1.870   1.187   0.343 -2.1580 -1.5616  0.5919
 1075SOL    HW2 5380   1.796   1.319   0.347 -0.7074 -0.7156  0.1393
 1076SOL     OW 5381   5.554   2.324   7.365 -0.2347  0.2444  0.5033
 1076SOL    HW1 5382   5.510   2.368   7.291 -0.9161  1.2126  1.4538
 1076SOL    HW2 5383   5.517   2.366   7.442  2.0019  0.7185  1.3828
 1077SOL     OW 5384   4.755   6.412   1.490  0.0133 -0.2303 -0.1608
 1077SOL    HW1 5385   4.768   6.440   1.580 -0.3454 -0.3330 -0.0758
 1077SOL    HW2 5386   4.663   6.387   1.486 -0.4558  1.4707 -1.0175
 1078SOL     OW 5387   9.584   3.595   2.772  0.0341 -0.4391  0.3106
 1078SOL    HW1 5388   9.524   3.588   2.698  0.7516  0.3000 -0.3520
 1078SOL    HW2 5389   9.564   3.518   2.825 -0.9580 -0.6255 -0.2913
 1079SOL     OW 5390   3.441   0.808   5.932  0.2589  0.3028  0.1377
 1079SOL    HW1 5391   3.513   0.745   5.934  0.3828  0.4237 -0.3504
 1079SOL    HW2 5392   3.467   0.877   5.993  0.1960 -0.0343  0.5508
 1080SOL     OW 5393   1.791   6.472   9.359  0.1128 -0.6233 -1.2083
 1080SOL    HW1 5394   1.833   6.407   9.415 -1.0718 -0.8150 -0.5128
 1080SOL    HW2 5395   1.840   6.552   9.373 -0.6061 -0.4695  0.7086
 1081SOL     OW 5396   3.237   0.691   7.984 -0.7935 -0.3508  0.6495
 1081SOL    HW1 5397   3.240   0.647   8.069 -1.2172  1.9411  1.9505
 1081SOL    HW2 5398   3.320   0.669   7.942 -0.0025 -0.5108  2.2292
 1082SOL     OW 5399   1.707   1.262   5.085  0.1109 -0.2241  0.4183
 1082SOL    HW1 5400   1.691   1.356   5.085  1.0790 -0.0549  0.5324
 1082SOL    HW2 5401   1.699   1.236   5.177 -0.6073 -0.3471  0.3327
 1083SOL     OW 5402   5.208   3.660   2.452 -0.3642 -0.0312 -0.1012
 1083SOL    HW1 5403   5.221   3.754   2.459  0.2040 -0.1046 -0.1133
 1083SOL    HW2 5404   5.169   3.634   2.536 -3.5402  0.6784 -1.2368
 1084SOL     OW 5405   9.482   2.562   0.015  0.5983 -0.0705 -0.1589
 1084SOL    HW1 5406   9.503   2.470  -0.004  1.5937  0.4523 -1.8078
 1084SOL    HW2 5407   9.567   2.603   0.030  0.2858  0.8335 -0.7886
 1085SOL     OW 5408   7.159   0.115   7.555 -0.0137 -0.2141  0.4699
 1085SOL    HW1 5409   7.091   0.083   7.614  0.1552 -0.9650  0.2775
 1085SOL    HW2 5410   7.193   0.193   7.598 -0.3197 -0.3913  1.0544
 1086SOL     OW 5411   2.627   6.103   8.630  0.0683 -0.2748 -0.1238
 1086SOL    HW1 5412   2.688   6.058   8.688 -0.3605 -0.2808  0.3301
 1086SOL    HW2 5413   2.580   6.033   8.585  2.0695 -0.3183 -2.3321
 1087SOL     OW 5414   7.171   1.845   0.304  0.2142 -0.1997  0.4130
 1087SOL    HW1 5415   7.194   1.852   0.397  0.3784  2.5328  0.2391
 1087SOL    HW2 5416   7.076   1.840   0.303  0.1292  1.0376  0.7209
 1088SOL     OW 5417   1.218   9.519   3.220 -0.1281 -0.3112  0.1567
 1088SOL    HW1 5418   1.262   9.448   3.173 -1.6891 -0.4800 -1.1266
 1088SOL    HW2 5419   1.277   9.593   3.213 -0.0011 -0.5411 -1.4817
 1089SOL     OW 5420   6.256   7.726   3.956  0.0379 -0.0085  0.2427
 1089SOL    HW1 5421   6.215   7.809   3.980  1.1742  0.7328 -0.3213
 1089SOL    HW2 5422   6.183   7.672   3.925 -0.5898  1.1377 -0.3437
 1090SOL     OW 5423   6.582   9.240   8.643 -0.1823 -0.0752 -0.4140
 1090SOL    HW1 5424   6.545   9.155   8.620 -4.0692  1.6849 -1.6026
 1090SOL    HW2 5425   6.544   9.301   8.579  1.1862  2.7837  1.2745
 1091SOL     OW 5426   0.415   0.182   4.168  0.0185  0.3290 -0.4730
 1091SOL    HW1 5427   0.347   0.151   4.108  0.3285 -1.0171 -0.1704
 1091SOL    HW2 5428   0.388   0.149   4.253  0.4544  0.7910 -0.1511
 1092SOL     OW 5429   1.096   1.822   7.438  0.7584  0.2539 -0.4938
 1092SOL    HW1 5430   1.124   1.759   7.505  0.4369  0.0490 -0.5521
 1092SOL    HW2 5431   1.091   1.770   7.358  1.2491  0.5226 -0.6993
 1093SOL     OW 5432   2.301   1.550   6.435 -0.8243 -0.4770  0.6719
 1093SOL    HW1 5433   2.213   1.583   6.415 -0.5839 -0.0287  0.3237
 1093SOL    HW2 5434   2.339   1.616   6.494 -0.1079  0.2262 -0.5315
 1094SOL     OW 5435   6.746   9.210   9.241  0.0802 -0.0043 -0.2843
 1094SOL    HW1 5436   6.668   9.259   9.215  0.0006 -0.5514 -1.1050
 1094SOL    HW2 5437   6.727   9.119   9.217  0.0059 -0.5714  1.6968
 1095SOL     OW 5438   6.374   4.363   4.108  0.2853 -0.2859 -0.1488
 1095SOL    HW1 5439   6.359   4.278   4.066 -0.8209 -0.8796  1.3650
 1095SOL    HW2 5440   6.468   4.376   4.104  0.4104 -1.3325 -0.8733
 1096SOL     OW 5441   2.745   2.560   4.988 -0.0895 -0.0817  0.0793
 1096SOL    HW1 5442   2.785   2.512   5.061 -0.0945 -0.8164 -0.3989
 1096SOL    HW2 5443   2.806   2.550   4.916 -0.5913 -0.2589 -0.3288
 1097SOL     OW 5444   7.167   3.221   4.357 -0.2649 -0.4784  0.2154
 1097SOL    HW1 5445   7.119   3.294   4.395 -0.6046 -0.1570 -0.8049
 1097SOL    HW2 5446   7.156   3.150   4.420 -2.1528 -0.4315  0.0020
 1098SOL     OW 5447   8.506   7.852   0.538 -0.2652  0.1042  0.0840
 1098SOL    HW1 5448   8.596   7.820   0.543 -0.5133 -0.5929  0.1588
 1098SOL    HW2 5449   8.489   7.890   0.624 -0.1983 -0.1813  0.2236
 1099SOL     OW 5450   4.007   0.717   5.484  0.4889 -0.5322 -0.1767
 1099SOL    HW1 5451   4.025   0.751   5.396  0.0475  0.9307  0.2753
 1099SOL    HW2 5452   4.071   0.759   5.540  0.3908 -1.0060  0.3000
 1100SOL     OW 5453   9.335   4.543   0.578  0.0476 -0.0992 -1.0271
 1100SOL    HW1 5454   9.247   4.579   0.588  0.2035  0.3473 -1.2144
 1100SOL    HW2 5455   9.330   4.491   0.498 -0.0632 -0.1182 -1.0081
 1101SOL     OW 5456   3.962   2.697   0.747 -0.3063  0.1553  0.3820
 1101SOL    HW1 5457   4.034   2.732   0.800  1.6432 -1.5965 -0.9093
 1101SOL    HW2 5458   4.002   2.625   0.698 -2.3910  0.5694 -2.1580
 1102SOL     OW 5459   8.256   9.414   2.029  0.0681 -0.5982  0.0214
 1102SOL    HW1 5460   8.332   9.466   2.002 -0.2780  1.3186  2.3214
 1102SOL    HW2 5461   8.181   9.470   2.011 -0.6248 -1.5993 -0.2642
 1103SOL     OW 5462   0.206   8.926   9.264 -0.2822  0.6302  0.2689
 1103SOL    HW1 5463   0.297   8.907   9.241 -0.7398 -0.3834 -0.7795
 1103SOL    HW2 5464   0.212   9.005   9.317  1.0163  2.0393 -1.8187
 1104SOL     OW 5465   0.049   7.417   2.313 -0.6349 -0.0237  0.1081
 1104SOL    HW1 5466   0.139   7.435   2.339 -1.0814  0.4416  1.4307
 1104SOL    HW2 5467   0.047   7.323   2.296 -0.3746 -0.4806  2.2634
 1105SOL     OW 5468   2.941   4.687   2.628 -0.2192  0.0881 -0.4576
 1105SOL    HW1 5469   2.908   4.642   2.705 -1.3432  0.0284 -0.9589
 1105SOL    HW2 5470   2.864   4.700   2.572  0.5295  0.3304 -1.4685
 1106SOL     OW 5471   5.602   6.158   4.657  0.1810 -0.2954  0.3649
 1106SOL    HW1 5472   5.674   6.170   4.594 -0.0679  0.3141  0.1864
 1106SOL    HW2 5473   5.578   6.247   4.683 -0.8487 -0.4600  0.0340
 1107SOL     OW 5474   3.094   4.987   1.227 -0.1768 -0.2767  0.4286
 1107SOL    HW1 5475   3.119   5.034   1.148 -0.9288 -0.3083  0.1724
 1107SOL    HW2 5476   3.142   4.903   1.221  0.5689  0.1307  0.5222
 1108SOL     OW 5477   8.328   0.540   5.964 -0.0758 -0.2804 -0.0786
 1108SOL    HW1 5478   8.333   0.633   5.942  0.9713 -0.4468 -0.6030
 1108SOL    HW2 5479   8.263   0.504   5.904 -0.2369  0.0440 -0.1011
 1109SOL     OW 5480   1.827   4.832   0.631 -0.6434  0.1054  0.7872
 1109SOL    HW1 5481   1.820   4.869   0.543 -0.0481  2.2869  1.5842
 1109SOL    HW2 5482   1.854   4.742   0.617 -1.5395  0.1089 -1.2836
 1110SOL     OW 5483   2.422   8.860   1.178 -0.3697 -0.4138  0.0067
 1110SOL    HW1 5484   2.353   8.921   1.152  0.0471  0.8739  1.7266
 1110SOL    HW2 5485   2.491   8.872   1.112 -0.2316  1.1343  0.3918
 1111SOL     OW 5486   8.819   8.574   0.757 -0.2743  0.2099 -0.1851
 1111SOL    HW1 5487   8.879   8.639   0.792 -0.4063  0.8055 -1.0520
 1111SOL    HW2 5488   8.829   8.498   0.815  1.8409  0.0207 -0.7288
 1112SOL     OW 5489   3.347   9.498   3.144 -0.4767 -0.3415 -0.0383
 1112SOL    HW1 5490   3.262   9.459   3.166 -0.3723 -0.8957 -0.6222
 1112SOL    HW2 5491   3.331   9.592   3.149 -0.9046 -0.4415  0.7001
 1113SOL     OW 5492   4.961   3.466   9.322 -0.4304  0.2942  0.2470
 1113SOL    HW1 5493   4.931   3.549   9.360 -0.5188  1.0335 -1.3457
 1113SOL    HW2 5494   4.908   3.456   9.243  0.1715 -0.8757 -0.0262
 1114SOL     OW 5495   1.956   9.381   2.570  0.4372 -0.0598 -0.2186
 1114SOL    HW1 5496   1.969   9.451   2.506  2.2229 -0.5930 -0.4793
 1114SOL    HW2 5497   1.901   9.421   2.638  0.6922  1.3131 -0.7842
 1115SOL     OW 5498   4.266   3.914   7.674  0.3684  0.0536  0.1388
 1115SOL    HW1 5499   4.296   4.004   7.686  0.1082 -0.0815  2.0514
 1115SOL    HW2 5500   4.292   3.892   7.584  3.9651  0.7172  0.8537
 1116SOL     OW 5501   6.700   4.708   7.138  0.4092 -0.0326  0.1709
 1116SOL    HW1 5502   6.609   4.730   7.118 -0.1776  0.6000  2.9849
 1116SOL    HW2 5503   6.694   4.638   7.203  1.9438 -0.2420  0.1263
 1117SOL     OW 5504   3.476   2.101   5.851 -0.5843 -0.1734  0.6034
 1117SOL    HW1 5505   3.519   2.030   5.898  1.5858  0.0754 -0.8835
 1117SOL    HW2 5506   3.500   2.180   5.899 -0.8160 -0.1880  0.7458
 1118SOL     OW 5507   6.886   6.349   3.958  0.0363 -0.0824 -0.0225
 1118SOL    HW1 5508   6.939   6.390   4.026  0.4972  2.2046 -1.6194
 1118SOL    HW2 5509   6.926   6.263   3.945  0.4046 -0.2709  2.0022
 1119SOL     OW 5510   4.707   9.615   1.479  0.9251  0.5426  0.4397
 1119SOL    HW1 5511   4.628   9.669   1.475  0.4839 -0.1280 -0.9088
 1119SOL    HW2 5512   4.705   9.565   1.396  2.3881 -0.0025  0.7084
 1120SOL     OW 5513   1.664   4.321   2.475  0.1519 -0.0360  0.3585
 1120SOL    HW1 5514   1.716   4.268   2.414 -0.2211 -0.4459  0.3934
 1120SOL    HW2 5515   1.602   4.368   2.419  0.8167  0.7661  0.2758
 1121SOL     OW 5516   8.613   3.924   7.177 -0.0643  0.4123  0.2448
 1121SOL    HW1 5517   8.672   3.850   7.186 -0.6194  0.1531  2.2613
 1121SOL    HW2 5518   8.658   3.984   7.117  1.4536 -0.5175  0.4133
 1122SOL     OW 5519   4.075   2.045   4.662 -0.2700 -0.2005 -0.2225
 1122SOL    HW1 5520   4.152   1.991   4.677  0.7799  1.6432  1.5819
 1122SOL    HW2 5521   4.100   2.103   4.590  0.6762  1.3349  1.2465
 1123SOL     OW 5522   0.537   5.072   0.213 -0.5846  0.1259  0.0648
 1123SOL    HW1 5523   0.502   5.097   0.298 -0.1793  0.9617 -0.0021
 1123SOL    HW2 5524   0.586   5.149   0.184  0.4618 -0.6495 -0.2905
 1124SOL     OW 5525   3.709   6.001   5.813 -0.2510 -0.4084 -0.0334
 1124SOL    HW1 5526   3.786   6.038   5.856  0.9436 -2.3568 -0.3346
 1124SOL    HW2 5527   3.742   5.968   5.729 -2.4194  2.9129 -2.4571
 1125SOL     OW 5528   7.711   4.529   5.759  0.4084  0.3122 -0.0548
 1125SOL    HW1 5529   7.701   4.624   5.755  2.5155  0.6171  0.3290
 1125SOL    HW2 5530   7.747   4.513   5.847 -1.5882 -1.0720  0.5900
 1126SOL     OW 5531   5.108   4.490   3.971  0.2655  0.4313  0.1032
 1126SOL    HW1 5532   5.157   4.528   3.898 -0.2105  1.7171  0.4321
 1126SOL    HW2 5533   5.174   4.467   4.036  0.4906  1.9743  0.4667
 1127SOL     OW 5534   1.319   7.113   6.781 -0.9618 -0.2794 -0.0802
 1127SOL    HW1 5535   1.409   7.136   6.802 -1.2842  1.5405 -0.5789
 1127SOL    HW2 5536   1.318   7.017   6.781  0.8976 -0.3224  0.1813
 1128SOL     OW 5537   6.489   2.226   7.150 -0.1226 -0.0736 -0.0091
 1128SOL    HW1 5538   6.522   2.205   7.063 -1.2404  0.7018 -0.6397
 1128SOL    HW2 5539   6.530   2.161   7.207  1.3867 -0.0122 -0.9463
 1129SOL     OW 5540   9.380   4.585   2.200  0.1393 -0.5983  0.4233
 1129SOL    HW1 5541   9.453   4.641   2.225  0.9908 -1.5580  0.1662
 1129SOL    HW2 5542   9.394   4.565   2.108 -0.3957 -0.8640  0.3926
 1130SOL     OW 5543   5.330   7.021   1.019 -0.2628 -0.1400 -0.0257
 1130SOL    HW1 5544   5.303   6.933   0.991 -2.0496  0.1644  0.6119
 1130SOL    HW2 5545   5.251   7.074   1.009 -0.2605  0.5958  2.9146
 1131SOL     OW 5546   4.647   4.058   1.845  0.5174  0.0924 -0.3253
 1131SOL    HW1 5547   4.734   4.040   1.808  0.1085 -0.6116 -0.9642
 1131SOL    HW2 5548   4.646   4.153   1.857  1.1840  0.1703 -0.8214
 1132SOL     OW 5549   4.077   1.323   3.268  0.1384 -0.3408 -0.0452
 1132SOL    HW1 5550   4.151   1.263   3.275 -0.0576 -0.5680  0.0994
 1132SOL    HW2 5551   4.116   1.410   3.271  0.3353 -0.4514  0.8098
 1133SOL     OW 5552   7.973   7.891   5.870 -0.4200  0.8907 -0.1774
 1133SOL    HW1 5553   7.932   7.910   5.954 -0.6089 -0.6648  0.1125
 1133SOL    HW2 5554   8.064   7.870   5.892 -0.2240  1.4133 -0.4780
 1134SOL     OW 5555   8.153   0.679   5.289  0.0095 -0.4768  0.6503
 1134SOL    HW1 5556   8.134   0.644   5.376 -2.5946 -0.9736 -0.0552
 1134SOL    HW2 5557   8.196   0.763   5.305 -0.4509 -0.5560  2.4122
 1135SOL     OW 5558   3.547   2.885   6.925 -0.1123  0.1509  0.1460
 1135SOL    HW1 5559   3.468   2.851   6.968 -1.0479 -0.5647 -1.9463
 1135SOL    HW2 5560   3.604   2.809   6.917 -0.2735  0.0900 -0.5052
 1136SOL     OW 5561   0.461   4.222   0.514 -0.0950  0.2255  0.5758
 1136SOL    HW1 5562   0.468   4.254   0.424  0.7008  0.3482  0.6796
 1136SOL    HW2 5563   0.551   4.206   0.541 -0.2998  0.5981  1.5043
 1137SOL     OW 5564   2.306   6.786   1.135 -0.6311  0.0575  0.1886
 1137SOL    HW1 5565   2.237   6.765   1.071  2.1779 -1.0388 -2.7603
 1137SOL    HW2 5566   2.280   6.871   1.170 -1.9023  1.3207 -3.2858
 1138SOL     OW 5567   9.604   8.942   6.568 -0.1728 -0.4366  0.4178
 1138SOL    HW1 5568   9.549   8.979   6.637  0.0773  1.2748 -0.2434
 1138SOL    HW2 5569   9.549   8.945   6.490  0.6016  0.7426 -0.1250
 1139SOL     OW 5570   1.730   4.975   7.232 -0.0899  0.0369 -0.1689
 1139SOL    HW1 5571   1.823   4.960   7.246 -0.2565 -0.2314  0.7239
 1139SOL    HW2 5572   1.712   5.060   7.272 -0.6179 -0.8407  1.5659
 1140SOL     OW 5573   2.865   7.897   8.455  0.0771  0.2954 -0.8145
 1140SOL    HW1 5574   2.927   7.853   8.397  0.0537 -0.2069 -0.4634
 1140SOL    HW2 5575   2.876   7.990   8.435  1.9887  0.3450  0.2576
 1141SOL     OW 5576   1.000   0.162   7.399  0.4125  0.0150  0.9692
 1141SOL    HW1 5577   1.020   0.139   7.308 -0.3023 -1.0429  1.0537
 1141SOL    HW2 5578   1.076   0.211   7.429  0.9369 -0.1743 -0.0073
 1142SOL     OW 5579   1.460   9.513   0.174 -0.2915 -0.3638  0.3946
 1142SOL    HW1 5580   1.398   9.563   0.121 -0.9840 -1.1783  0.4042
 1142SOL    HW2 5581   1.447   9.422   0.147  0.3886 -0.6289  0.9215
 1143SOL     OW 5582   0.001   1.015   1.318  0.0606  0.0479  0.0209
 1143SOL    HW1 5583   0.085   0.975   1.341 -0.5959 -2.4707 -1.4714
 1143SOL    HW2 5584  -0.061   0.980   1.382 -0.1599  0.5273  0.0754
 1144SOL     OW 5585   5.632   4.632   4.765 -0.1144  0.1016  0.1089
 1144SOL    HW1 5586   5.653   4.556   4.710  0.7780  1.2503 -1.1896
 1144SOL    HW2 5587   5.716   4.674   4.782 -0.7781  1.9265 -0.8990
 1145SOL     OW 5588   0.988   9.443   0.026 -0.2915 -0.4170 -0.0205
 1145SOL    HW1 5589   0.922   9.378   0.001  0.6146 -1.7259  0.8116
 1145SOL    HW2 5590   0.995   9.501  -0.049 -1.5865 -0.9160 -0.5486
 1146SOL     OW 5591   6.684   1.304   7.247 -0.0924 -0.5907 -0.0126
 1146SOL    HW1 5592   6.635   1.237   7.296 -1.7406  0.1264 -0.6010
 1146SOL    HW2 5593   6.621   1.375   7.236  1.9391  1.5990  1.6068
 1147SOL     OW 5594   3.488   5.468   8.904 -0.0741  0.5370  0.1328
 1147SOL    HW1 5595   3.472   5.461   8.998 -0.0037 -1.0542  0.0460
 1147SOL    HW2 5596   3.573   5.512   8.897  0.0157  0.4808  0.8190
 1148SOL     OW 5597   4.183   4.555   8.810  0.2637 -0.0106  0.6233
 1148SOL    HW1 5598   4.110   4.561   8.749 -0.2200  1.2473  1.2743
 1148SOL    HW2 5599   4.258   4.529   8.756 -0.3838 -0.0005 -0.2945
 1149SOL     OW 5600   8.269   2.092   5.328  0.4287 -0.3836 -0.0630
 1149SOL    HW1 5601   8.290   2.080   5.236  1.0843 -1.4830  0.2214
 1149SOL    HW2 5602   8.214   2.171   5.330  2.1135  0.8764 -1.1532
 1150SOL     OW 5603   7.713   3.594   7.972 -0.0288  0.4919  0.4321
 1150SOL    HW1 5604   7.741   3.621   7.885 -0.1256  2.8227  1.0508
 1150SOL    HW2 5605   7.621   3.570   7.962  0.5729 -1.5476 -0.5135
 1151SOL     OW 5606   2.463   6.517   1.143 -0.5916 -0.2599 -0.3168
 1151SOL    HW1 5607   2.454   6.584   1.211 -1.6871  0.0461 -0.7407
 1151SOL    HW2 5608   2.405   6.545   1.073  0.7433 -0.4037 -1.5462
 1152SOL     OW 5609   7.912   2.594   9.217  0.3609  0.0097  0.1459
 1152SOL    HW1 5610   7.906   2.689   9.220 -1.0555  0.0069 -1.1163
 1152SOL    HW2 5611   7.943   2.575   9.128 -1.5860 -0.7208 -0.4423
 1153SOL     OW 5612   0.214   0.483   3.853 -0.2804 -0.6008 -0.0000
 1153SOL    HW1 5613   0.192   0.575   3.861 -0.5020 -0.7357  1.1165
 1153SOL    HW2 5614   0.138   0.436   3.886  0.3179 -1.1475  0.6494
 1154SOL     OW 5615   0.747   8.435   9.407  0.2319  0.0092  0.0358
 1154SOL    HW1 5616   0.718   8.352   9.447  0.5835 -0.3471 -0.4411
 1154SOL    HW2 5617   0.666   8.481   9.386 -0.0326 -1.1119 -1.5748
 1155SOL     OW 5618   4.129   6.970   6.151  0.1465  0.3776 -0.5360
 1155SOL    HW1 5619   4.103   6.879   6.138 -0.3506  0.4817 -0.2861
 1155SOL    HW2 5620   4.211   6.979   6.102  0.7474 -0.4754  0.2743
 1156SOL     OW 5621   3.061   3.934   3.988  0.8781  0.2663 -0.2104
 1156SOL    HW1 5622   3.033   3.938   4.080  2.1819 -0.7483  0.2689
 1156SOL    HW2 5623   3.000   3.872   3.948  1.1559 -0.3616  0.3194
 1157SOL     OW 5624   6.287   0.495   9.392 -0.1138  0.5276 -0.2596
 1157SOL    HW1 5625   6.337   0.456   9.464 -1.3965  1.9721  1.5204
 1157SOL    HW2 5626   6.214   0.435   9.378  0.7076 -0.3036 -1.1487
 1158SOL     OW 5627   9.009   5.847   6.794 -0.0462 -0.7680  0.1585
 1158SOL    HW1 5628   9.080   5.783   6.802 -0.5359 -1.1614  1.5787
 1158SOL    HW2 5629   9.053   5.932   6.793  0.5819 -1.0734 -1.3370
 1159SOL     OW 5630   8.788   6.619   1.880 -0.1160 -0.4459  0.6778
 1159SOL    HW1 5631   8.802   6.525   1.878  0.7470 -0.3156 -0.6900
 1159SOL    HW2 5632   8.873   6.655   1.908 -0.2755 -0.0567  0.6713
 1160SOL     OW 5633   3.411   6.128   0.420  0.0423 -0.3576 -0.2876
 1160SOL    HW1 5634   3.340   6.132   0.356 -0.9029 -0.4748  0.7169
 1160SOL    HW2 5635   3.429   6.219   0.442 -0.3547 -0.3605  0.0501
 1161SOL     OW 5636   5.706   1.027   5.118 -0.0102  0.1293 -0.1126
 1161SOL    HW1 5637   5.664   1.059   5.038 -1.3982 -0.2133  0.4576
 1161SOL    HW2 5638   5.701   1.101   5.179  0.5381  0.2029 -0.1556
 1162SOL     OW 5639   8.142   6.892   2.420  0.2586  0.1291  0.0564
 1162SOL    HW1 5640   8.136   6.821   2.483 -0.8458 -0.2867 -0.4849
 1162SOL    HW2 5641   8.197   6.857   2.350 -0.9304 -0.5273 -0.5906
 1163SOL     OW 5642   7.154   7.634   3.228  0.1545  0.3495 -0.5721
 1163SOL    HW1 5643   7.197   7.576   3.164  0.2201  2.1665 -2.2658
 1163SOL    HW2 5644   7.169   7.722   3.195 -2.4679  1.2331  0.3134
 1164SOL     OW 5645   0.161   3.847   3.626 -0.2701 -0.0028 -0.2401
 1164SOL    HW1 5646   0.235   3.851   3.565 -1.4946  0.8285 -1.7689
 1164SOL    HW2 5647   0.195   3.800   3.702  1.7551  0.1784 -0.9603
 1165SOL     OW 5648   5.175   0.269   4.830 -0.0223  0.2558 -0.3208
 1165SOL    HW1 5649   5.174   0.208   4.757 -0.3036  0.7461 -0.7373
 1165SOL    HW2 5650   5.222   0.345   4.797 -0.6065  0.6898 -0.1766
 1166SOL     OW 5651   6.004   0.734   5.578  1.0151 -0.0813  0.4373
 1166SOL    HW1 5652   6.060   0.674   5.529  1.5587  0.7431  0.0064
 1166SOL    HW2 5653   6.052   0.817   5.576 -0.6828  0.9318 -0.8206
 1167SOL     OW 5654   9.564   0.277   4.421 -0.7344  0.1726  0.5019
 1167SOL    HW1 5655   9.473   0.251   4.434 -0.4145 -1.0783  0.3070
 1167SOL    HW2 5656   9.615   0.199   4.442  0.3252  0.9478  0.9125
 1168SOL     OW 5657   3.966   2.056   4.914  0.4357 -0.2818 -0.0476
 1168SOL    HW1 5658   3.994   2.033   4.826  1.4035  0.3837  0.0744
 1168SOL    HW2 5659   4.045   2.090   4.957  0.1864 -1.3641  1.3487
 1169SOL     OW 5660   0.055   8.842   8.769 -0.2656 -0.1154  0.2019
 1169SOL    HW1 5661  -0.013   8.797   8.818 -1.9395  0.1331 -1.7503
 1169SOL    HW2 5662   0.087   8.909   8.830 -0.3719 -1.4728  1.8257
 1170SOL     OW 5663   8.529   5.722   7.940 -0.0713 -0.4369 -0.1557
 1170SOL    HW1 5664   8.551   5.664   7.867 -0.8024 -1.5290  0.4459
 1170SOL    HW2 5665   8.590   5.795   7.933 -1.1739  0.3254 -2.8158
 1171SOL     OW 5666   4.361   7.062   1.572  0.2820  0.5253  0.3264
 1171SOL    HW1 5667   4.375   7.034   1.662 -0.5542 -2.5686 -0.4027
 1171SOL    HW2 5668   4.350   6.981   1.522  1.1816  2.0793 -2.6778
 1172SOL     OW 5669   5.096   2.350   8.688  0.5336  0.4397 -0.1388
 1172SOL    HW1 5670   5.146   2.311   8.759  0.2621 -0.5998 -0.4895
 1172SOL    HW2 5671   5.007   2.357   8.723  0.4107 -0.0247 -0.3523
 1173SOL     OW 5672   1.371   5.646   0.383 -0.4886  0.0040  1.0461
 1173SOL    HW1 5673   1.318   5.726   0.384 -0.3929  0.0849  0.2036
 1173SOL    HW2 5674   1.316   5.580   0.426 -0.8671  0.3434  1.0861
 1174SOL     OW 5675   0.826   8.470   8.357  0.6910  0.2187 -0.3236
 1174SOL    HW1 5676   0.868   8.484   8.272  1.0808 -1.9513 -0.5463
 1174SOL    HW2 5677   0.894   8.427   8.410 -0.5330 -1.4120  0.0022
 1175SOL     OW 5678   5.202   7.420   2.418  0.4883  0.2710 -0.7187
 1175SOL    HW1 5679   5.115   7.458   2.429 -0.3085 -1.2814 -1.3368
 1175SOL    HW2 5680   5.250   7.447   2.496 -0.3704  1.5541 -0.5930
 1176SOL     OW 5681   6.888   1.456   8.425  0.1354  0.6153 -0.3746
 1176SOL    HW1 5682   6.903   1.536   8.477  2.2487  1.2263 -1.7728
 1176SOL    HW2 5683   6.970   1.407   8.435  0.4435  0.5631 -2.7350
 1177SOL     OW 5684   4.880   5.224   2.978 -0.0313 -0.3496  0.2426
 1177SOL    HW1 5685   4.927   5.308   2.975 -0.7394  0.0438 -0.2681
 1177SOL    HW2 5686   4.821   5.228   2.903  0.9101 -1.9144 -0.6247
 1178SOL     OW 5687   9.184   2.257   2.661 -0.4034 -0.1405 -0.0902
 1178SOL    HW1 5688   9.255   2.304   2.704  0.0714  0.0749 -1.0768
 1178SOL    HW2 5689   9.134   2.324   2.615 -0.5111 -0.4349 -0.4108
 1179SOL     OW 5690   1.156   1.134   1.775 -0.0558 -0.1508  0.0935
 1179SOL    HW1 5691   1.171   1.091   1.690  0.8752 -1.2511  0.7916
 1179SOL    HW2 5692   1.209   1.213   1.771  2.2201 -1.5698  0.6546
 1180SOL     OW 5693   8.413   2.207   8.684  0.3461 -0.2573 -0.0855
 1180SOL    HW1 5694   8.326   2.167   8.690  0.8493 -1.3609  0.1562
 1180SOL    HW2 5695   8.436   2.226   8.775  0.2478  0.2968 -0.1725
 1181SOL     OW 5696   9.117   1.262   4.034 -0.0990 -0.0792  0.2595
 1181SOL    HW1 5697   9.147   1.199   4.099  0.9518 -1.0887 -1.1308
 1181SOL    HW2 5698   9.075   1.332   4.084  0.3768 -0.9838  1.9633
 1182SOL     OW 5699   6.292   9.551   6.540 -0.1125  0.0982  0.4934
 1182SOL    HW1 5700   6.219   9.610   6.521  0.0360  0.2448  0.3753
 1182SOL    HW2 5701   6.371   9.601   6.517 -0.0567 -1.1713 -2.5495
 1183SOL     OW 5702   5.939   6.653   4.431 -0.4904  0.0559  0.6634
 1183SOL    HW1 5703   5.866   6.595   4.410 -0.6248 -0.6690  2.8176
 1183SOL    HW2 5704   5.899   6.740   4.437 -0.5302  0.2028 -1.3289
 1184SOL     OW 5705   4.238   9.406   0.785 -0.1368 -0.1074  0.1351
 1184SOL    HW1 5706   4.219   9.496   0.812 -0.3391  0.2702 -1.1996
 1184SOL    HW2 5707   4.257   9.360   0.867 -1.4940  0.7853  0.9829
 1185SOL     OW 5708   6.603   8.396   2.240  0.5023  0.1274  0.2264
 1185SOL    HW1 5709   6.686   8.443   2.227  2.0783 -2.5909 -0.2878
 1185SOL    HW2 5710   6.582   8.360   2.154 -0.3437 -0.5762  0.7099
 1186SOL     OW 5711   0.273   0.995   8.550 -0.2393  0.3465  0.4458
 1186SOL    HW1 5712   0.260   0.920   8.608 -0.7897  0.3698  0.3585
 1186SOL    HW2 5713   0.215   0.978   8.475  1.3917 -0.3245 -0.7318
 1187SOL     OW 5714   5.197   7.322   6.553 -0.2702 -0.4630 -0.2770
 1187SOL    HW1 5715   5.263   7.327   6.484  1.0265  1.0208  0.9925
 1187SOL    HW2 5716   5.242   7.354   6.631 -1.2462 -3.4029  1.6501
 1188SOL     OW 5717   0.092   8.975   1.486 -0.4499  0.4532  0.2926
 1188SOL    HW1 5718   0.098   9.004   1.577  1.0486  2.1357 -0.2793
 1188SOL    HW2 5719   0.169   9.014   1.443 -0.5863 -1.0986 -1.4903
 1189SOL     OW 5720   4.225   5.135   4.878  0.2277  0.8705  0.2831
 1189SOL    HW1 5721   4.215   5.129   4.973  1.8939 -0.1422  0.4402
 1189SOL    HW2 5722   4.153   5.083   4.843 -0.6924  1.6513  0.9473
 1190SOL     OW 5723   7.529   3.566   1.359  0.4109  0.0515 -0.1347
 1190SOL    HW1 5724   7.517   3.658   1.334 -0.8425 -0.0391  0.0840
 1190SOL    HW2 5725   7.450   3.543   1.408  0.9531 -0.9924  0.2900
 1191SOL     OW 5726   6.625   3.236   0.828  0.7765  0.2945  0.0360
 1191SOL    HW1 5727   6.611   3.312   0.771  0.6660  0.8225  0.7559
 1191SOL    HW2 5728   6.553   3.240   0.891  1.6532  0.5093  1.0616
 1192SOL     OW 5729   3.097   8.666   3.969  0.0113  0.5531 -0.2985
 1192SOL    HW1 5730   3.162   8.735   3.956 -0.0252  0.6286 -0.0815
 1192SOL    HW2 5731   3.033   8.705   4.029 -0.6811  0.7801 -1.1663
 1193SOL     OW 5732   6.223   4.204   6.421  0.2887  0.1024 -0.2504
 1193SOL    HW1 5733   6.306   4.250   6.412  1.1917 -1.5133 -0.7428
 1193SOL    HW2 5734   6.163   4.249   6.363  1.3619  0.1619 -1.3386
 1194SOL     OW 5735   0.156   3.683   4.834 -0.2054  0.3716  0.6644
 1194SOL    HW1 5736   0.236   3.631   4.833  0.0713  0.7912 -0.5131
 1194SOL    HW2 5737   0.171   3.749   4.901 -0.3844 -0.7594  1.8712
 1195SOL     OW 5738   7.509   3.478   5.981 -0.2852 -0.1084  0.1055
 1195SOL    HW1 5739   7.549   3.560   6.009  0.4159  0.6163 -2.6966
 1195SOL    HW2 5740   7.579   3.413   5.986 -0.2995 -0.0966  0.4602
 1196SOL     OW 5741   5.673   2.124   1.644  0.1672 -0.0041 -0.0208
 1196SOL    HW1 5742   5.731   2.147   1.716 -1.4945 -0.2536  1.4468
 1196SOL    HW2 5743   5.684   2.030   1.633  0.9936  0.1454 -0.6692
 1197SOL     OW 5744   6.578   0.386   2.664 -0.3031 -0.6289  0.2388
 1197SOL    HW1 5745   6.546   0.298   2.685  0.2402 -0.8825  0.0210
 1197SOL    HW2 5746   6.623   0.376   2.580  0.2086 -0.2473  0.4625
 1198SOL     OW 5747   3.213   3.389   1.700  0.8171  0.5713 -0.2376
 1198SOL    HW1 5748   3.189   3.391   1.793  0.8303  0.9806 -0.2406
 1198SOL    HW2 5749   3.131   3.409   1.654  1.2202  2.3404 -0.2344
 1199SOL     OW 5750   3.198   1.668   3.548  0.1589 -0.6930 -0.7804
 1199SOL    HW1 5751   3.216   1.608   3.475 -0.8109 -0.9660 -0.8057
 1199SOL    HW2 5752   3.282   1.677   3.592  0.4008 -1.8206 -0.9690
 1200SOL     OW 5753   7.066   4.207   4.197  0.5838 -0.3794 -0.1023
 1200SOL    HW1 5754   6.998   4.249   4.250  0.6316 -0.2346 -0.1550
 1200SOL    HW2 5755   7.038   4.220   4.107  1.8736  1.8343 -0.2724
 1201SOL     OW 5756   3.707   3.549   1.314  0.0562 -0.0627 -0.2382
 1201SOL    HW1 5757   3.681   3.641   1.313 -1.0983 -0.2594  2.6794
 1201SOL    HW2 5758   3.626   3.502   1.332  0.7492 -1.6320 -1.0515
 1202SOL     OW 5759   4.888   0.162   2.269  0.2626  0.2463  0.7695
 1202SOL    HW1 5760   4.984   0.159   2.267  0.2301 -1.9478  0.4504
 1202SOL    HW2 5761   4.863   0.162   2.177 -0.0562  1.0583  0.8524
 1203SOL     OW 5762   2.216   6.679   7.480  0.0841  0.6810  0.1275
 1203SOL    HW1 5763   2.161   6.646   7.409 -0.8889  1.2226  0.5893
 1203SOL    HW2 5764   2.270   6.746   7.440  0.8855 -0.3124 -0.4717
 1204SOL     OW 5765   5.091   0.815   5.852 -0.1081  0.1053 -0.6198
 1204SOL    HW1 5766   5.089   0.830   5.946 -1.1401 -0.4269 -0.5435
 1204SOL    HW2 5767   5.016   0.863   5.818 -1.5095 -2.0509 -0.7715
 1205SOL     OW 5768   2.598   1.091   0.388 -0.2428  0.3416  0.4188
 1205SOL    HW1 5769   2.609   1.139   0.306 -2.3254 -0.9172 -0.6911
 1205SOL    HW2 5770   2.559   1.153   0.448  1.3505  1.2938  0.5378
 1206SOL     OW 5771   6.258   1.689   6.184 -0.0567 -0.1437 -0.6041
 1206SOL    HW1 5772   6.351   1.684   6.160  0.1464  0.7539 -0.0707
 1206SOL    HW2 5773   6.225   1.765   6.135 -0.2004  0.2770  0.1274
 1207SOL     OW 5774   9.057   9.155   8.988  0.1474  0.0071  0.1565
 1207SOL    HW1 5775   9.067   9.084   9.052 -2.1792 -1.3201 -0.8341
 1207SOL    HW2 5776   9.074   9.113   8.904 -0.7056  0.7461 -0.3998
 1208SOL     OW 5777   1.556   6.124   2.863 -0.2893  0.5431  0.0305
 1208SOL    HW1 5778   1.628   6.147   2.921  0.6767 -0.9541 -0.5132
 1208SOL    HW2 5779   1.598   6.088   2.785 -1.5867  1.4442 -1.1341
 1209SOL     OW 5780   7.499   8.180   1.971  0.4371  0.2975  0.2490
 1209SOL    HW1 5781   7.481   8.274   1.978 -0.3550  0.1416  0.3384
 1209SOL    HW2 5782   7.452   8.141   2.045  1.8630 -0.0366  1.0288
 1210SOL     OW 5783   8.465   7.596   8.506  0.2588 -0.2358  0.5060
 1210SOL    HW1 5784   8.446   7.661   8.438 -1.9696 -1.4930 -0.2042
 1210SOL    HW2 5785   8.470   7.647   8.587  0.5095  1.0243 -0.2700
 1211SOL     OW 5786   1.632   7.235   0.727 -0.7397  0.2668 -0.7873
 1211SOL    HW1 5787   1.698   7.165   0.733 -0.2179  0.8404  0.9902
 1211SOL    HW2 5788   1.650   7.278   0.643 -1.3774 -1.9754 -2.1597
 1212SOL     OW 5789   7.123   2.188   0.375  0.2219 -0.7354  0.0330
 1212SOL    HW1 5790   7.150   2.230   0.293 -0.5279 -0.1795  0.0644
 1212SOL    HW2 5791   7.205   2.175   0.423  0.7035 -1.3495 -0.9220
 1213SOL     OW 5792   7.170   6.916   4.066 -0.2295 -0.2230 -0.4656
 1213SOL    HW1 5793   7.172   6.957   4.152 -2.0994 -1.3094  0.1627
 1213SOL    HW2 5794   7.103   6.965   4.018  0.2897 -0.0874 -1.0700
 1214SOL     OW 5795   5.055   1.735   4.435 -0.0107 -0.2068 -0.2587
 1214SOL    HW1 5796   5.122   1.671   4.461  0.2200  0.2321  0.2674
 1214SOL    HW2 5797   5.082   1.815   4.480 -0.1906  0.3077 -1.0559
 1215SOL     OW 5798   7.843   3.219   4.102 -0.1999 -0.2097 -0.0896
 1215SOL    HW1 5799   7.840   3.272   4.181  0.6346  1.3121 -1.0339
 1215SOL    HW2 5800   7.931   3.233   4.067  0.3102 -2.7641 -0.0597
 1216SOL     OW 5801   9.524   2.211   3.478 -0.3197  0.0447 -0.1791
 1216SOL    HW1 5802   9.501   2.299   3.446  0.0291  0.0512 -0.4244
 1216SOL    HW2 5803   9.520   2.156   3.400 -0.0084 -0.0504 -0.1289
 1217SOL     OW 5804   2.518   8.452   6.080  0.4839  0.2151  0.0967
 1217SOL    HW1 5805   2.448   8.517   6.085 -1.3260 -1.4904 -1.4900
 1217SOL    HW2 5806   2.497   8.389   6.150  0.9837  0.1853  0.2235
 1218SOL     OW 5807   0.570   0.204   4.870 -0.4212 -0.2079  0.1734
 1218SOL    HW1 5808   0.622   0.152   4.808  0.2431 -0.2989  0.7887
 1218SOL    HW2 5809   0.623   0.206   4.950 -0.7055  0.9367  0.3497
 1219SOL     OW 5810   6.523   7.908   1.970 -0.0626  0.3469  0.0469
 1219SOL    HW1 5811   6.490   7.819   1.980  1.0769 -0.2158 -1.0052
 1219SOL    HW2 5812   6.598   7.913   2.029 -0.7196  0.9523  0.8579
 1220SOL     OW 5813   6.937   3.509   4.770 -0.0498  0.1018 -0.1002
 1220SOL    HW1 5814   6.843   3.526   4.760 -0.1906 -0.6582 -0.1222
 1220SOL    HW2 5815   6.962   3.559   4.848 -0.5792 -0.0849  0.1962
 1221SOL     OW 5816   1.684   7.584   4.084  0.3730  0.0115 -0.0770
 1221SOL    HW1 5817   1.731   7.644   4.025 -0.0590  1.3608  0.9029
 1221SOL    HW2 5818   1.753   7.542   4.135  0.5871  1.5837  0.9814
 1222SOL     OW 5819   3.171   4.069   9.329 -0.4743 -0.6390 -0.2787
 1222SOL    HW1 5820   3.135   4.158   9.330  1.5497  0.2384 -0.7181
 1222SOL    HW2 5821   3.226   4.066   9.251  0.9665 -1.6423  0.7234
 1223SOL     OW 5822   8.919   2.652   0.956  0.3177  0.4143  0.7440
 1223SOL    HW1 5823   8.964   2.597   0.892  1.2235  1.7967  0.1571
 1223SOL    HW2 5824   8.894   2.592   1.026  0.1524 -0.9664 -0.4470
 1224SOL     OW 5825   2.518   9.289   0.319  0.2880 -0.4486 -0.2809
 1224SOL    HW1 5826   2.451   9.357   0.318  1.7415  1.0452 -0.3425
 1224SOL    HW2 5827   2.488   9.224   0.256 -0.8516  0.4347 -0.6730
 1225SOL     OW 5828   9.401   6.065   2.891  0.0924  0.2322 -0.7444
 1225SOL    HW1 5829   9.374   6.109   2.972  0.7460 -0.7415  0.0339
 1225SOL    HW2 5830   9.396   5.972   2.912  2.0069 -0.0156 -1.2168
 1226SOL     OW 5831   5.076   9.141   8.392 -0.3360 -0.0575  0.2222
 1226SOL    HW1 5832   5.122   9.153   8.309  0.6901 -1.1483  0.6081
 1226SOL    HW2 5833   4.986   9.119   8.366 -0.2334  0.3884 -0.5663
 1227SOL     OW 5834   8.967   1.335   2.871 -0.3167 -0.9874  0.3416
 1227SOL    HW1 5835   9.019   1.346   2.951  1.0671 -0.5296 -0.5854
 1227SOL    HW2 5836   8.892   1.393   2.883  0.4649 -0.0485  0.8248
 1228SOL     OW 5837   7.438   1.399   6.348  0.0156  0.1980 -0.0461
 1228SOL    HW1 5838   7.531   1.388   6.366 -0.1858  0.2597  1.0570
 1228SOL    HW2 5839   7.400   1.312   6.360  0.1893 -0.2351 -2.2410
 1229SOL     OW 5840   5.292   3.234   4.752 -0.0552  0.0899 -0.1527
 1229SOL    HW1 5841   5.277   3.159   4.694  0.5880 -0.6163  0.5689
 1229SOL    HW2 5842   5.252   3.308   4.706  0.2441 -0.4915 -1.3840
 1230SOL     OW 5843   1.530   0.486   9.231 -0.3548 -0.1679 -0.2542
 1230SOL    HW1 5844   1.476   0.412   9.205  0.8001 -1.4097  0.7137
 1230SOL    HW2 5845   1.596   0.493   9.163 -1.8673  1.5868 -1.6341
 1231SOL     OW 5846   9.283   2.891   6.053 -0.8694  0.1366  0.0634
 1231SOL    HW1 5847   9.236   2.973   6.040 -2.0476 -0.7816 -2.0605
 1231SOL    HW2 5848   9.226   2.825   6.012  1.5120 -1.2827 -1.1714
 1232SOL     OW 5849   6.733   7.434   3.058 -0.6537 -0.2638  0.1801
 1232SOL    HW1 5850   6.727   7.426   2.963 -1.3906 -2.0102  0.3314
 1232SOL    HW2 5851   6.790   7.510   3.072  0.0759 -0.4091 -1.6469
 1233SOL     OW 5852   2.539   5.639   3.021 -0.3332 -0.4145  0.1931
 1233SOL    HW1 5853   2.630   5.622   3.001 -0.0392  1.9183 -0.8363
 1233SOL    HW2 5854   2.490   5.594   2.952 -0.0314 -2.0212  0.9865
 1234SOL     OW 5855   1.792   4.726   9.442  0.5931  0.1191  0.2287
 1234SOL    HW1 5856   1.743   4.690   9.368  0.9897  1.6205 -0.8230
 1234SOL    HW2 5857   1.881   4.692   9.430  0.0806 -1.9404  1.6776
 1235SOL     OW 5858   1.084   8.575   1.603 -0.6582 -0.6214  0.2741
 1235SOL    HW1 5859   1.053   8.665   1.618  1.5005  0.0024  1.3933
 1235SOL    HW2 5860   1.104   8.542   1.690 -0.3913 -1.8321 -0.2260
 1236SOL     OW 5861   3.003   1.362   6.947  0.0689  0.0098  0.2129
 1236SOL    HW1 5862   2.999   1.295   6.879 -1.5460  1.7252 -1.4890
 1236SOL    HW2 5863   2.979   1.444   6.903  3.0638  2.0227  1.8936
 1237SOL     OW 5864   3.288   8.014   2.810 -0.7553  0.1022  0.1118
 1237SOL    HW1 5865   3.321   8.092   2.766 -1.3295  0.4020  0.1992
 1237SOL    HW2 5866   3.239   7.967   2.743  1.1282 -1.1686 -0.4570
 1238SOL     OW 5867   4.057   7.373   1.670 -0.7613  0.2578  0.4251
 1238SOL    HW1 5868   4.074   7.450   1.724  0.2475 -0.1959  0.7753
 1238SOL    HW2 5869   4.055   7.300   1.732 -1.8591  0.0036  0.1136
 1239SOL     OW 5870   3.189   7.406   3.398 -0.4453 -0.1662 -0.2878
 1239SOL    HW1 5871   3.149   7.359   3.471  0.1493 -0.1306  0.0710
 1239SOL    HW2 5872   3.141   7.488   3.391 -0.3523 -0.0690  0.2181
 1240SOL     OW 5873   7.192   7.608   4.494  0.3204  0.4805 -0.0146
 1240SOL    HW1 5874   7.286   7.591   4.489  0.0956 -0.3552 -2.5745
 1240SOL    HW2 5875   7.158   7.538   4.550  1.0660  0.1933  0.0884
 1241SOL     OW 5876   1.645   0.493   4.608 -0.1008  0.0699  0.1377
 1241SOL    HW1 5877   1.732   0.465   4.636 -0.1384  0.7870  1.0203
 1241SOL    HW2 5878   1.660   0.548   4.532 -0.0372 -2.4343 -1.7984
 1242SOL     OW 5879   4.603   1.912   1.812  0.1972  0.2592  0.0709
 1242SOL    HW1 5880   4.680   1.883   1.765  1.5552  0.6444  1.9186
 1242SOL    HW2 5881   4.548   1.834   1.821  0.7323 -0.1983 -0.6147
 1243SOL     OW 5882   3.163   2.511   4.999  0.3486 -0.0569  0.0868
 1243SOL    HW1 5883   3.255   2.537   4.998  0.5705 -0.7863  0.4079
 1243SOL    HW2 5884   3.165   2.415   4.997 -0.3872 -0.0951  0.5479
 1244SOL     OW 5885   3.840   0.312   5.626 -0.3962  0.5017 -0.2686
 1244SOL    HW1 5886   3.825   0.389   5.572 -0.4442  0.0119 -0.9747
 1244SOL    HW2 5887   3.883   0.345   5.705 -0.8720  1.3027 -0.3428
 1245SOL     OW 5888   5.763   7.475   3.830 -0.2254  0.2228  0.4762
 1245SOL    HW1 5889   5.699   7.450   3.763  0.6713 -1.2358  0.1289
 1245SOL    HW2 5890   5.755   7.407   3.896  0.7564  0.1962  0.5710
 1246SOL     OW 5891   2.803   8.479   5.136 -0.2104 -0.1613  0.1449
 1246SOL    HW1 5892   2.892   8.482   5.170 -0.2117  1.6287  0.0752
 1246SOL    HW2 5893   2.792   8.389   5.105  1.0944 -0.7802  1.3809
 1247SOL     OW 5894   6.563   6.895   7.666  0.5113 -0.2594  0.0404
 1247SOL    HW1 5895   6.528   6.975   7.626 -0.2016 -0.3057  0.5399
 1247SOL    HW2 5896   6.641   6.924   7.714  0.9630 -0.0809 -0.7807
 1248SOL     OW 5897   3.847   6.207   2.737  0.3309 -0.5574  0.1582
 1248SOL    HW1 5898   3.843   6.114   2.758  1.0000 -1.0793 -1.8970
 1248SOL    HW2 5899   3.934   6.221   2.701  1.0732  1.3656  2.3792
 1249SOL     OW 5900   6.571   1.104   0.120  0.5531 -0.1978  1.0149
 1249SOL    HW1 5901   6.571   1.009   0.116  1.0520 -0.1722  0.3192
 1249SOL    HW2 5902   6.524   1.125   0.201 -1.1839 -0.9866  0.2450
 1250SOL     OW 5903   5.702   8.833   5.130  0.0046  0.4134  0.2206
 1250SOL    HW1 5904   5.638   8.868   5.193 -1.9640 -2.3447 -0.0498
 1250SOL    HW2 5905   5.763   8.783   5.184 -0.5070 -0.2940  0.1659
 1251SOL     OW 5906   6.915   2.203   2.750  0.2003  0.4567  0.1241
 1251SOL    HW1 5907   7.001   2.161   2.746  1.0311  1.9996  0.8422
 1251SOL    HW2 5908   6.921   2.263   2.824 -0.2591  3.1482 -1.8312
 1252SOL     OW 5909   0.411   8.282   1.503  0.2027 -0.2944  0.0156
 1252SOL    HW1 5910   0.440   8.367   1.536 -0.1056 -0.8897  1.9499
 1252SOL    HW2 5911   0.492   8.235   1.484  0.3800  0.2149 -0.5249
 1253SOL     OW 5912   6.931   1.792   2.845  0.4945  0.2559  0.2271
 1253SOL    HW1 5913   6.886   1.712   2.819 -1.3702  1.0753  0.7384
 1253SOL    HW2 5914   6.924   1.850   2.769  2.5280 -0.2826 -0.4318
 1254SOL     OW 5915   4.378   1.952   7.303 -0.4078 -0.1412  0.1914
 1254SOL    HW1 5916   4.288   1.970   7.331  0.7541  2.9274  2.4682
 1254SOL    HW2 5917   4.391   2.010   7.228 -0.1951 -0.3007  0.1052
 1255SOL     OW 5918   2.638   2.733   3.665  0.2365 -0.1113  0.0672
 1255SOL    HW1 5919   2.571   2.673   3.696  0.5159 -0.2698  0.3802
 1255SOL    HW2 5920   2.715   2.712   3.718  0.2098  0.8276  0.5101
 1256SOL     OW 5921   6.503   0.291   9.128  0.1079 -0.3007  0.8778
 1256SOL    HW1 5922   6.426   0.323   9.080  0.0591 -2.2781 -0.5281
 1256SOL    HW2 5923   6.578   0.319   9.076  0.0704 -2.1472 -0.2772
 1257SOL     OW 5924   2.736   5.272   6.644 -0.1593 -0.5127  0.4539
 1257SOL    HW1 5925   2.714   5.339   6.709 -1.7143  0.7775 -1.3036
 1257SOL    HW2 5926   2.798   5.315   6.586 -0.4340 -0.9377 -0.1596
 1258SOL     OW 5927   5.169   0.352   9.026  0.2308 -0.1485  0.0579
 1258SOL    HW1 5928   5.201   0.395   8.946  0.0796  0.3942  0.2827
 1258SOL    HW2 5929   5.170   0.259   9.005 -0.9660  0.0562 -1.0089
 1259SOL     OW 5930   4.840   1.924   5.873 -0.3425 -0.4902 -0.3262
 1259SOL    HW1 5931   4.777   1.993   5.854 -1.6729 -0.5492  3.1854
 1259SOL    HW2 5932   4.819   1.855   5.809 -2.1517  0.4812 -0.8454
 1260SOL     OW 5933   3.388   4.621   0.996 -0.3761  0.1386  0.6416
 1260SOL    HW1 5934   3.463   4.568   0.973  0.4111  1.1499  0.8003
 1260SOL    HW2 5935   3.338   4.630   0.915 -0.0956 -0.1753  0.4350
 1261SOL     OW 5936   8.237   7.012   8.307  0.1943 -0.7991  0.2245
 1261SOL    HW1 5937   8.188   7.094   8.297  1.2930 -0.1942 -0.3193
 1261SOL    HW2 5938   8.177   6.945   8.274 -0.7995 -0.2684  0.8666
 1262SOL     OW 5939   2.498   2.414   5.359  0.2013  0.2235  0.1381
 1262SOL    HW1 5940   2.417   2.450   5.397  1.1974  2.6340  0.1622
 1262SOL    HW2 5941   2.534   2.359   5.428 -1.2729 -0.6907  0.2198
 1263SOL     OW 5942   9.487   7.310   9.433 -0.0690 -0.5016 -0.1774
 1263SOL    HW1 5943   9.507   7.287   9.342 -0.5691 -1.7155  0.0021
 1263SOL    HW2 5944   9.465   7.227   9.475  1.2363 -0.1370  1.3544
 1264SOL     OW 5945   9.390   4.271   2.401 -0.2278 -0.0287 -0.0446
 1264SOL    HW1 5946   9.363   4.184   2.432  0.0290 -0.4011 -0.8374
 1264SOL    HW2 5947   9.448   4.253   2.327 -0.3420  0.8253 -0.3523
 1265SOL     OW 5948   3.871   7.607   8.790  0.4570 -0.4682 -0.0850
 1265SOL    HW1 5949   3.967   7.608   8.781  0.4130  0.6956 -0.5096
 1265SOL    HW2 5950   3.856   7.596   8.884  1.0408  1.5433  0.2828
 1266SOL     OW 5951   8.696   1.995   0.991  0.3042  0.3740 -0.4581
 1266SOL    HW1 5952   8.707   1.952   0.905  2.6001  0.1973 -0.1589
 1266SOL    HW2 5953   8.629   2.061   0.976  0.9521  0.6522 -2.5499
 1267SOL     OW 5954   5.366   1.684   1.218 -0.5931  0.1206 -0.5183
 1267SOL    HW1 5955   5.365   1.642   1.132 -2.2211  1.7558 -1.3544
 1267SOL    HW2 5956   5.458   1.701   1.236 -0.1323 -1.3283 -1.3700
 1268SOL     OW 5957   4.037   2.615   8.961  0.1647  0.0458  0.3072
 1268SOL    HW1 5958   4.115   2.671   8.958 -0.5424  1.3151  2.7373
 1268SOL    HW2 5959   4.004   2.626   9.050 -2.0714 -1.4903 -0.2641
 1269SOL     OW 5960   7.977   1.058   7.792  0.1593  0.6087 -1.0444
 1269SOL    HW1 5961   7.931   0.987   7.837 -2.5979  1.7816 -1.7926
 1269SOL    HW2 5962   8.038   1.013   7.734  0.1261 -1.0722  0.1470
 1270SOL     OW 5963   6.897   7.530   8.582 -0.0295 -0.6674  0.1760
 1270SOL    HW1 5964   6.962   7.466   8.553  2.2373  1.1259  1.0026
 1270SOL    HW2 5965   6.907   7.534   8.677 -1.6131 -0.5271  0.3753
 1271SOL     OW 5966   7.295   2.419   0.724 -0.6089 -0.4785 -0.0655
 1271SOL    HW1 5967   7.253   2.333   0.733 -0.5087 -0.5866 -0.5902
 1271SOL    HW2 5968   7.379   2.409   0.767 -0.2788 -0.8826 -0.7799
 1272SOL     OW 5969   6.686   3.346   7.195  0.2966  0.7074 -0.8955
 1272SOL    HW1 5970   6.722   3.332   7.108  1.1325  0.0686 -0.4635
 1272SOL    HW2 5971   6.605   3.394   7.180 -0.4255 -0.8132 -2.1563
 1273SOL     OW 5972   9.160   1.430   2.714 -0.1318 -0.2526  0.0468
 1273SOL    HW1 5973   9.084   1.391   2.756 -1.4278  1.6438 -0.4256
 1273SOL    HW2 5974   9.229   1.364   2.723 -1.8758 -2.1395  0.2678
 1274SOL     OW 5975   1.563   1.399   4.133  0.0925  0.5105 -0.0781
 1274SOL    HW1 5976   1.625   1.351   4.077 -0.0691  1.5988 -1.2369
 1274SOL    HW2 5977   1.574   1.360   4.220  0.1227 -1.4643 -0.9049
 1275SOL     OW 5978   3.548   7.740   1.372  0.0179  0.3301  0.1508
 1275SOL    HW1 5979   3.565   7.760   1.280  0.2306  1.8739  0.4957
 1275SOL    HW2 5980   3.528   7.646   1.373 -2.8907  0.7978 -1.8794
 1276SOL     OW 5981   6.446   0.699   1.444  0.0087  0.3757  0.1170
 1276SOL    HW1 5982   6.408   0.638   1.508 -1.4017 -0.7985 -1.7321
 1276SOL    HW2 5983   6.470   0.776   1.496  1.0982 -1.3687  2.4253
 1277SOL     OW 5984   4.360   0.527   2.869 -0.2210 -0.1291 -0.0719
 1277SOL    HW1 5985   4.273   0.530   2.830 -0.3905 -2.0408  0.0873
 1277SOL    HW2 5986   4.349   0.568   2.955 -0.5924  1.0036 -0.6346
 1278SOL     OW 5987   6.674   2.677   1.246  0.2871  0.0889  0.4409
 1278SOL    HW1 5988   6.675   2.618   1.170 -0.3300 -0.5754  0.9365
 1278SOL    HW2 5989   6.696   2.763   1.210 -0.1910 -0.1803 -0.5194
 1279SOL     OW 5990   7.373   0.355   7.297 -0.9109 -0.3965  0.0675
 1279SOL    HW1 5991   7.321   0.406   7.234  1.3558  1.0086 -0.8075
 1279SOL    HW2 5992   7.335   0.268   7.295 -1.6401 -0.0927 -2.4301
 1280SOL     OW 5993   1.084   2.465   1.845  0.4327 -0.4555 -0.7290
 1280SOL    HW1 5994   1.147   2.399   1.875 -0.8954 -1.3958  0.1574
 1280SOL    HW2 5995   1.137   2.533   1.805  2.0883 -0.7315  0.8747
 1281SOL     OW 5996   4.004   9.177   8.242  0.1236 -0.1351  0.8163
 1281SOL    HW1 5997   3.978   9.108   8.182  1.2894  0.3398 -0.2673
 1281SOL    HW2 5998   3.921   9.214   8.273 -0.5077 -0.4850 -0.3852
 1282SOL     OW 5999   0.886   4.189   1.024  0.6988  0.0803  0.4033
 1282SOL    HW1 6000   0.909   4.125   1.091  1.1116 -0.9381 -0.6716
 1282SOL    HW2 6001   0.853   4.137   0.951  0.1403  1.1670 -0.1425
 1283SOL     OW 6002   6.289   0.968   8.518  0.0525 -0.3566  0.2396
 1283SOL    HW1 6003   6.247   1.004   8.440 -0.1525 -1.5728 -0.2259
 1283SOL    HW2 6004   6.379   1.001   8.514 -0.6300  1.6931  0.8760
 1284SOL     OW 6005   4.499   8.585   1.021  0.1671 -0.3544  0.0981
 1284SOL    HW1 6006   4.515   8.515   0.958  1.4396 -0.4757  0.5247
 1284SOL    HW2 6007   4.498   8.541   1.106 -1.4716 -0.1819  0.1914
 1285SOL     OW 6008   7.317   8.341   7.562  0.2441 -0.2518  0.2663
 1285SOL    HW1 6009   7.306   8.341   7.657 -4.2791 -0.8472 -0.0622
 1285SOL    HW2 6010   7.381   8.271   7.546  0.5772 -0.6321  2.7883
 1286SOL     OW 6011   3.824   1.207   3.671 -0.7156 -0.1376 -0.0383
 1286SOL    HW1 6012   3.890   1.169   3.614  0.3516  0.7038  0.5926
 1286SOL    HW2 6013   3.873   1.238   3.747 -2.0742 -1.1736  1.3311
 1287SOL     OW 6014   8.948   4.965   0.456  0.8733 -0.1516  0.0430
 1287SOL    HW1 6015   8.960   4.926   0.369 -0.3057 -1.2546  0.3447
 1287SOL    HW2 6016   8.880   5.032   0.442  0.1084 -0.8723  0.2496
 1288SOL     OW 6017   9.256   7.778   1.458  0.2483  0.3330 -0.2911
 1288SOL    HW1 6018   9.262   7.750   1.550  1.0397  0.2805 -0.3500
 1288SOL    HW2 6019   9.195   7.716   1.419  0.0000  0.2761  0.1712
 1289SOL     OW 6020   9.452   8.335   4.054 -0.5245  0.3712 -0.5127
 1289SOL    HW1 6021   9.523   8.294   4.104 -1.6706 -0.9403  0.1262
 1289SOL    HW2 6022   9.489   8.351   3.967  0.6291 -0.0244 -0.1037
 1290SOL     OW 6023   7.984   6.364   2.919 -0.6268 -0.0738  0.0132
 1290SOL    HW1 6024   7.969   6.403   3.005 -1.2943  0.6533 -0.4179
 1290SOL    HW2 6025   7.940   6.279   2.923  1.6374 -1.2939  1.2850
 1291SOL     OW 6026   5.858   8.089   2.347  0.1992  0.0620 -0.5425
 1291SOL    HW1 6027   5.802   8.166   2.334  1.0641  0.8699  0.3559
 1291SOL    HW2 6028   5.947   8.124   2.346  0.6131 -0.9493 -0.2014
 1292SOL     OW 6029   0.660   9.363   6.776 -0.3071  0.2724 -0.0404
 1292SOL    HW1 6030   0.677   9.382   6.684  1.5079  0.1107  0.2227
 1292SOL    HW2 6031   0.704   9.433   6.824  0.3247 -0.6146  0.7274
 1293SOL     OW 6032   7.601   7.961   3.679 -0.8260  0.1876 -0.1772
 1293SOL    HW1 6033   7.673   7.903   3.704 -1.1584 -0.1085  0.1223
 1293SOL    HW2 6034   7.525   7.902   3.671 -1.3027  0.6515  0.6982
 1294SOL     OW 6035   3.172   3.259   3.358  0.5791  0.1781  0.3333
 1294SOL    HW1 6036   3.181   3.338   3.304 -0.8234  0.1902  0.0821
 1294SOL    HW2 6037   3.183   3.187   3.296 -0.0516  0.1927  0.1939
 1295SOL     OW 6038   8.656   5.324   2.168 -0.1461  0.3012 -0.1856
 1295SOL    HW1 6039   8.668   5.235   2.134  1.7201  0.9394 -1.3273
 1295SOL    HW2 6040   8.594   5.313   2.240  1.5435 -2.2455  1.0586
 1296SOL     OW 6041   7.408   8.956   6.734  0.3124  0.3374  0.0808
 1296SOL    HW1 6042   7.465   8.897   6.783 -0.8201  0.1834  1.2620
 1296SOL    HW2 6043   7.330   8.966   6.789 -1.0862  0.0614 -1.7317
 1297SOL     OW 6044   0.800   8.729   7.566  0.0164  0.8268 -0.1062
 1297SOL    HW1 6045   0.714   8.762   7.590  0.0064 -0.4217  1.7688
 1297SOL    HW2 6046   0.862   8.777   7.621  0.2493 -0.1931  0.5464
 1298SOL     OW 6047   0.902   2.755   6.177  0.2059 -0.1721 -0.0136
 1298SOL    HW1 6048   0.950   2.836   6.189  1.2838 -0.9118  0.7600
 1298SOL    HW2 6049   0.891   2.719   6.265 -1.0010 -0.4602 -0.2614
 1299SOL     OW 6050   6.648   0.957   7.160  0.0226 -0.0090 -0.1420
 1299SOL    HW1 6051   6.565   0.929   7.121 -0.3061 -2.9012  2.2672
 1299SOL    HW2 6052   6.623   1.012   7.234  0.2338 -0.5186  0.3182
 1300SOL     OW 6053   4.486   5.130   2.473 -0.2933  0.2607 -0.2005
 1300SOL    HW1 6054   4.530   5.046   2.482  1.4314  1.0833 -0.5783
 1300SOL    HW2 6055   4.401   5.118   2.516 -0.3452 -1.8308 -0.7939
 1301SOL     OW 6056   8.870   3.846   4.772  0.1619 -0.0407  0.5564
 1301SOL    HW1 6057   8.826   3.802   4.699  1.6726  1.1561 -1.1576
 1301SOL    HW2 6058   8.962   3.820   4.764  0.2832 -0.3718  2.4588
 1302SOL     OW 6059   1.676   7.297   1.148 -0.2685  0.3998  0.5408
 1302SOL    HW1 6060   1.607   7.279   1.084 -0.5743  0.0415  0.9690
 1302SOL    HW2 6061   1.639   7.364   1.206 -0.0067  0.6931  0.3766
 1303SOL     OW 6062   4.435   4.650   7.590  0.0143 -0.1970  0.4168
 1303SOL    HW1 6063   4.383   4.718   7.634  0.3283  0.2660  0.0812
 1303SOL    HW2 6064   4.521   4.657   7.630  0.8106  1.4109 -1.4615
 1304SOL     OW 6065   5.490   4.629   5.495 -0.3285  0.2934  0.1836
 1304SOL    HW1 6066   5.551   4.567   5.455 -1.5667 -1.6027  1.0924
 1304SOL    HW2 6067   5.413   4.625   5.439 -0.0610  1.8760 -0.3530
 1305SOL     OW 6068   5.365   0.003   6.091 -0.3931  0.5564  0.1569
 1305SOL    HW1 6069   5.418  -0.067   6.054 -1.4166 -0.1614  0.0149
 1305SOL    HW2 6070   5.427   0.057   6.140  0.4025 -0.4544  0.2838
 1306SOL     OW 6071   9.108   6.942   1.724 -0.5789 -0.0010 -0.2522
 1306SOL    HW1 6072   9.191   6.985   1.705 -0.8713 -0.0723 -1.8372
 1306SOL    HW2 6073   9.042   6.995   1.679 -1.2575 -0.5551  0.0634
 1307SOL     OW 6074   0.895   1.175   7.670  0.0265  0.0877  0.1047
 1307SOL    HW1 6075   0.902   1.092   7.624  1.5648 -0.0538  0.5423
 1307SOL    HW2 6076   0.898   1.153   7.763  0.0311  0.5964  0.2331
 1308SOL     OW 6077   1.201   9.090   2.378 -0.1638 -0.6286  0.1409
 1308SOL    HW1 6078   1.120   9.093   2.327 -1.2360  1.3542  1.7933
 1308SOL    HW2 6079   1.193   9.011   2.432 -0.9126 -0.5784  0.1155
 1309SOL     OW 6080   8.230   5.667   7.702 -0.7068 -0.2012  0.5284
 1309SOL    HW1 6081   8.305   5.702   7.654 -2.1764  2.2398 -0.1929
 1309SOL    HW2 6082   8.157   5.723   7.675 -2.5903 -1.8296  1.9739
 1310SOL     OW 6083   0.160   3.502   8.288  0.2550  0.2063  0.2632
 1310SOL    HW1 6084   0.201   3.502   8.202  0.3019  0.7979  0.2799
 1310SOL    HW2 6085   0.091   3.435   8.282  0.2009  0.3042 -0.2563
 1311SOL     OW 6086   2.403   7.703   2.215 -0.5019 -0.3467 -0.1040
 1311SOL    HW1 6087   2.414   7.761   2.140  1.3810 -0.5401 -0.0262
 1311SOL    HW2 6088   2.314   7.720   2.246 -0.6427  1.1167 -1.2184
 1312SOL     OW 6089   7.736   9.554   8.212  0.5393  0.0631 -0.4657
 1312SOL    HW1 6090   7.708   9.474   8.167  0.5559 -0.9751  1.2855
 1312SOL    HW2 6091   7.660   9.582   8.262  0.5690  1.1125 -0.9787
 1313SOL     OW 6092   1.701   3.183   0.572  0.4025  0.4372 -0.0144
 1313SOL    HW1 6093   1.698   3.115   0.505  0.4676  0.8131 -0.3966
 1313SOL    HW2 6094   1.781   3.232   0.553  0.8313  0.0825  0.7894
 1314SOL     OW 6095   9.073   2.462   2.077 -0.2249 -0.3158 -0.6322
 1314SOL    HW1 6096   9.162   2.486   2.055 -0.5137  0.6671 -0.7690
 1314SOL    HW2 6097   9.048   2.522   2.148 -0.4283 -1.2601  0.1315
 1315SOL     OW 6098   9.435   3.014   6.766  0.1856  0.3159  0.3168
 1315SOL    HW1 6099   9.516   2.990   6.721  0.3022 -0.2412  0.8123
 1315SOL    HW2 6100   9.375   3.038   6.696  1.1184  1.8369 -0.0044
 1316SOL     OW 6101   6.477   4.580   6.326  0.0095  0.4507 -0.3215
 1316SOL    HW1 6102   6.447   4.633   6.400  2.2929  0.7790  0.4525
 1316SOL    HW2 6103   6.560   4.621   6.299 -0.1896 -0.3608 -2.3259
 1317SOL     OW 6104   5.738   3.502   6.114 -0.0707 -0.4297  0.2426
 1317SOL    HW1 6105   5.684   3.438   6.160 -0.7124  0.4318  0.7168
 1317SOL    HW2 6106   5.814   3.452   6.085 -0.6441 -1.4500  0.4245
 1318SOL     OW 6107   4.649   7.301   3.453 -0.1681  0.4508 -0.3984
 1318SOL    HW1 6108   4.638   7.206   3.452  1.4753  0.1753 -2.9827
 1318SOL    HW2 6109   4.561   7.335   3.468 -0.8893 -1.4611 -0.0001
 1319SOL     OW 6110   7.958   3.097   1.938  0.0972 -0.4270  1.1312
 1319SOL    HW1 6111   7.958   3.131   1.848  1.1323 -1.4521  0.7209
 1319SOL    HW2 6112   7.876   3.047   1.944 -0.2547  0.1205  0.9521
 1320SOL     OW 6113   6.627   0.440   3.282  0.6013 -0.1120 -0.0186
 1320SOL    HW1 6114   6.620   0.429   3.377  1.2365 -1.4391 -0.1123
 1320SOL    HW2 6115   6.675   0.523   3.271 -2.0845  1.6645  0.7412
 1321SOL     OW 6116   2.207   5.875   6.485 -0.4232 -0.1867 -0.4280
 1321SOL    HW1 6117   2.129   5.857   6.433  1.6488 -0.4978 -3.7123
 1321SOL    HW2 6118   2.228   5.791   6.527 -0.0014 -1.0962 -2.3417
 1322SOL     OW 6119   1.672   0.933   5.716  0.4136  0.6651  0.3596
 1322SOL    HW1 6120   1.584   0.970   5.715  0.1137 -0.0131 -0.2153
 1322SOL    HW2 6121   1.719   0.982   5.782  0.1081  2.2111 -0.5353
 1323SOL     OW 6122   5.377   4.881   0.873  0.6840  0.1003  0.3799
 1323SOL    HW1 6123   5.410   4.932   0.799 -0.4627 -1.1155 -1.0213
 1323SOL    HW2 6124   5.449   4.821   0.894  0.4730 -0.6186 -0.8207
 1324SOL     OW 6125   3.158   8.979   0.137  0.0582  0.3774  0.1791
 1324SOL    HW1 6126   3.098   8.987   0.062 -0.0520 -1.5931  0.0022
 1324SOL    HW2 6127   3.101   8.952   0.210  0.3070  1.3664  0.7499
 1325SOL     OW 6128   0.222   8.170   7.358 -0.4750 -0.3223  0.0502
 1325SOL    HW1 6129   0.289   8.101   7.359 -0.5101 -0.3749 -0.7378
 1325SOL    HW2 6130   0.169   8.151   7.281 -0.1203  0.9198 -0.5190
 1326SOL     OW 6131   2.158   7.558   8.523  0.3060 -0.4851  1.0857
 1326SOL    HW1 6132   2.162   7.534   8.430  1.7169 -3.8253  1.8579
 1326SOL    HW2 6133   2.064   7.556   8.543  0.1008 -1.7930  0.1476
 1327SOL     OW 6134   3.624   8.025   1.634 -0.0494 -0.9116  0.6743
 1327SOL    HW1 6135   3.717   8.026   1.612  0.5607  0.4763  2.9933
 1327SOL    HW2 6136   3.583   8.080   1.567  1.1410  0.1976  0.8242
 1328SOL     OW 6137   1.405   8.931   2.035  0.5164 -0.5412 -0.4678
 1328SOL    HW1 6138   1.433   8.976   2.115 -1.2522 -1.3871  0.6931
 1328SOL    HW2 6139   1.475   8.867   2.018  0.7409 -0.6061  0.6330
 1329SOL     OW 6140   3.358   3.770   3.273 -0.2895  0.5966  0.0180
 1329SOL    HW1 6141   3.402   3.695   3.313  1.5373  1.7375  0.2241
 1329SOL    HW2 6142   3.321   3.818   3.347 -2.4264 -0.6057 -0.1804
 1330SOL     OW 6143   1.415   1.819   2.821 -0.6101 -0.2913  0.2263
 1330SOL    HW1 6144   1.455   1.735   2.844 -0.9012 -0.4074  0.3200
 1330SOL    HW2 6145   1.481   1.884   2.843 -0.5140 -0.4728  0.4800
 1331SOL     OW 6146   5.496   4.834   1.524 -0.2085 -0.1204 -0.3440
 1331SOL    HW1 6147   5.406   4.801   1.535 -0.2225 -0.3448 -1.0751
 1331SOL    HW2 6148   5.512   4.827   1.430  0.4826  0.1778 -0.2495
 1332SOL     OW 6149   3.878   9.429   5.863 -0.4747 -0.3553  0.2038
 1332SOL    HW1 6150   3.945   9.439   5.930  0.4745 -1.6057 -0.5059
 1332SOL    HW2 6151   3.832   9.513   5.861  0.2627  0.0951  1.5657
 1333SOL     OW 6152   0.017   4.500   0.405  0.3311 -0.2942 -0.5589
 1333SOL    HW1 6153   0.015   4.506   0.501  0.4434  0.6371 -0.6083
 1333SOL    HW2 6154   0.083   4.434   0.387  0.4147 -0.3723  0.0055
 1334SOL     OW 6155   6.077   1.620   2.956 -1.0220 -0.7377 -0.3687
 1334SOL    HW1 6156   6.011   1.621   3.026  1.1256 -1.6950  1.8100
 1334SOL    HW2 6157   6.153   1.665   2.994 -0.3478  0.3520 -2.7922
 1335SOL     OW 6158   2.695   4.598   7.819  0.1630  0.2225  0.8607
 1335SOL    HW1 6159   2.782   4.585   7.855  0.5924 -1.0889 -0.5651
 1335SOL    HW2 6160   2.709   4.616   7.727 -1.1126 -1.9830  0.1583
 1336SOL     OW 6161   0.400   3.650   6.736  0.1308  0.0376  0.2599
 1336SOL    HW1 6162   0.420   3.738   6.769 -2.1549 -0.0612  2.2279
 1336SOL    HW2 6163   0.334   3.665   6.667  0.1660 -0.1022  0.1952
 1337SOL     OW 6164   0.199   2.014   5.274 -0.4069  0.7506 -0.0441
 1337SOL    HW1 6165   0.253   2.088   5.304 -0.9600  0.9245  0.5379
 1337SOL    HW2 6166   0.109   2.045   5.282 -0.6393  0.0709  0.0327
 1338SOL     OW 6167   1.733   9.363   7.298  0.2667  0.1244  0.0638
 1338SOL    HW1 6168   1.710   9.455   7.307 -1.0936 -0.3201  1.4949
 1338SOL    HW2 6169   1.776   9.341   7.380  1.0838 -0.4067 -0.4893
 1339SOL     OW 6170   7.513   4.893   6.738  0.2541  0.1765  0.5755
 1339SOL    HW1 6171   7.559   4.850   6.810  0.3144  1.8220  1.5514
 1339SOL    HW2 6172   7.420   4.876   6.756  0.3381 -2.1622 -0.7743
 1340SOL     OW 6173   2.892   3.336   1.210 -0.6129  0.6347 -0.8700
 1340SOL    HW1 6174   2.842   3.260   1.238 -0.4759  0.5521 -0.8501
 1340SOL    HW2 6175   2.978   3.324   1.250 -0.1332  0.0742 -2.0330
 1341SOL     OW 6176   4.585   0.023   4.982  0.0749 -0.3119  0.3266
 1341SOL    HW1 6177   4.647  -0.043   4.950  0.3330 -1.3487  2.7226
 1341SOL    HW2 6178   4.551   0.065   4.903  2.7531 -0.6828 -1.1409
 1342SOL     OW 6179   5.090   4.170   1.601  0.5142  0.8881 -0.1572
 1342SOL    HW1 6180   5.028   4.224   1.650  0.6061  0.6695  0.2056
 1342SOL    HW2 6181   5.132   4.116   1.668  1.2517  1.1829 -0.3839
 1343SOL     OW 6182   5.990   1.666   9.117 -0.0727  0.3996  0.3377
 1343SOL    HW1 6183   5.978   1.666   9.212  1.9754 -1.2305  0.6501
 1343SOL    HW2 6184   5.970   1.576   9.091  1.4324  0.2849 -0.4714
 1344SOL     OW 6185   5.082   6.132   3.423 -0.0569  0.1357  0.0678
 1344SOL    HW1 6186   5.084   6.037   3.432  0.5372  0.1699  0.3712
 1344SOL    HW2 6187   5.171   6.155   3.395 -0.2593  0.5820 -0.2267
 1345SOL     OW 6188   6.028   0.031   6.420  0.3795 -0.0347 -0.1020
 1345SOL    HW1 6189   5.981   0.099   6.469 -1.1707 -1.8561  1.0490
 1345SOL    HW2 6190   6.030   0.064   6.330  0.6220  1.9963  0.5973
 1346SOL     OW 6191   6.292   4.564   8.062  0.4578  0.3229  0.0006
 1346SOL    HW1 6192   6.246   4.490   8.024 -0.2499  0.9485 -0.3945
 1346SOL    HW2 6193   6.223   4.627   8.084  1.1033  1.2173 -0.4619
 1347SOL     OW 6194   6.167   6.801   4.975 -0.9497 -0.2389 -0.0353
 1347SOL    HW1 6195   6.115   6.797   5.055 -2.6638  2.2385 -0.9144
 1347SOL    HW2 6196   6.202   6.890   4.972  1.5853 -1.1456 -0.6334
 1348SOL     OW 6197   8.790   6.769   6.892  0.0010 -0.1344 -0.1752
 1348SOL    HW1 6198   8.816   6.677   6.891  3.9771  0.5613  4.3358
 1348SOL    HW2 6199   8.820   6.803   6.808 -0.3610 -2.6475 -1.4057
 1349SOL     OW 6200   4.328   1.970   7.709  0.6397  0.1573 -0.2593
 1349SOL    HW1 6201   4.372   2.052   7.733  0.6305  0.8244 -2.3678
 1349SOL    HW2 6202   4.263   1.996   7.644 -1.2265 -1.1670  0.9805
 1350SOL     OW 6203   5.139   1.946   4.578 -0.5382 -0.1430  0.1422
 1350SOL    HW1 6204   5.207   1.981   4.521 -1.0167  1.3991  0.4819
 1350SOL    HW2 6205   5.078   2.018   4.591 -1.2123 -0.8968  1.4434
 1351SOL     OW 6206   3.969   8.187   8.975  0.1493  0.4155  0.0825
 1351SOL    HW1 6207   4.055   8.227   8.962  0.5800 -0.5061  0.0521
 1351SOL    HW2 6208   3.928   8.190   8.888  0.1565  0.8315  0.0912
 1352SOL     OW 6209   5.969   0.927   8.358 -0.8569  0.1038  0.1543
 1352SOL    HW1 6210   5.915   0.998   8.323 -1.1019 -0.1567  0.0033
 1352SOL    HW2 6211   5.918   0.848   8.342 -0.1406 -0.2177 -0.5916
 1353SOL     OW 6212   1.411   9.494   3.805 -0.1158  0.5396 -0.1427
 1353SOL    HW1 6213   1.339   9.508   3.867  1.5450 -1.8403  2.5724
 1353SOL    HW2 6214   1.484   9.544   3.841  1.6443 -2.9151  1.5401
 1354SOL     OW 6215   5.920   1.156   3.803 -0.0951  0.3290 -0.2588
 1354SOL    HW1 6216   5.957   1.216   3.868  0.0511  0.5180 -0.5173
 1354SOL    HW2 6217   5.878   1.088   3.855 -1.6526  1.4811  0.0430
 1355SOL     OW 6218   5.141   9.289   6.147  0.5108  0.4889 -0.0276
 1355SOL    HW1 6219   5.060   9.238   6.150  1.2606 -0.7676 -0.2523
 1355SOL    HW2 6220   5.143   9.336   6.230  0.1135 -0.3746  0.4832
 1356SOL     OW 6221   5.555   6.032   3.581 -0.3893 -0.4973  0.0493
 1356SOL    HW1 6222   5.504   5.971   3.528 -1.2064  0.4800 -0.3099
 1356SOL    HW2 6223   5.515   6.117   3.566  2.4791  0.6771 -1.7301
 1357SOL     OW 6224   3.561   1.219   0.937  0.4578  0.2189  0.2585
 1357SOL    HW1 6225   3.472   1.254   0.941  1.1190  1.8387  1.4603
 1357SOL    HW2 6226   3.603   1.248   1.018  2.7920  1.4381 -1.2843
 1358SOL     OW 6227   3.008   9.091   9.559 -0.4699  0.6598 -0.1798
 1358SOL    HW1 6228   2.995   9.174   9.514  1.2913  0.6785 -0.7126
 1358SOL    HW2 6229   3.062   9.039   9.500  1.3481  0.4348  1.5528
 1359SOL     OW 6230   4.578   8.176   4.510  0.3897  0.0736  0.2410
 1359SOL    HW1 6231   4.662   8.194   4.553  0.6800 -0.0287 -0.2773
 1359SOL    HW2 6232   4.529   8.123   4.573  0.5695  0.4388  0.6943
 1360SOL     OW 6233   9.320   1.946   2.810 -0.6884  0.5662  0.1448
 1360SOL    HW1 6234   9.329   1.850   2.812  0.6517  0.6706  2.0384
 1360SOL    HW2 6235   9.227   1.961   2.794 -1.1274 -1.0721  0.8907
 1361SOL     OW 6236   5.397   6.266   0.475  0.0954  0.3535  0.6315
 1361SOL    HW1 6237   5.307   6.292   0.455  1.0463  2.3181 -1.4944
 1361SOL    HW2 6238   5.433   6.237   0.392  2.0244  1.6415  0.9569
 1362SOL     OW 6239   8.450   1.126   7.852 -0.0959 -0.2284  0.5926
 1362SOL    HW1 6240   8.461   1.033   7.834  0.0725 -0.2415  0.7648
 1362SOL    HW2 6241   8.471   1.135   7.945  3.1003  0.5008 -0.1037
 1363SOL     OW 6242   0.915   3.053   0.616  0.4597 -0.4057  0.0956
 1363SOL    HW1 6243   0.913   2.980   0.677 -0.2392 -0.4343  0.0566
 1363SOL    HW2 6244   0.976   3.116   0.654  3.2430 -2.1177 -1.1935
 1364SOL     OW 6245   8.962   6.807   3.136  0.1426  0.0844  0.7480
 1364SOL    HW1 6246   8.939   6.810   3.229 -0.3224 -3.0748  0.8194
 1364SOL    HW2 6247   8.878   6.794   3.092  0.7116 -2.0016  0.2165
 1365SOL     OW 6248   9.116   0.052   7.847  0.1452 -0.1597 -0.2321
 1365SOL    HW1 6249   9.167   0.116   7.797  0.0964 -0.3462 -0.5230
 1365SOL    HW2 6250   9.025   0.069   7.823 -0.0773  1.0995  1.3483
 1366SOL     OW 6251   4.461   6.145   2.450 -0.4648 -0.1842 -0.1136
 1366SOL    HW1 6252   4.427   6.229   2.420 -1.6176 -0.1670  1.1462
 1366SOL    HW2 6253   4.555   6.160   2.460 -0.5387  0.7219 -0.6436
 1367SOL     OW 6254   1.551   1.068   1.676  0.3295 -0.0579 -0.0896
 1367SOL    HW1 6255   1.472   1.112   1.645  0.3741 -0.0468 -0.1868
 1367SOL    HW2 6256   1.547   0.981   1.637  0.6992  0.1660 -0.6246
 1368SOL     OW 6257   9.461   2.670   9.015  0.4452 -0.5296  0.0483
 1368SOL    HW1 6258   9.528   2.739   9.006  1.1602 -1.3058 -0.7628
 1368SOL    HW2 6259   9.388   2.701   8.961 -0.2477  0.7506  1.6393
 1369SOL     OW 6260   5.932   8.853   2.105 -0.3487  0.2267  0.5959
 1369SOL    HW1 6261   6.012   8.906   2.093 -1.5148  1.8271 -0.6196
 1369SOL    HW2 6262   5.937   8.787   2.035  0.2633 -0.1696  1.0038
 1370SOL     OW 6263   4.326   6.795   8.642 -0.7455 -0.0212  0.2426
 1370SOL    HW1 6264   4.393   6.731   8.618  0.7518  1.2130  0.9779
 1370SOL    HW2 6265   4.320   6.853   8.567 -0.4878  0.2668  0.4426
 1371SOL     OW 6266   6.260   5.469   1.334  0.1655  0.2920  0.4384
 1371SOL    HW1 6267   6.242   5.554   1.295  2.2036  0.2272 -0.7372
 1371SOL    HW2 6268   6.179   5.418   1.319 -0.7860  1.7344  0.4917
 1372SOL     OW 6269   6.399   2.799   8.977 -0.2716  0.2426 -0.6603
 1372SOL    HW1 6270   6.307   2.821   8.994 -1.2201 -2.5013 -1.6124
 1372SOL    HW2 6271   6.447   2.841   9.047 -2.3830  0.9582  0.4566
 1373SOL     OW 6272   3.425   6.480   7.993  1.3454 -0.0901  0.0766
 1373SOL    HW1 6273   3.423   6.384   7.986 -0.7830 -0.1878  1.3000
 1373SOL    HW2 6274   3.334   6.507   7.990  1.5834  1.5747  3.0753
 1374SOL     OW 6275   4.014   9.129   1.114  0.0330 -0.7445 -0.0592
 1374SOL    HW1 6276   4.014   9.047   1.066 -0.2346  0.4096 -2.1624
 1374SOL    HW2 6277   3.922   9.146   1.134  0.1757 -1.4234  1.3263
 1375SOL     OW 6278   6.331   9.588   1.039 -0.0826 -0.3812 -0.5153
 1375SOL    HW1 6279   6.243   9.609   1.072  0.1430 -0.6292  0.2544
 1375SOL    HW2 6280   6.322   9.591   0.944 -0.9423 -0.4614 -0.4419
 1376SOL     OW 6281   8.121   7.678   1.919  0.8553  0.6671 -0.1155
 1376SOL    HW1 6282   8.124   7.615   1.991  0.9615  0.0181 -0.6842
 1376SOL    HW2 6283   8.100   7.762   1.962 -1.3681 -0.1036  0.4190
 1377SOL     OW 6284   5.832   3.642   5.737  0.3074  0.2182  0.2036
 1377SOL    HW1 6285   5.919   3.623   5.701  0.1882  0.4413 -0.2083
 1377SOL    HW2 6286   5.849   3.687   5.820  0.5914 -1.3128  0.9981
 1378SOL     OW 6287   1.230   0.698   2.155  0.2634  0.1840 -0.5159
 1378SOL    HW1 6288   1.156   0.643   2.183  0.1019  0.0138 -1.2540
 1378SOL    HW2 6289   1.189   0.778   2.121  0.5066  0.8457  0.7145
 1379SOL     OW 6290   6.285   2.480   7.750  0.2291 -0.2110  0.5869
 1379SOL    HW1 6291   6.359   2.488   7.690 -0.5487 -0.3913 -0.4251
 1379SOL    HW2 6292   6.221   2.544   7.719 -0.2391 -0.3875  1.1534
 1380SOL     OW 6293   0.759   9.363   8.533  0.0922  0.5867  0.2734
 1380SOL    HW1 6294   0.790   9.448   8.564 -0.1181  1.0675 -0.7746
 1380SOL    HW2 6295   0.766   9.369   8.437 -0.1543 -0.4866  0.1801
 1381SOL     OW 6296   9.348   8.068   9.023  0.2547  0.0013 -0.0741
 1381SOL    HW1 6297   9.405   8.053   8.947  0.0946  0.9129 -0.3823
 1381SOL    HW2 6298   9.398   8.034   9.097  0.5301 -0.6474 -0.5427
 1382SOL     OW 6299   8.275   4.967   4.815 -0.1482 -0.0417 -0.0496
 1382SOL    HW1 6300   8.207   5.028   4.786 -2.0245 -0.9988  1.9881
 1382SOL    HW2 6301   8.233   4.916   4.885  1.7796 -2.7025 -0.6679
 1383SOL     OW 6302   2.417   1.703   0.214  0.5665 -0.6532  0.5282
 1383SOL    HW1 6303   2.382   1.681   0.127  0.9234 -0.6999  0.3932
 1383SOL    HW2 6304   2.376   1.639   0.272 -0.2018 -0.1974  0.5100
 1384SOL     OW 6305   0.939   2.500   6.473  0.7112  0.3244  0.2630
 1384SOL    HW1 6306   0.961   2.474   6.563 -0.8918 -0.2209  0.5283
 1384SOL    HW2 6307   0.871   2.567   6.484 -1.3108 -1.4781 -0.5145
 1385SOL     OW 6308   7.114   8.040   7.070 -0.2787 -0.1296  0.2002
 1385SOL    HW1 6309   7.108   8.102   7.142 -1.5006  1.1859 -1.0039
 1385SOL    HW2 6310   7.045   8.065   7.009  1.4863 -0.4139 -2.0465
 1386SOL     OW 6311   6.583   7.581   0.149  0.4120 -0.5112 -0.4430
 1386SOL    HW1 6312   6.626   7.657   0.187  1.3686 -1.1912 -0.1408
 1386SOL    HW2 6313   6.650   7.513   0.147 -1.2379 -2.4597  2.4629
 1387SOL     OW 6314   2.627   8.964   5.187  0.4698  0.0181  0.5202
 1387SOL    HW1 6315   2.653   9.036   5.130 -0.5622 -0.1222 -0.1621
 1387SOL    HW2 6316   2.544   8.933   5.150  0.8651 -1.4883  0.8228
 1388SOL     OW 6317   8.792   1.163   0.550  0.6304 -0.5179  0.2864
 1388SOL    HW1 6318   8.828   1.251   0.554  0.1921 -0.3717  1.3990
 1388SOL    HW2 6319   8.765   1.152   0.459 -3.9514  2.3853  0.9979
 1389SOL     OW 6320   9.025   1.296   5.925 -0.1320 -0.2360 -0.0125
 1389SOL    HW1 6321   8.959   1.302   5.994 -2.3609  1.1153 -2.1076
 1389SOL    HW2 6322   9.070   1.381   5.928  0.1154 -0.3730  0.1177
 1390SOL     OW 6323   4.140   1.567   6.651 -0.0341  0.0365 -0.3416
 1390SOL    HW1 6324   4.221   1.562   6.599  0.0502 -0.7800 -0.1405
 1390SOL    HW2 6325   4.150   1.498   6.717 -1.3536 -0.8037 -0.9818
 1391SOL     OW 6326   2.081   1.127   5.648 -0.1225  0.1374  0.2826
 1391SOL    HW1 6327   2.114   1.068   5.717 -0.8832 -0.1573  0.4001
 1391SOL    HW2 6328   2.045   1.201   5.696  0.3173  0.4368  0.1543
 1392SOL     OW 6329   3.963   2.250   5.326  0.1290 -0.3113  0.3121
 1392SOL    HW1 6330   4.039   2.304   5.304 -0.4921  0.3146 -0.3282
 1392SOL    HW2 6331   3.906   2.256   5.249  0.1081 -2.0017  0.1740
 1393SOL     OW 6332   5.089   9.485   4.094  0.8254 -0.3078  0.5660
 1393SOL    HW1 6333   5.147   9.462   4.167  0.1058  0.3660  1.3632
 1393SOL    HW2 6334   5.020   9.537   4.133 -0.4677 -1.2753 -0.3326
 1394SOL     OW 6335   8.505   8.203   2.051  0.3496 -0.0200 -0.3781
 1394SOL    HW1 6336   8.563   8.180   2.124 -1.1780 -0.8667  0.6425
 1394SOL    HW2 6337   8.492   8.120   2.004 -0.3730  0.0581 -0.3283
 1395SOL     OW 6338   6.686   4.272   3.609 -0.2170 -0.2791  0.0107
 1395SOL    HW1 6339   6.727   4.196   3.566 -0.4837 -1.2386  1.3849
 1395SOL    HW2 6340   6.606   4.287   3.560  0.7281  0.2976 -1.4171
 1396SOL     OW 6341   1.352   5.403   8.192  0.2903  0.2428  0.4092
 1396SOL    HW1 6342   1.322   5.453   8.117 -0.2167 -2.1507 -1.0946
 1396SOL    HW2 6343   1.287   5.421   8.261 -1.4849 -0.5051 -0.9969
 1397SOL     OW 6344   5.735   0.476   4.398  0.1251 -0.0284  0.2787
 1397SOL    HW1 6345   5.666   0.487   4.332 -0.2758 -0.3846  0.6315
 1397SOL    HW2 6346   5.775   0.563   4.406 -0.5644  0.2881  0.3794
 1398SOL     OW 6347   9.572   0.733   5.998  0.5659  0.1509 -0.0304
 1398SOL    HW1 6348   9.615   0.699   5.919  0.9379  1.2763 -0.3293
 1398SOL    HW2 6349   9.574   0.828   5.988 -0.7365  0.2716  0.6328
 1399SOL     OW 6350   1.545   9.526   0.446 -0.0663  0.6359  0.4387
 1399SOL    HW1 6351   1.493   9.520   0.366  0.9907 -1.2126 -0.1575
 1399SOL    HW2 6352   1.481   9.527   0.516 -0.9810  1.3644 -0.3676
 1400SOL     OW 6353   4.759   0.575   1.330  0.9085  0.3514  0.1209
 1400SOL    HW1 6354   4.740   0.589   1.423 -1.1787 -0.9370 -0.0600
 1400SOL    HW2 6355   4.831   0.636   1.311  1.1395  0.9032  2.4704
 1401SOL     OW 6356   8.401   9.366   2.770 -0.0074  0.5859 -0.1470
 1401SOL    HW1 6357   8.356   9.446   2.796 -0.2747  1.1724 -2.2218
 1401SOL    HW2 6358   8.468   9.353   2.837  0.2824  2.7604  0.0603
 1402SOL     OW 6359   9.062   0.786   4.087 -0.3714 -0.2076  0.4664
 1402SOL    HW1 6360   9.112   0.720   4.136 -0.9045 -0.9194  0.0762
 1402SOL    HW2 6361   8.971   0.762   4.100 -0.5532  0.1706 -0.0678
 1403SOL     OW 6362   7.316   2.808   7.006 -0.7440  0.5829  0.1700
 1403SOL    HW1 6363   7.230   2.817   7.046 -0.0893  2.3118  1.3802
 1403SOL    HW2 6364   7.349   2.898   7.002  0.9208 -0.0178 -0.4268
 1404SOL     OW 6365   5.921   7.681   9.126 -0.1814 -0.3265  0.8210
 1404SOL    HW1 6366   5.845   7.731   9.096 -2.1719 -3.1578  0.6969
 1404SOL    HW2 6367   5.972   7.743   9.176 -2.0684  1.9858  0.0848
 1405SOL     OW 6368   3.002   2.217   6.248 -0.3796  0.1798  0.3795
 1405SOL    HW1 6369   3.034   2.216   6.158 -2.4467 -0.3486 -0.4103
 1405SOL    HW2 6370   3.065   2.163   6.297  1.2970  1.2574 -0.5081
 1406SOL     OW 6371   6.852   7.107   8.790 -0.2369 -0.4277 -0.4061
 1406SOL    HW1 6372   6.916   7.075   8.853  1.8444  0.8027 -1.7655
 1406SOL    HW2 6373   6.864   7.050   8.714  1.4310  1.5785 -1.7561
 1407SOL     OW 6374   2.488   4.519   3.956 -0.0587 -0.2708 -0.0510
 1407SOL    HW1 6375   2.426   4.457   3.917 -1.5692  1.3516 -0.3438
 1407SOL    HW2 6376   2.434   4.577   4.009  1.8043 -1.9132  4.0606
 1408SOL     OW 6377   4.899   5.485   7.496 -0.0214  0.8025  0.6481
 1408SOL    HW1 6378   4.946   5.520   7.572  0.8199  2.3382 -0.5062
 1408SOL    HW2 6379   4.927   5.394   7.489  1.0224  1.0621  1.3263
 1409SOL     OW 6380   1.445   7.505   5.831  0.1873 -0.4096  0.2622
 1409SOL    HW1 6381   1.416   7.593   5.810 -3.3795 -1.5252 -0.0758
 1409SOL    HW2 6382   1.493   7.476   5.753  1.3260  1.1268  0.3496
 1410SOL     OW 6383   2.345   3.182   5.921 -0.0414  0.4554 -0.0031
 1410SOL    HW1 6384   2.350   3.089   5.943  1.8381  0.6874  0.6823
 1410SOL    HW2 6385   2.359   3.186   5.826 -1.1918 -0.0033 -0.2151
 1411SOL     OW 6386   2.316   4.427   6.716  0.5386  0.2756 -0.0821
 1411SOL    HW1 6387   2.404   4.395   6.737  0.6457  0.9316  0.5162
 1411SOL    HW2 6388   2.321   4.449   6.622  0.6484 -0.8107 -0.3427
 1412SOL     OW 6389   3.608   8.176   7.852 -0.3855  0.0688  0.2998
 1412SOL    HW1 6390   3.676   8.159   7.787 -0.5307  1.5065 -0.2647
 1412SOL    HW2 6391   3.650   8.157   7.936 -0.2283 -1.9059 -0.1879
 1413SOL     OW 6392   1.871   4.840   6.974  0.3653  0.0995 -0.0355
 1413SOL    HW1 6393   1.780   4.867   6.967 -0.2720 -2.1221 -1.3998
 1413SOL    HW2 6394   1.869   4.759   7.023  1.7612  0.5575  0.8348
 1414SOL     OW 6395   5.530   7.902   8.055  0.6292 -0.9985 -0.4598
 1414SOL    HW1 6396   5.540   7.987   8.097  1.4885 -1.4015  0.1668
 1414SOL    HW2 6397   5.517   7.923   7.962  0.1417 -0.1703 -0.2187
 1415SOL     OW 6398   6.193   1.680   3.826 -0.2951  0.1433  0.3996
 1415SOL    HW1 6399   6.159   1.631   3.901 -2.5654  0.6116 -0.2365
 1415SOL    HW2 6400   6.117   1.726   3.791 -0.0541 -2.1057 -3.7868
 1416SOL     OW 6401   7.177   4.251   8.724  0.1359 -0.2051 -0.0806
 1416SOL    HW1 6402   7.169   4.273   8.817 -2.5727 -2.8174  0.4580
 1416SOL    HW2 6403   7.171   4.155   8.722  0.7153 -0.2619 -2.9434
 1417SOL     OW 6404   4.138   5.246   3.948  0.3783 -0.0358 -0.5123
 1417SOL    HW1 6405   4.155   5.152   3.942  1.6379  0.1001  0.4685
 1417SOL    HW2 6406   4.138   5.264   4.042 -1.0773  0.7566 -0.6417
 1418SOL     OW 6407   4.129   6.549   3.580 -0.4652 -0.5136 -0.1374
 1418SOL    HW1 6408   4.174   6.616   3.527 -0.8959 -0.4310 -0.4007
 1418SOL    HW2 6409   4.071   6.599   3.638 -3.0361 -0.7132 -2.3569
 1419SOL     OW 6410   6.503   7.484   0.748  0.4033 -0.4121 -0.3082
 1419SOL    HW1 6411   6.525   7.467   0.657  1.7133  0.1570 -0.1176
 1419SOL    HW2 6412   6.570   7.438   0.798  1.5502  1.7948  0.2934
 1420SOL     OW 6413   9.629   2.909   8.923  0.5386 -0.3550 -0.2653
 1420SOL    HW1 6414   9.564   2.974   8.894 -1.1294 -1.2139  1.3473
 1420SOL    HW2 6415   9.695   2.961   8.969  1.2802  0.5774 -2.2556
 1421SOL     OW 6416   1.026   2.950   1.293 -0.2258  0.3135 -0.3072
 1421SOL    HW1 6417   1.121   2.960   1.297  0.0305 -1.6013 -0.7095
 1421SOL    HW2 6418   1.000   2.927   1.382 -0.3032  0.6780 -0.2328
 1422SOL     OW 6419   3.963   2.804   0.189  0.2592  0.2624 -0.1274
 1422SOL    HW1 6420   3.899   2.781   0.123  0.0725  0.2555  0.0545
 1422SOL    HW2 6421   3.970   2.726   0.244  0.0868  0.4177  0.1203
 1423SOL     OW 6422   6.680   0.667   4.359  0.2374 -0.3071 -0.0781
 1423SOL    HW1 6423   6.773   0.683   4.344 -0.5273  2.8396 -2.5468
 1423SOL    HW2 6424   6.636   0.745   4.325 -3.3783 -1.9122  0.4317
 1424SOL     OW 6425   8.960   7.675   2.588 -0.1611 -0.3408 -0.0860
 1424SOL    HW1 6426   8.935   7.755   2.634 -0.9509 -1.7994  2.1618
 1424SOL    HW2 6427   9.046   7.652   2.625  0.5757 -0.0110 -1.5087
 1425SOL     OW 6428   5.834   8.464   7.593 -0.0918 -0.1732 -0.5271
 1425SOL    HW1 6429   5.779   8.510   7.656  0.2522 -0.7749  0.2419
 1425SOL    HW2 6430   5.849   8.527   7.522 -0.2897  0.6029  0.1078
 1426SOL     OW 6431   8.645   0.857   5.376 -0.3534  0.3270 -0.5702
 1426SOL    HW1 6432   8.620   0.945   5.404 -0.2145  0.5125 -1.0231
 1426SOL    HW2 6433   8.719   0.833   5.433  0.6299  1.1304 -1.4705
 1427SOL     OW 6434   7.364   3.088   8.961 -0.2815 -0.4067 -0.3500
 1427SOL    HW1 6435   7.394   3.012   9.010  0.5671 -0.1567 -0.4604
 1427SOL    HW2 6436   7.432   3.102   8.894 -0.0297  0.8742  0.1299
 1428SOL     OW 6437   3.023   1.194   1.596  0.1569 -0.9629 -0.1545
 1428SOL    HW1 6438   3.011   1.109   1.555  0.1643 -0.5592 -1.0240
 1428SOL    HW2 6439   3.114   1.194   1.624  0.5837 -0.7114 -1.4578
 1429SOL     OW 6440   4.985   1.671   1.507 -0.2166 -0.0952 -0.0924
 1429SOL    HW1 6441   5.028   1.591   1.537 -0.5907 -0.5033 -0.6231
 1429SOL    HW2 6442   4.905   1.640   1.464 -0.4108  0.5723 -0.2152
 1430SOL     OW 6443   4.121   1.546   0.633 -0.2121 -0.0257  0.4183
 1430SOL    HW1 6444   4.111   1.451   0.637  0.8161 -0.1945 -0.4601
 1430SOL    HW2 6445   4.104   1.569   0.541  2.0035  0.2758  0.0119
 1431SOL     OW 6446   4.736   4.299   9.447  0.5877  0.0730  0.0055
 1431SOL    HW1 6447   4.722   4.293   9.541  0.0087 -0.8259 -0.1267
 1431SOL    HW2 6448   4.711   4.213   9.413  1.8268  0.0186 -0.8409
 1432SOL     OW 6449   3.784   6.183   7.287  0.2642 -0.4930 -0.1780
 1432SOL    HW1 6450   3.786   6.272   7.252  0.7999 -0.4613 -0.0803
 1432SOL    HW2 6451   3.838   6.133   7.227  0.2671 -0.6752 -0.0231
 1433SOL     OW 6452   1.621   7.480   6.902 -0.1738 -0.0964  0.1042
 1433SOL    HW1 6453   1.537   7.521   6.921  0.4591  0.3921  2.0175
 1433SOL    HW2 6454   1.675   7.551   6.868  0.2801  0.2314  1.4572
 1434SOL     OW 6455   3.429   5.060   8.561 -0.1372  0.3286  0.1195
 1434SOL    HW1 6456   3.471   5.133   8.607  1.6144 -0.2588 -0.4493
 1434SOL    HW2 6457   3.464   4.982   8.603 -2.0342 -0.2415  0.7547
 1435SOL     OW 6458   6.585   0.584   5.438 -0.3776  0.3686  0.0284
 1435SOL    HW1 6459   6.542   0.529   5.372  0.4867  0.3423 -0.5192
 1435SOL    HW2 6460   6.514   0.609   5.497 -0.9771 -0.4618 -0.3164
 1436SOL     OW 6461   7.182   2.255   2.367 -0.0435 -0.1268 -0.3547
 1436SOL    HW1 6462   7.117   2.187   2.348 -0.2093 -0.0866  0.0773
 1436SOL    HW2 6463   7.191   2.303   2.284 -0.8246  0.0895 -0.3237
 1437SOL     OW 6464   7.224   8.622   1.234 -0.1479  0.0927 -0.5846
 1437SOL    HW1 6465   7.316   8.621   1.262 -0.5147 -1.5493  0.7134
 1437SOL    HW2 6466   7.185   8.694   1.284 -0.0910 -0.8339  0.8691
 1438SOL     OW 6467   4.498   8.859   1.064 -0.0573 -0.2251  0.3258
 1438SOL    HW1 6468   4.498   8.765   1.046 -1.5011 -0.2596  0.3324
 1438SOL    HW2 6469   4.547   8.898   0.992 -1.6380 -0.7805 -1.1214
 1439SOL     OW 6470   3.547   5.786   6.375  0.1503 -0.4393 -0.3716
 1439SOL    HW1 6471   3.487   5.752   6.309  0.4904 -1.0862 -0.3654
 1439SOL    HW2 6472   3.625   5.730   6.367 -0.4062 -1.6325  1.6423
 1440SOL     OW 6473   1.569   6.481   7.127  0.2247 -0.1353 -0.0084
 1440SOL    HW1 6474   1.576   6.456   7.219 -1.9953 -0.6010  0.0818
 1440SOL    HW2 6475   1.475   6.484   7.110  0.4712  2.8215 -1.4896
 1441SOL     OW 6476   2.821   3.053   7.271 -0.1581  0.5070 -1.0988
 1441SOL    HW1 6477   2.741   3.000   7.262  0.8603 -1.3062 -0.0491
 1441SOL    HW2 6478   2.887   3.003   7.224  0.9375  0.6126  0.2794
 1442SOL     OW 6479   5.681   4.233   2.513 -0.2699  0.0412 -0.6325
 1442SOL    HW1 6480   5.725   4.186   2.584 -2.1050  1.0725  1.3202
 1442SOL    HW2 6481   5.588   4.231   2.538 -0.9169  0.8645 -2.7963
 1443SOL     OW 6482   7.367   1.588   0.687  0.6554 -0.3585  0.4466
 1443SOL    HW1 6483   7.363   1.659   0.751 -2.7117 -0.2591  0.3002
 1443SOL    HW2 6484   7.407   1.515   0.733  1.8180  0.8407  1.4009
 1444SOL     OW 6485   6.796   3.026   2.119 -0.0107  0.1306 -0.1709
 1444SOL    HW1 6486   6.766   2.947   2.076 -0.8077  0.6803 -0.6540
 1444SOL    HW2 6487   6.736   3.037   2.194  0.3755  0.0325  0.1528
 1445SOL     OW 6488   8.479   4.535   8.971  0.0484  0.0254  0.4831
 1445SOL    HW1 6489   8.454   4.461   9.025  0.3311  0.5833  1.3995
 1445SOL    HW2 6490   8.398   4.585   8.959  0.0560  0.0878  0.6899
 1446SOL     OW 6491   5.707   6.502   1.853 -0.4563 -0.0787 -0.4688
 1446SOL    HW1 6492   5.650   6.472   1.923 -0.6142  0.9898 -0.1127
 1446SOL    HW2 6493   5.794   6.505   1.892 -0.0869 -1.9394 -1.0819
 1447SOL     OW 6494   4.645   9.331   1.628 -0.1934 -0.0276 -0.1410
 1447SOL    HW1 6495   4.567   9.286   1.595 -0.1323 -0.1637 -0.1016
 1447SOL    HW2 6496   4.624   9.424   1.621  0.0715 -0.0359 -1.1717
 1448SOL     OW 6497   3.601   0.075   4.802  0.3586  0.4418 -0.4089
 1448SOL    HW1 6498   3.625   0.067   4.894 -0.1548 -0.0242 -0.3080
 1448SOL    HW2 6499   3.658   0.144   4.768  0.7565  0.4145  0.1849
 1449SOL     OW 6500   0.199   8.223   3.228 -0.2804  0.6720  0.6648
 1449SOL    HW1 6501   0.267   8.174   3.182 -1.8677 -0.3142 -0.7507
 1449SOL    HW2 6502   0.231   8.232   3.317  0.7524 -1.6376  0.5763
 1450SOL     OW 6503   6.880   9.451   7.915  0.0157  0.0345 -0.1276
 1450SOL    HW1 6504   6.898   9.367   7.958  0.0196 -0.5289 -1.2056
 1450SOL    HW2 6505   6.941   9.512   7.956 -1.6655  0.1463  2.4989
 1451SOL     OW 6506   6.881   8.458   9.070 -0.3253 -0.1597  0.1102
 1451SOL    HW1 6507   6.829   8.411   9.004 -0.4970 -0.3065  0.3491
 1451SOL    HW2 6508   6.962   8.408   9.078 -0.4401 -0.3240  0.2464
 1452SOL     OW 6509   8.188   5.157   5.924  0.4810 -0.3928 -0.0479
 1452SOL    HW1 6510   8.103   5.128   5.888  0.2908 -1.4944  1.2154
 1452SOL    HW2 6511   8.166   5.231   5.980  0.3803 -0.5049  0.0632
 1453SOL     OW 6512   5.268   0.689   8.581 -0.0206 -0.2497 -0.1173
 1453SOL    HW1 6513   5.252   0.763   8.639  0.4926  0.6060 -1.0358
 1453SOL    HW2 6514   5.346   0.646   8.617  1.5347  1.4630 -1.2430
 1454SOL     OW 6515   3.389   6.421   0.353 -0.3044 -0.1494 -0.3576
 1454SOL    HW1 6516   3.356   6.511   0.341  1.0078  0.3082 -0.6810
 1454SOL    HW2 6517   3.377   6.380   0.268 -1.3478 -0.4610 -0.0841
 1455SOL     OW 6518   9.516   1.548   8.876 -0.0196  0.3639  0.5687
 1455SOL    HW1 6519   9.424   1.539   8.853  0.6377 -1.1384 -1.8017
 1455SOL    HW2 6520   9.556   1.466   8.849  1.8618  0.5476  2.5551
 1456SOL     OW 6521   9.338   3.225   7.694 -0.3979  0.3171  0.1514
 1456SOL    HW1 6522   9.253   3.207   7.654 -0.4852  1.6111 -0.2920
 1456SOL    HW2 6523   9.395   3.251   7.621  0.2058  0.0624  0.5200
 1457SOL     OW 6524   6.371   2.883   2.709 -0.5819  0.4934 -0.1563
 1457SOL    HW1 6525   6.345   2.861   2.798 -0.1887  0.3660 -0.0724
 1457SOL    HW2 6526   6.466   2.872   2.708 -0.7124 -0.7796 -0.9291
 1458SOL     OW 6527   5.779   0.591   5.817 -0.1767 -0.3038  0.0952
 1458SOL    HW1 6528   5.790   0.686   5.804 -0.7256 -0.2417  0.0672
 1458SOL    HW2 6529   5.734   0.584   5.901 -2.2519 -0.4300 -0.9767
 1459SOL     OW 6530   0.146   6.527   1.676 -0.0988 -0.4881 -0.1898
 1459SOL    HW1 6531   0.139   6.579   1.756  1.3246  2.7470 -1.9795
 1459SOL    HW2 6532   0.056   6.502   1.656 -0.9211  1.6070  0.6241
 1460SOL     OW 6533   6.447   0.124   3.842  0.3186  0.0778 -0.5207
 1460SOL    HW1 6534   6.352   0.113   3.848  0.2748  0.9226  0.8722
 1460SOL    HW2 6535   6.467   0.114   3.749 -1.2042  0.4354 -0.9094
 1461SOL     OW 6536   5.983   4.263   3.895  0.4880  0.6584 -0.4598
 1461SOL    HW1 6537   6.050   4.260   3.826  0.7844  2.8260 -0.3455
 1461SOL    HW2 6538   5.944   4.176   3.895  3.0057 -0.5592 -0.8477
 1462SOL     OW 6539   2.409   1.916   2.377  0.2132 -0.2862  0.0033
 1462SOL    HW1 6540   2.425   2.007   2.402  0.9126  0.0414 -1.5297
 1462SOL    HW2 6541   2.465   1.865   2.435  1.4667  0.4147 -0.5474
 1463SOL     OW 6542   4.993   1.085   5.602  0.1293  0.3099 -0.0114
 1463SOL    HW1 6543   4.985   0.989   5.598  2.0399  0.1424 -0.5635
 1463SOL    HW2 6544   5.031   1.102   5.687  0.9692  0.4691 -0.4123
 1464SOL     OW 6545   0.023   5.452   1.622  0.0702 -0.0968  0.4038
 1464SOL    HW1 6546  -0.002   5.519   1.560 -0.2239  0.9478  1.6119
 1464SOL    HW2 6547  -0.040   5.381   1.609  0.4791 -0.2361 -0.9840
 1465SOL     OW 6548   5.627   8.727   5.722 -0.9097  0.2216 -0.0147
 1465SOL    HW1 6549   5.580   8.807   5.699 -1.1276  0.6141  1.6634
 1465SOL    HW2 6550   5.635   8.731   5.817 -0.4890 -1.5267  0.0473
 1466SOL     OW 6551   6.987   6.994   6.082 -0.1105 -0.3198  0.1149
 1466SOL    HW1 6552   6.894   7.011   6.065 -0.1188  1.1009  1.4232
 1466SOL    HW2 6553   7.001   7.024   6.171  1.2920 -1.9322  0.4802
 1467SOL     OW 6554   2.275   1.456   9.033  0.0561 -0.4347 -0.7640
 1467SOL    HW1 6555   2.319   1.500   8.960 -1.7359 -0.4723 -1.9337
 1467SOL    HW2 6556   2.206   1.404   8.992 -1.0975 -0.3531  0.9505
 1468SOL     OW 6557   4.190   9.076   5.930 -0.7084  0.3583 -0.4220
 1468SOL    HW1 6558   4.126   9.029   5.984 -1.5497  2.4323  0.5304
 1468SOL    HW2 6559   4.137   9.138   5.879  0.3524  0.4504 -1.4594
 1469SOL     OW 6560   9.394   3.820   6.605 -0.0486 -0.2836  0.2152
 1469SOL    HW1 6561   9.315   3.786   6.646 -0.8991  0.4926 -0.7272
 1469SOL    HW2 6562   9.408   3.905   6.647 -0.4157  0.1164 -0.4602
 1470SOL     OW 6563   6.542   7.359   3.239  0.2808 -0.6792  0.1842
 1470SOL    HW1 6564   6.606   7.367   3.169 -0.0753 -1.1891 -0.2077
 1470SOL    HW2 6565   6.591   7.321   3.312  1.0514  1.3532  0.7842
 1471SOL     OW 6566   3.399   6.563   2.417  0.1836 -0.3006  0.4535
 1471SOL    HW1 6567   3.393   6.609   2.333  2.5073 -2.8480 -1.2709
 1471SOL    HW2 6568   3.326   6.500   2.414  0.8312 -1.0419 -0.1419
 1472SOL     OW 6569   1.442   3.329   2.055 -0.0822  0.3253  0.1962
 1472SOL    HW1 6570   1.460   3.405   2.000  0.2770  0.2319  0.1778
 1472SOL    HW2 6571   1.431   3.365   2.143 -1.2735  0.5424 -0.0264
 1473SOL     OW 6572   0.292   5.563   3.914  0.0161  0.1525  0.2514
 1473SOL    HW1 6573   0.214   5.522   3.878 -0.6776  0.8476  0.9152
 1473SOL    HW2 6574   0.334   5.494   3.966  0.1246 -0.3625 -0.5039
 1474SOL     OW 6575   0.145   5.892   9.422  0.1953  0.5288  0.3264
 1474SOL    HW1 6576   0.192   5.844   9.490  0.6026 -1.3860 -1.1957
 1474SOL    HW2 6577   0.071   5.834   9.400 -0.8433  1.8524  0.2324
 1475SOL     OW 6578   0.377   0.067   6.757  0.1483 -0.2083 -0.3234
 1475SOL    HW1 6579   0.316   0.007   6.713 -1.1066  1.0763 -0.4301
 1475SOL    HW2 6580   0.337   0.083   6.842  0.9512 -0.2315  0.0658
 1476SOL     OW 6581   0.437   6.633   5.430  0.2427  0.3085 -0.5069
 1476SOL    HW1 6582   0.360   6.627   5.487 -0.5858 -0.0651 -1.6364
 1476SOL    HW2 6583   0.445   6.727   5.411 -0.9705  0.1995 -1.7270
 1477SOL     OW 6584   9.294   8.699   7.941  0.1736  0.0274  0.4646
 1477SOL    HW1 6585   9.323   8.635   7.875 -1.5838 -0.0950 -0.2639
 1477SOL    HW2 6586   9.343   8.778   7.921  0.2282 -0.2430 -0.5357
 1478SOL     OW 6587   8.055   0.125   3.012 -0.0541 -0.4114 -0.5269
 1478SOL    HW1 6588   8.021   0.104   2.926 -0.2924  0.0647 -0.5523
 1478SOL    HW2 6589   8.064   0.041   3.056  0.3274 -0.6740 -1.1113
 1479SOL     OW 6590   5.913   1.597   8.793 -0.1154  0.2346  0.1086
 1479SOL    HW1 6591   5.889   1.688   8.809 -2.3016 -0.1966 -0.4163
 1479SOL    HW2 6592   5.919   1.558   8.881  1.4392  0.9694  0.3721
 1480SOL     OW 6593   7.061   6.164   4.449  0.0774  0.4829 -0.6210
 1480SOL    HW1 6594   7.096   6.175   4.538  0.2935  0.2123 -0.6699
 1480SOL    HW2 6595   7.076   6.072   4.429 -0.3651  0.4427 -0.7753
 1481SOL     OW 6596   4.196   2.358   2.838  0.1618 -0.6226 -0.3354
 1481SOL    HW1 6597   4.219   2.383   2.748 -0.4130  0.8628 -0.0982
 1481SOL    HW2 6598   4.112   2.402   2.854  1.3263  1.0558  1.6605
 1482SOL     OW 6599   3.956   6.396   7.419 -0.4721  0.4680  0.2435
 1482SOL    HW1 6600   3.916   6.310   7.408 -1.1318  0.6397  1.1769
 1482SOL    HW2 6601   3.882   6.457   7.419 -0.0590  0.9831  0.1782
 1483SOL     OW 6602   3.132   2.427   0.207 -0.0487  0.3010  0.6152
 1483SOL    HW1 6603   3.207   2.479   0.238 -0.1103  0.8152 -0.0742
 1483SOL    HW2 6604   3.172   2.352   0.164  0.0653  0.4330  0.4894
 1484SOL     OW 6605   8.746   6.714   8.191  0.1743  0.2749  0.1985
 1484SOL    HW1 6606   8.735   6.728   8.285 -1.2746  0.4251  0.0245
 1484SOL    HW2 6607   8.717   6.624   8.176  0.6944  0.1466 -0.0627
 1485SOL     OW 6608   4.144   2.051   2.493 -0.0012 -0.0011  0.4955
 1485SOL    HW1 6609   4.082   2.012   2.431 -0.6884 -1.7819  2.2410
 1485SOL    HW2 6610   4.111   2.140   2.506 -1.2887 -0.4070  0.1836
 1486SOL     OW 6611   0.900   0.910   0.125 -0.3937  0.6431  0.2707
 1486SOL    HW1 6612   0.898   0.886   0.218  0.2472 -0.0667  0.1175
 1486SOL    HW2 6613   0.939   0.997   0.124 -1.1246  0.9844  0.7177
 1487SOL     OW 6614   2.020   2.507   7.609  0.1786 -0.0421  0.0741
 1487SOL    HW1 6615   2.059   2.428   7.571 -2.0570 -1.7268  1.0513
 1487SOL    HW2 6616   2.074   2.525   7.686 -0.9040 -2.4087  1.4901
 1488SOL     OW 6617   4.317   5.696   6.122 -0.3387 -0.0296  0.3918
 1488SOL    HW1 6618   4.253   5.646   6.172  1.2471 -1.4462  1.1040
 1488SOL    HW2 6619   4.396   5.642   6.123  0.2159  0.5465 -2.4533
 1489SOL     OW 6620   9.527   9.304   0.720 -0.7449  0.1846 -0.1757
 1489SOL    HW1 6621   9.486   9.230   0.765 -0.4779  0.9971  1.4780
 1489SOL    HW2 6622   9.618   9.304   0.751 -1.2066  2.3090  1.4139
 1490SOL     OW 6623   0.733   4.522   2.714  0.6926  0.7497  1.2043
 1490SOL    HW1 6624   0.816   4.508   2.759  0.2884  0.1296  1.7865
 1490SOL    HW2 6625   0.734   4.614   2.689  1.4381  0.8104  1.4382
 1491SOL     OW 6626   4.039   7.770   0.710 -0.1299  0.2999  0.1458
 1491SOL    HW1 6627   4.100   7.842   0.725  0.6545 -0.4706  0.7858
 1491SOL    HW2 6628   4.092   7.691   0.723 -0.3579 -0.4730 -2.7438
 1492SOL     OW 6629   0.125   3.249   8.653  0.2064 -0.4525  0.0408
 1492SOL    HW1 6630   0.116   3.228   8.747  0.9078 -1.3443 -0.0840
 1492SOL    HW2 6631   0.215   3.279   8.643  0.9551 -2.7835 -0.7692
 1493SOL     OW 6632   3.991   7.948   1.021  0.2412  0.0913 -0.1085
 1493SOL    HW1 6633   3.991   7.984   0.932 -0.1337  0.3696  0.0010
 1493SOL    HW2 6634   3.989   8.025   1.078 -0.8049 -0.0872  0.1263
 1494SOL     OW 6635   5.009   1.651   9.343  0.2606 -0.5885  0.6465
 1494SOL    HW1 6636   5.090   1.644   9.294  0.1286  1.0680  0.1518
 1494SOL    HW2 6637   4.982   1.560   9.358  2.4245 -1.1832  1.2424
 1495SOL     OW 6638   8.980   3.723   1.699 -0.2426 -0.2100 -0.2783
 1495SOL    HW1 6639   8.892   3.760   1.713  0.4557  0.9573  1.2426
 1495SOL    HW2 6640   8.968   3.629   1.712 -0.9648  0.1076  1.7305
 1496SOL     OW 6641   0.262   9.356   4.543  0.5468  0.4895 -0.4552
 1496SOL    HW1 6642   0.332   9.348   4.477  0.5796 -2.4834 -0.2081
 1496SOL    HW2 6643   0.305   9.335   4.626 -0.3671 -0.2333 -0.1422
 1497SOL     OW 6644   2.237   1.094   7.370 -0.2214 -0.1250  0.1660
 1497SOL    HW1 6645   2.154   1.056   7.397 -0.2953  0.4479  0.7833
 1497SOL    HW2 6646   2.249   1.168   7.429  0.4064  0.1927 -0.3513
 1498SOL     OW 6647   5.548   7.329   7.226  0.1178 -0.1589  0.0587
 1498SOL    HW1 6648   5.529   7.238   7.202  0.6743 -0.5150  0.9183
 1498SOL    HW2 6649   5.467   7.376   7.209 -0.5705 -1.0541  0.7647
 1499SOL     OW 6650   4.217   6.012   3.922 -0.0353  0.8489 -0.0929
 1499SOL    HW1 6651   4.303   6.052   3.936 -0.6628  2.4024 -0.4649
 1499SOL    HW2 6652   4.202   6.018   3.828  0.1046 -0.8960 -0.2659
 1500SOL     OW 6653   6.076   5.214   4.856  0.3704  0.3582 -0.2002
 1500SOL    HW1 6654   6.052   5.175   4.940  0.7349 -0.6538 -0.5466
 1500SOL    HW2 6655   6.063   5.144   4.792  0.2091  1.0796 -0.9742
 1501SOL     OW 6656   8.587   0.674   9.588  0.5584 -0.0142  0.4575
 1501SOL    HW1 6657   8.521   0.744   9.589  1.4351  0.8434 -0.1805
 1501SOL    HW2 6658   8.536   0.593   9.583 -0.5075  0.5165  1.9008
 1502SOL     OW 6659   7.758   3.710   7.410  0.0794  0.2594  0.5748
 1502SOL    HW1 6660   7.668   3.728   7.439 -1.0369  0.5316 -2.6890
 1502SOL    HW2 6661   7.803   3.793   7.420 -1.1195  1.1855 -1.1030
 1503SOL     OW 6662   7.590   2.633   6.965 -0.2635  0.0429 -0.0002
 1503SOL    HW1 6663   7.619   2.722   6.982 -0.2896  0.3208 -1.3586
 1503SOL    HW2 6664   7.496   2.641   6.948 -0.1485 -0.1488 -0.7580
 1504SOL     OW 6665   8.206   2.396   2.313  1.0552 -0.0805  0.1988
 1504SOL    HW1 6666   8.256   2.477   2.303 -1.4121  1.5035 -0.1644
 1504SOL    HW2 6667   8.117   2.425   2.331 -0.1199 -2.7095 -0.8573
 1505SOL     OW 6668   3.935   8.431   8.076 -0.4407  0.5305  0.3826
 1505SOL    HW1 6669   3.856   8.427   8.023  0.8785  0.0365 -1.6721
 1505SOL    HW2 6670   4.005   8.405   8.017  1.1481 -0.0738  2.4035
 1506SOL     OW 6671   1.369   3.706   0.538 -0.3740 -0.1174  0.4703
 1506SOL    HW1 6672   1.367   3.654   0.458 -0.6077 -0.3893  0.6492
 1506SOL    HW2 6673   1.306   3.663   0.596 -1.7218  1.2293  0.0872
 1507SOL     OW 6674   4.528   4.675   4.464 -0.1200 -0.2407  0.3993
 1507SOL    HW1 6675   4.614   4.715   4.478 -0.2080 -0.2436  1.0150
 1507SOL    HW2 6676   4.476   4.744   4.422 -0.1647  0.1897  1.1297
 1508SOL     OW 6677   8.021   0.676   4.529 -0.0393  0.1276 -0.5232
 1508SOL    HW1 6678   8.074   0.596   4.530  2.0491  1.3674 -2.7284
 1508SOL    HW2 6679   8.078   0.743   4.566 -1.8895  0.6346  1.6444
 1509SOL     OW 6680   7.038   7.197   1.722  0.4377  0.0039  0.3727
 1509SOL    HW1 6681   6.997   7.243   1.796 -2.9709  0.2901 -1.5037
 1509SOL    HW2 6682   7.082   7.266   1.673  1.5312  0.0255  1.3311
 1510SOL     OW 6683   1.264   0.535   2.841 -0.0288  0.1686 -0.1925
 1510SOL    HW1 6684   1.262   0.449   2.882  0.0552  0.7585  1.1179
 1510SOL    HW2 6685   1.204   0.588   2.893  1.3310  1.3931  0.2222
 1511SOL     OW 6686   5.720   8.533   6.987 -0.5620  0.0065  0.3409
 1511SOL    HW1 6687   5.724   8.628   6.988 -0.1376  0.0134  2.0704
 1511SOL    HW2 6688   5.631   8.513   6.958 -0.1065  0.8486 -1.8010
 1512SOL     OW 6689   6.230   8.349   4.644  0.1454  0.1009  0.0847
 1512SOL    HW1 6690   6.145   8.377   4.678 -0.5722 -2.3750  0.5545
 1512SOL    HW2 6691   6.251   8.412   4.575 -1.5859  1.3403  0.6334
 1513SOL     OW 6692   8.511   2.359   7.423  0.2851  0.7248 -0.6820
 1513SOL    HW1 6693   8.530   2.272   7.388  2.1169  1.0752 -0.6322
 1513SOL    HW2 6694   8.554   2.361   7.508 -3.1097  0.3157  1.2477
 1514SOL     OW 6695   0.038   8.219   5.934 -0.6098 -0.2544 -0.0808
 1514SOL    HW1 6696   0.102   8.188   5.998  1.0474  1.7760 -0.6498
 1514SOL    HW2 6697   0.033   8.150   5.868 -0.0621 -1.0266  0.6609
 1515SOL     OW 6698   7.710   3.358   3.378  0.3050  0.0596 -0.3866
 1515SOL    HW1 6699   7.669   3.279   3.412  0.1134 -0.3666 -1.5493
 1515SOL    HW2 6700   7.707   3.420   3.450 -1.3113 -0.3545 -0.0576
 1516SOL     OW 6701   3.864   7.796   5.812  0.1627  0.1770  0.3477
 1516SOL    HW1 6702   3.851   7.772   5.720  0.7963 -0.5305  0.4326
 1516SOL    HW2 6703   3.879   7.713   5.857  1.8176  0.6602  0.7560
 1517SOL     OW 6704   0.528   6.749   2.596  0.1576 -0.0679 -0.8157
 1517SOL    HW1 6705   0.616   6.771   2.566  0.7994 -1.0940  0.2045
 1517SOL    HW2 6706   0.488   6.834   2.616  0.9686  0.4115 -1.1607
 1518SOL     OW 6707   8.483   3.081   7.905  0.0128  0.0504 -0.3600
 1518SOL    HW1 6708   8.560   3.071   7.960 -0.4824 -0.5569  0.2406
 1518SOL    HW2 6709   8.446   2.993   7.898 -0.8785  0.4022 -0.2533
 1519SOL     OW 6710   4.903   5.741   4.823 -0.3188  0.1576 -0.2347
 1519SOL    HW1 6711   4.944   5.755   4.908 -0.4640 -0.5738 -0.0385
 1519SOL    HW2 6712   4.905   5.827   4.781  1.5620  0.1241 -0.2877
 1520SOL     OW 6713   1.051   0.593   9.151  0.0073 -0.2086 -0.3255
 1520SOL    HW1 6714   1.088   0.680   9.135  1.5135 -1.2166 -3.0821
 1520SOL    HW2 6715   1.098   0.562   9.229  2.6626 -0.1156 -1.7515
 1521SOL     OW 6716   1.726   4.131   3.365  0.7814  0.2187 -0.0824
 1521SOL    HW1 6717   1.692   4.190   3.433  1.6905 -0.1503  0.7037
 1521SOL    HW2 6718   1.814   4.109   3.394 -0.0607 -2.8185  0.5043
 1522SOL     OW 6719   3.434   9.500   0.027 -0.3622 -0.3123  0.3862
 1522SOL    HW1 6720   3.361   9.447   0.058  0.9935 -1.6560  1.4308
 1522SOL    HW2 6721   3.503   9.437   0.005  0.5992  0.9119 -0.2951
 1523SOL     OW 6722   5.085   5.992   3.880  0.5801  0.6432 -0.3279
 1523SOL    HW1 6723   5.005   5.976   3.929  0.2205  2.2608 -0.3485
 1523SOL    HW2 6724   5.149   6.018   3.947  1.3563 -1.3440 -0.2059
 1524SOL     OW 6725   6.968   2.625   6.214 -0.0260 -0.4768  0.0237
 1524SOL    HW1 6726   6.986   2.531   6.216  0.4802 -0.3861  1.9425
 1524SOL    HW2 6727   7.046   2.663   6.174  0.5522 -0.7519  0.8595
 1525SOL     OW 6728   6.871   2.453   5.759  0.0229  0.1251 -0.4372
 1525SOL    HW1 6729   6.842   2.378   5.811 -0.0798  1.2433  1.1794
 1525SOL    HW2 6730   6.966   2.451   5.765  0.0411 -0.1135 -0.7632
 1526SOL     OW 6731   9.177   6.575   1.940 -0.1091 -0.6355 -0.2578
 1526SOL    HW1 6732   9.248   6.515   1.918  1.5311  0.3393  1.9764
 1526SOL    HW2 6733   9.159   6.622   1.858 -0.1395 -2.7971 -1.5475
 1527SOL     OW 6734   4.612   3.740   6.561  0.5253  0.2110 -0.2420
 1527SOL    HW1 6735   4.705   3.760   6.569  1.0635 -1.6543 -1.1155
 1527SOL    HW2 6736   4.600   3.662   6.615  0.0869 -1.1174 -2.1475
 1528SOL     OW 6737   4.093   1.914   9.429  0.6867 -0.4872 -0.1935
 1528SOL    HW1 6738   4.117   1.884   9.517  0.8784 -0.4454 -0.2310
 1528SOL    HW2 6739   4.168   1.889   9.375  0.7571 -0.1208 -0.2641
 1529SOL     OW 6740   5.931   4.546   0.574 -0.5538  0.1190  0.5977
 1529SOL    HW1 6741   5.873   4.620   0.554  0.2628  0.4598 -0.5989
 1529SOL    HW2 6742   5.908   4.522   0.664 -1.3560  1.3472  0.7531
 1530SOL     OW 6743   2.183   5.151   9.427 -0.0765 -0.4912 -0.3652
 1530SOL    HW1 6744   2.093   5.182   9.428 -1.5402 -4.0068  3.4546
 1530SOL    HW2 6745   2.195   5.115   9.339 -3.6279 -2.6742 -0.1328
 1531SOL     OW 6746   2.232   7.901   9.411  0.7676  0.3545 -0.3816
 1531SOL    HW1 6747   2.302   7.962   9.386  1.0108  0.3479  0.2714
 1531SOL    HW2 6748   2.173   7.901   9.336  1.9892 -0.4224 -1.3841
 1532SOL     OW 6749   0.007   2.653   1.673 -0.2098 -0.1831  0.4178
 1532SOL    HW1 6750   0.045   2.735   1.706 -1.9075  0.3320  1.2124
 1532SOL    HW2 6751   0.083   2.598   1.653  1.0206  1.8802 -0.9909
 1533SOL     OW 6752   2.014   4.165   1.913 -0.1094 -0.0318 -0.3156
 1533SOL    HW1 6753   2.042   4.084   1.956  0.3894  0.3825  0.1635
 1533SOL    HW2 6754   2.096   4.208   1.887 -0.3830  0.0561 -1.0747
 1534SOL     OW 6755   4.530   7.606   6.938 -0.2911 -0.1385  0.2243
 1534SOL    HW1 6756   4.465   7.669   6.908  0.0110 -0.3997 -1.0357
 1534SOL    HW2 6757   4.593   7.600   6.866  1.3169  0.3528  1.5327
 1535SOL     OW 6758   1.242   4.872   6.651  0.0552 -0.0125 -0.3096
 1535SOL    HW1 6759   1.167   4.918   6.612 -0.0615  0.0472 -0.0163
 1535SOL    HW2 6760   1.271   4.930   6.722  1.3142  0.6960 -1.3566
 1536SOL     OW 6761   1.047   3.098   3.694  0.5314 -0.1270  0.2222
 1536SOL    HW1 6762   1.111   3.032   3.669  0.0243 -0.8829  0.8728
 1536SOL    HW2 6763   0.964   3.050   3.704  0.0640  0.6684  0.3159
 1537SOL     OW 6764   2.207   8.122   2.610 -0.5361 -0.2632 -0.7142
 1537SOL    HW1 6765   2.263   8.167   2.673 -0.0764 -1.5504 -0.1646
 1537SOL    HW2 6766   2.191   8.036   2.650 -0.7070 -0.8955 -2.0948
 1538SOL     OW 6767   5.881   7.796   1.280 -0.3325  0.1512  0.3254
 1538SOL    HW1 6768   5.862   7.808   1.373 -1.8238 -0.9999  0.2014
 1538SOL    HW2 6769   5.865   7.882   1.242  1.3715  0.9483  1.2371
 1539SOL     OW 6770   4.435   6.948   1.825 -0.6166  0.0180 -0.0712
 1539SOL    HW1 6771   4.421   6.859   1.793  0.4773 -0.3544  0.4278
 1539SOL    HW2 6772   4.416   6.944   1.919 -0.1187  0.1880  0.0430
 1540SOL     OW 6773   4.613   0.444   0.646 -0.1315 -0.1232  0.0007
 1540SOL    HW1 6774   4.705   0.472   0.652  0.2642 -1.5869  1.1609
 1540SOL    HW2 6775   4.594   0.447   0.553  1.3807 -0.6596 -0.3559
 1541SOL     OW 6776   1.406   4.995   4.346 -0.3944  0.3929 -0.0067
 1541SOL    HW1 6777   1.405   5.046   4.427  0.2790 -1.1808  1.0204
 1541SOL    HW2 6778   1.314   4.991   4.319 -0.5410  1.5221  0.2630
 1542SOL     OW 6779   8.634   2.409   4.571 -0.0371 -0.3631 -0.2662
 1542SOL    HW1 6780   8.682   2.481   4.611 -1.6646  0.4151  0.3906
 1542SOL    HW2 6781   8.608   2.441   4.485  1.2149 -1.0593 -0.9266
 1543SOL     OW 6782   8.402   0.644   5.657 -0.2806 -0.4930 -0.2674
 1543SOL    HW1 6783   8.468   0.714   5.663 -0.5210 -0.3017  0.2049
 1543SOL    HW2 6784   8.399   0.623   5.564  0.2434 -0.3067 -0.3350
 1544SOL     OW 6785   3.024   7.633   3.429  0.0763  0.3485  0.1114
 1544SOL    HW1 6786   2.932   7.654   3.416  0.3000  1.5972  0.3897
 1544SOL    HW2 6787   3.035   7.630   3.525  0.2511 -0.1795  0.0799
 1545SOL     OW 6788   1.267   5.059   6.863 -0.2444  0.4333  0.4017
 1545SOL    HW1 6789   1.209   5.024   6.931 -0.8386 -1.0363 -0.8076
 1545SOL    HW2 6790   1.270   5.153   6.880 -2.3246  0.4316  1.0054
 1546SOL     OW 6791   5.581   8.037   0.898  0.0402  0.5972 -0.2824
 1546SOL    HW1 6792   5.526   8.079   0.964 -2.4146 -2.1021 -0.4283
 1546SOL    HW2 6793   5.519   8.002   0.834  2.0357 -1.0021 -1.4586
 1547SOL     OW 6794   5.479   9.575   5.025 -0.4304 -0.0735 -0.5151
 1547SOL    HW1 6795   5.536   9.612   5.093 -0.4739  0.2886 -0.6708
 1547SOL    HW2 6796   5.489   9.481   5.033 -0.7172 -0.0509  0.2443
 1548SOL     OW 6797   5.552   7.244   4.173 -0.8449 -0.7141  0.2423
 1548SOL    HW1 6798   5.476   7.200   4.211 -1.5728  0.1288 -0.2084
 1548SOL    HW2 6799   5.519   7.328   4.144  0.1854 -0.4871 -0.3182
 1549SOL     OW 6800   6.281   9.543   0.339 -0.3086 -0.5097 -0.0137
 1549SOL    HW1 6801   6.315   9.577   0.256  0.1846 -0.8811  0.0349
 1549SOL    HW2 6802   6.260   9.622   0.389 -0.5437 -0.2801 -0.4599
 1550SOL     OW 6803   5.163   0.123   2.154 -0.0913 -0.2126  0.3825
 1550SOL    HW1 6804   5.141   0.071   2.076 -2.3439 -0.1959  0.9357
 1550SOL    HW2 6805   5.227   0.187   2.123 -0.2884 -0.7554 -1.2540
 1551SOL     OW 6806   3.678   2.192   3.537  0.1528 -0.4571 -0.2849
 1551SOL    HW1 6807   3.669   2.097   3.546 -1.2456 -0.4595 -1.3338
 1551SOL    HW2 6808   3.650   2.226   3.623 -1.7815 -0.9284 -0.6675
 1552SOL     OW 6809   3.982   3.539   6.595  0.2207  0.5443 -0.4057
 1552SOL    HW1 6810   4.031   3.586   6.528 -0.5672 -0.4615 -1.7340
 1552SOL    HW2 6811   4.005   3.447   6.581 -0.0730  0.3018  0.6192
 1553SOL     OW 6812   2.614   8.774   9.441  0.1520 -0.3298 -0.0705
 1553SOL    HW1 6813   2.557   8.828   9.386 -0.8535 -0.7965  0.4790
 1553SOL    HW2 6814   2.554   8.729   9.500  1.2001  0.2143  1.4723
 1554SOL     OW 6815   0.226   7.818   1.899 -0.6741  0.6019  0.3824
 1554SOL    HW1 6816   0.134   7.845   1.905 -1.1120 -0.9315  1.2485
 1554SOL    HW2 6817   0.269   7.864   1.970 -0.4129  2.5040 -0.9426
 1555SOL     OW 6818   0.500   4.888   0.035 -0.6589  0.2025 -0.1796
 1555SOL    HW1 6819   0.431   4.828   0.066  0.4863 -1.3089 -0.4582
 1555SOL    HW2 6820   0.505   4.955   0.103  0.9043 -2.3161  2.3837
 1556SOL     OW 6821   0.739   3.055   3.507 -0.3660 -0.3240  0.1352
 1556SOL    HW1 6822   0.728   2.997   3.432  0.1005 -0.5858  0.2672
 1556SOL    HW2 6823   0.702   3.007   3.581  0.2546 -0.5647  0.2929
 1557SOL     OW 6824   0.478   7.060   2.557 -0.3836 -0.4761 -0.3706
 1557SOL    HW1 6825   0.417   7.050   2.484 -0.3709 -1.9384 -0.2070
 1557SOL    HW2 6826   0.427   7.036   2.634 -0.1590  0.2637  0.0194
 1558SOL     OW 6827   4.454   5.193   1.390  0.1122 -0.5199 -0.8040
 1558SOL    HW1 6828   4.428   5.254   1.320  0.0691  0.0345 -0.3087
 1558SOL    HW2 6829   4.397   5.118   1.378  0.6760 -0.8066 -1.8986
 1559SOL     OW 6830   0.394   4.654   2.849 -0.3287 -0.3875  0.5015
 1559SOL    HW1 6831   0.421   4.621   2.763  2.8973  0.6700  1.0095
 1559SOL    HW2 6832   0.325   4.593   2.877 -0.6921 -1.4174 -2.2997
 1560SOL     OW 6833   1.042   0.686   7.229 -0.1190 -0.2436  0.1096
 1560SOL    HW1 6834   1.016   0.777   7.215 -1.3914 -0.5056  0.5755
 1560SOL    HW2 6835   1.132   0.691   7.263  0.4932  0.7251 -1.5654
 1561SOL     OW 6836   6.328   3.206   7.330  0.0981  0.4861 -0.4833
 1561SOL    HW1 6837   6.306   3.299   7.323  0.4304  0.5866 -0.2065
 1561SOL    HW2 6838   6.405   3.203   7.387  0.3742  0.0780 -0.8663
 1562SOL     OW 6839   9.154   7.584   6.117  0.1265 -0.4981  0.1070
 1562SOL    HW1 6840   9.062   7.555   6.113 -0.1993  0.1024  2.0766
 1562SOL    HW2 6841   9.188   7.542   6.196  0.8924  1.0167  0.6141
 1563SOL     OW 6842   4.349   8.422   8.129  0.0786  0.8962  0.1733
 1563SOL    HW1 6843   4.390   8.348   8.173  1.1109  1.4081  0.0854
 1563SOL    HW2 6844   4.315   8.476   8.201 -0.3215  0.5488  0.2502
 1564SOL     OW 6845   7.574   7.028   6.292  0.7525  0.2474  0.3341
 1564SOL    HW1 6846   7.625   7.028   6.373  0.5799  0.3849  0.4438
 1564SOL    HW2 6847   7.568   6.936   6.267  2.2118  0.3294 -0.4075
 1565SOL     OW 6848   4.934   1.748   4.207  0.2281 -0.2362  0.5670
 1565SOL    HW1 6849   4.958   1.733   4.299 -1.0971  0.8895  1.1400
 1565SOL    HW2 6850   4.973   1.674   4.160  0.6977 -1.0022  2.0772
 1566SOL     OW 6851   3.501   3.250   1.057 -0.6246 -0.7759  0.0853
 1566SOL    HW1 6852   3.493   3.271   0.964 -0.3912  0.7806  0.3883
 1566SOL    HW2 6853   3.594   3.229   1.069 -0.5181 -0.3212  0.0809
 1567SOL     OW 6854   6.514   2.170   9.561 -0.1233  0.1909  0.1029
 1567SOL    HW1 6855   6.435   2.148   9.511  0.1330  1.2703 -0.8253
 1567SOL    HW2 6856   6.561   2.232   9.505  2.1374 -1.5524 -0.0283
 1568SOL     OW 6857   5.772   2.201   0.499  0.1988  0.3397  0.4421
 1568SOL    HW1 6858   5.775   2.146   0.421 -0.2625 -0.2656  0.8424
 1568SOL    HW2 6859   5.822   2.279   0.475  3.3132 -1.3883  0.7572
 1569SOL     OW 6860   4.798   9.152   8.243  0.2948 -0.2563 -0.3770
 1569SOL    HW1 6861   4.847   9.222   8.199  0.1915 -0.9177 -1.5980
 1569SOL    HW2 6862   4.744   9.197   8.307  1.7922  0.5778  0.3349
 1570SOL     OW 6863   2.388   6.848   9.212  0.2042  0.1311 -0.2808
 1570SOL    HW1 6864   2.434   6.831   9.295 -2.8291  1.3913  1.8615
 1570SOL    HW2 6865   2.422   6.932   9.183 -0.7592  1.1585  1.3856
 1571SOL     OW 6866   7.434   4.941   2.816 -0.5254 -0.4584 -0.3497
 1571SOL    HW1 6867   7.366   4.969   2.754  0.5118 -1.8667 -2.2049
 1571SOL    HW2 6868   7.505   5.003   2.803 -0.9568  0.2920  0.7331
 1572SOL     OW 6869   5.860   9.623   6.887  0.3835 -0.1477 -0.1108
 1572SOL    HW1 6870   5.929   9.666   6.835  1.7670 -0.7875  1.1236
 1572SOL    HW2 6871   5.875   9.530   6.874 -1.4969 -0.3181 -1.3572
 1573SOL     OW 6872   1.452   4.781   6.108  0.3148  0.2801  0.0796
 1573SOL    HW1 6873   1.416   4.696   6.132 -1.4770  1.1233  0.5292
 1573SOL    HW2 6874   1.547   4.770   6.118  0.3227 -2.2022 -1.7000
 1574SOL     OW 6875   2.867   7.942   5.515  0.0856 -0.2545  0.4453
 1574SOL    HW1 6876   2.869   8.036   5.501  1.0164 -0.2710  0.4156
 1574SOL    HW2 6877   2.852   7.932   5.609 -0.7217 -0.0934  0.3415
 1575SOL     OW 6878   2.586   5.505   1.022 -0.4598  0.1800 -0.3897
 1575SOL    HW1 6879   2.625   5.431   0.975 -0.1310  0.6591 -0.8963
 1575SOL    HW2 6880   2.554   5.468   1.104 -0.9587 -0.6688 -0.9495
 1576SOL     OW 6881   7.764   0.132   6.241 -0.3302 -0.1269  1.1993
 1576SOL    HW1 6882   7.843   0.078   6.233 -2.0694 -2.6305 -1.3196
 1576SOL    HW2 6883   7.783   0.210   6.189 -0.5538 -2.3642 -2.6715
 1577SOL     OW 6884   6.091   1.921   2.323 -0.3088  0.6846 -0.0679
 1577SOL    HW1 6885   6.000   1.891   2.328 -0.4578  1.2709  1.0290
 1577SOL    HW2 6886   6.139   1.846   2.289 -1.3820  0.7530 -1.8934
 1578SOL     OW 6887   3.863   7.681   0.308 -0.2288 -0.3153 -0.4210
 1578SOL    HW1 6888   3.796   7.735   0.351  2.0669  1.0174  1.7508
 1578SOL    HW2 6889   3.928   7.744   0.277  0.9281 -1.6341 -0.7744
 1579SOL     OW 6890   0.204   2.699   6.857  0.0396 -0.4241  0.3888
 1579SOL    HW1 6891   0.112   2.724   6.865  0.2895  0.5650  0.2423
 1579SOL    HW2 6892   0.231   2.676   6.946  0.2140  1.3242  0.8245
 1580SOL     OW 6893   0.665   8.617   0.480 -0.3502  0.3704 -0.0844
 1580SOL    HW1 6894   0.593   8.666   0.442 -1.2224 -1.7704 -1.3612
 1580SOL    HW2 6895   0.701   8.566   0.408  2.9628  1.8109  0.3279
 1581SOL     OW 6896   8.639   8.303   5.959 -0.0495  0.2509 -0.3304
 1581SOL    HW1 6897   8.645   8.212   5.930  0.3244 -0.1006  0.8285
 1581SOL    HW2 6898   8.710   8.313   6.022  1.3648  1.9762 -2.0473
 1582SOL     OW 6899   1.202   2.382   9.440  0.0576 -0.1375  0.3774
 1582SOL    HW1 6900   1.149   2.307   9.412  1.0190  0.1222 -2.4750
 1582SOL    HW2 6901   1.227   2.425   9.358  1.1747  2.1818  1.8460
 1583SOL     OW 6902   1.824   4.432   1.046 -0.3027 -0.2351 -0.1190
 1583SOL    HW1 6903   1.888   4.497   1.015  1.1650 -1.4005  0.3037
 1583SOL    HW2 6904   1.855   4.350   1.009 -0.4828 -1.1257  1.6155
 1584SOL     OW 6905   9.175   4.121   1.491 -0.1334 -0.0634 -0.5827
 1584SOL    HW1 6906   9.111   4.127   1.420  0.3128  2.9555 -0.8995
 1584SOL    HW2 6907   9.260   4.129   1.447  0.2031  0.4541  0.1362
 1585SOL     OW 6908   5.557   1.032   3.251 -0.3091 -0.1586  0.4998
 1585SOL    HW1 6909   5.625   0.973   3.218 -0.7916 -0.5123  0.1438
 1585SOL    HW2 6910   5.572   1.114   3.202  0.7332  0.2314  1.4165
 1586SOL     OW 6911   1.790   0.744   3.953 -0.3245 -0.0485  0.4643
 1586SOL    HW1 6912   1.842   0.823   3.940  1.5255 -1.1466  0.8544
 1586SOL    HW2 6913   1.799   0.695   3.871 -1.7550  0.2734  0.0897
 1587SOL     OW 6914   4.025   2.397   5.765  0.0019  0.3753 -0.2748
 1587SOL    HW1 6915   3.932   2.402   5.743  0.0458  0.8249 -0.3569
 1587SOL    HW2 6916   4.065   2.350   5.692 -0.2604 -0.4109  0.0710
 1588SOL     OW 6917   3.701   4.090   3.417 -0.0614 -0.8407 -0.3380
 1588SOL    HW1 6918   3.742   4.078   3.331 -0.7684  1.1508 -1.0037
 1588SOL    HW2 6919   3.608   4.103   3.398 -0.2198 -0.3218  0.7304
 1589SOL     OW 6920   1.751   7.297   8.020 -0.4231  0.1866 -0.8121
 1589SOL    HW1 6921   1.819   7.310   8.086 -1.1276  0.1436 -0.0665
 1589SOL    HW2 6922   1.694   7.230   8.057 -0.1100 -0.8106 -2.0519
 1590SOL     OW 6923   0.172   5.813   2.703  0.2094  0.7938 -0.3753
 1590SOL    HW1 6924   0.256   5.857   2.693  0.7066 -0.1640 -0.5901
 1590SOL    HW2 6925   0.132   5.853   2.780  2.5034 -1.1855  2.0565
 1591SOL     OW 6926   9.527   0.004   1.052  0.0482  0.1644  0.4218
 1591SOL    HW1 6927   9.589   0.010   0.980 -0.4271 -1.8055 -0.2167
 1591SOL    HW2 6928   9.577  -0.030   1.125 -0.1144 -0.8074  0.0939
 1592SOL     OW 6929   5.469   5.533   0.775 -0.1596 -0.1272  0.3276
 1592SOL    HW1 6930   5.513   5.609   0.738  2.3314 -2.3560 -1.7088
 1592SOL    HW2 6931   5.386   5.527   0.726 -0.5007  1.3170  0.6726
 1593SOL     OW 6932   8.060   5.873   2.995  0.2593  0.4836  0.3467
 1593SOL    HW1 6933   8.140   5.925   2.986 -0.7382  1.9492 -0.3082
 1593SOL    HW2 6934   8.080   5.790   2.952  2.6010 -0.6072  3.2050
 1594SOL     OW 6935   3.078   7.345   4.065  0.1319 -0.0436  0.0913
 1594SOL    HW1 6936   3.163   7.324   4.103  1.9278  0.3167 -3.3464
 1594SOL    HW2 6937   3.033   7.261   4.059  0.6611 -0.4088  0.9545
 1595SOL     OW 6938   3.579   8.825   8.624 -0.3984 -0.0120  0.3118
 1595SOL    HW1 6939   3.577   8.755   8.558  2.5917 -0.3419  0.4608
 1595SOL    HW2 6940   3.566   8.905   8.574 -1.0274 -0.4591 -0.2601
 1596SOL     OW 6941   4.004   0.544   6.954  0.9351 -0.2202  0.6913
 1596SOL    HW1 6942   3.910   0.530   6.962  1.1067 -2.3951 -0.4842
 1596SOL    HW2 6943   4.012   0.623   6.899 -0.2268 -0.6790 -0.1711
 1597SOL     OW 6944   3.565   1.824   9.381  0.1223  0.4620 -1.3309
 1597SOL    HW1 6945   3.660   1.832   9.382  0.1412  0.7283  1.5999
 1597SOL    HW2 6946   3.533   1.914   9.380 -0.0060  0.4897  1.0410
 1598SOL     OW 6947   7.101   8.232   1.523 -0.3886  0.1013 -0.4751
 1598SOL    HW1 6948   7.035   8.252   1.589 -1.1191  2.0943 -1.7349
 1598SOL    HW2 6949   7.054   8.232   1.440  0.5521 -2.0929 -1.0991
 1599SOL     OW 6950   5.623   5.217   4.678  0.2257 -0.3817 -0.5542
 1599SOL    HW1 6951   5.543   5.263   4.703  0.8957 -1.1054  3.4982
 1599SOL    HW2 6952   5.694   5.277   4.702  0.9663 -1.6144  0.4794
 1600SOL     OW 6953   6.996   8.912   3.369 -0.4647  0.0899 -0.2430
 1600SOL    HW1 6954   7.091   8.908   3.369 -0.4785 -0.3281 -0.0807
 1600SOL    HW2 6955   6.972   8.919   3.462 -0.5756  0.6970 -0.3141
 1601SOL     OW 6956   4.605   1.849   0.919  0.2105 -0.1333 -0.3160
 1601SOL    HW1 6957   4.581   1.760   0.941  1.4757 -0.8558 -1.6704
 1601SOL    HW2 6958   4.550   1.871   0.844 -0.1927  0.2863  0.0958
 1602SOL     OW 6959   1.573   8.203   4.791  0.2608 -0.0020  0.6162
 1602SOL    HW1 6960   1.579   8.298   4.794  0.8189  0.0019 -0.3345
 1602SOL    HW2 6961   1.557   8.177   4.882  0.3991  0.9807  0.9274
 1603SOL     OW 6962   6.520   7.212   5.825  0.0565  0.6406  0.2608
 1603SOL    HW1 6963   6.564   7.169   5.752 -0.7405  0.3267 -0.0538
 1603SOL    HW2 6964   6.512   7.303   5.798 -1.1427  0.3383 -0.5294
 1604SOL     OW 6965   5.921   8.290   5.979  0.7027  0.5382 -0.6475
 1604SOL    HW1 6966   6.012   8.292   6.011  0.4337  1.0585  0.1242
 1604SOL    HW2 6967   5.879   8.222   6.031  0.8584 -0.3057 -1.6154
 1605SOL     OW 6968   4.565   0.531   9.137  0.1632  0.5976  0.3909
 1605SOL    HW1 6969   4.624   0.460   9.161 -0.0700  0.9049  2.0392
 1605SOL    HW2 6970   4.534   0.509   9.050  1.8619 -0.1189 -0.0709
 1606SOL     OW 6971   5.012   5.317   2.064  0.3512  0.3403 -0.2860
 1606SOL    HW1 6972   5.002   5.266   1.984 -0.3875  0.5305 -0.3189
 1606SOL    HW2 6973   5.098   5.358   2.055  0.3058  0.3063 -0.9491
 1607SOL     OW 6974   0.166   2.663   3.317 -0.8162  0.1200  0.9068
 1607SOL    HW1 6975   0.146   2.569   3.316 -2.7911  0.4942  0.7179
 1607SOL    HW2 6976   0.240   2.671   3.377 -0.4608 -1.5733  0.7617
 1608SOL     OW 6977   2.925   1.039   6.120 -0.4717 -0.5235  0.3880
 1608SOL    HW1 6978   2.948   1.109   6.058  0.4536 -0.4479  0.7896
 1608SOL    HW2 6979   2.920   0.960   6.066  0.9097 -0.5646  0.2734
 1609SOL     OW 6980   0.511   6.546   6.868 -0.3763  0.1322 -0.5254
 1609SOL    HW1 6981   0.601   6.551   6.836  0.6438  0.9582  2.2049
 1609SOL    HW2 6982   0.496   6.452   6.882  1.0677  0.1250  1.4124
 1610SOL     OW 6983   2.834   6.197   3.503 -0.2709 -0.8631  0.3091
 1610SOL    HW1 6984   2.818   6.245   3.584 -0.5189 -1.9557  0.9302
 1610SOL    HW2 6985   2.906   6.244   3.461 -0.1232 -0.2931  1.1732
 1611SOL     OW 6986   2.078   6.073   3.331 -0.3539  0.1275 -0.2167
 1611SOL    HW1 6987   2.127   5.993   3.314 -1.9634 -0.8351 -0.4929
 1611SOL    HW2 6988   2.003   6.045   3.384 -0.7201  1.5161  0.0468
 1612SOL     OW 6989   5.770   1.423   1.350 -0.6426 -0.2345  0.1945
 1612SOL    HW1 6990   5.794   1.442   1.259 -0.5743  2.0111  0.6232
 1612SOL    HW2 6991   5.854   1.424   1.397 -0.6921 -1.2745  0.3277
 1613SOL     OW 6992   7.956   6.370   6.500  0.8987 -0.2409 -0.0070
 1613SOL    HW1 6993   7.952   6.398   6.409 -2.0435  0.3251  0.1879
 1613SOL    HW2 6994   7.978   6.450   6.549  1.9119 -0.4206 -0.1516
 1614SOL     OW 6995   3.720   2.426   7.664 -0.3515  0.1324  0.0811
 1614SOL    HW1 6996   3.683   2.508   7.631 -0.7970  0.7714  2.0422
 1614SOL    HW2 6997   3.669   2.407   7.743  0.2169 -1.6731  0.0592
 1615SOL     OW 6998   6.388   5.190   6.319  0.1526 -0.4791 -0.8544
 1615SOL    HW1 6999   6.436   5.252   6.374  1.0650 -0.7714 -1.3044
 1615SOL    HW2 7000   6.333   5.245   6.263  1.1272 -0.0516 -1.4170
 1616SOL     OW 7001   3.168   7.334   5.510  0.2139 -0.0670 -0.4368
 1616SOL    HW1 7002   3.084   7.289   5.516 -0.0435  0.4917  0.3391
 1616SOL    HW2 7003   3.233   7.265   5.522 -0.0736 -0.6995 -2.1910
 1617SOL     OW 7004   8.425   9.079   0.143 -0.1477  0.0593  0.2974
 1617SOL    HW1 7005   8.482   9.155   0.135  1.6547 -1.3289 -0.5917
 1617SOL    HW2 7006   8.410   9.051   0.053  0.4181 -1.4772  0.6547
 1618SOL     OW 7007   2.517   0.653   7.684  0.3579 -0.1068 -0.0897
 1618SOL    HW1 7008   2.497   0.700   7.765 -0.1965  0.7772 -0.7198
 1618SOL    HW2 7009   2.598   0.693   7.652 -0.1183  0.4410 -0.6314
 1619SOL     OW 7010   1.213   0.529   2.578 -0.0421  0.1217 -0.3518
 1619SOL    HW1 7011   1.238   0.521   2.671  1.7049  2.7931 -0.4627
 1619SOL    HW2 7012   1.294   0.512   2.530 -0.2621  1.3619 -1.2096
 1620SOL     OW 7013   8.901   2.538   6.822  0.2196  0.5731  0.1764
 1620SOL    HW1 7014   8.969   2.590   6.779  0.9092  0.3491  0.9678
 1620SOL    HW2 7015   8.913   2.556   6.915 -0.1570 -0.2455  0.3902
 1621SOL     OW 7016   8.438   1.882   6.147  0.2400  0.2766  0.0259
 1621SOL    HW1 7017   8.530   1.895   6.125  1.0103 -0.2528  2.6234
 1621SOL    HW2 7018   8.429   1.917   6.235 -1.3680 -2.2468  0.9624
 1622SOL     OW 7019   1.308   4.159   5.954 -0.1800 -0.1106  0.6492
 1622SOL    HW1 7020   1.309   4.225   5.884  0.2467 -0.4300  0.3490
 1622SOL    HW2 7021   1.322   4.209   6.034 -2.8260  0.5672  0.7969
 1623SOL     OW 7022   7.552   7.906   8.607 -0.2601 -0.3280 -0.2255
 1623SOL    HW1 7023   7.490   7.974   8.633 -0.9456 -0.6892 -0.8753
 1623SOL    HW2 7024   7.619   7.952   8.557 -0.8031 -0.1552 -0.7919
 1624SOL     OW 7025   4.014   3.353   9.001 -0.4482 -0.2984  0.3676
 1624SOL    HW1 7026   3.935   3.301   9.017 -1.7671  1.9735  1.7579
 1624SOL    HW2 7027   4.034   3.393   9.085  2.1023 -0.5732 -0.0090
 1625SOL     OW 7028   0.963   0.298   6.604 -0.0472 -0.4199 -0.4322
 1625SOL    HW1 7029   0.883   0.337   6.640 -1.0319 -2.3922 -0.3044
 1625SOL    HW2 7030   0.981   0.223   6.661  1.5754 -0.3659 -0.8143
 1626SOL     OW 7031   2.225   0.461   6.305 -0.3927 -0.1674  1.0874
 1626SOL    HW1 7032   2.301   0.461   6.364 -0.5118  0.7549  1.2614
 1626SOL    HW2 7033   2.212   0.553   6.283 -0.7443 -0.4396  0.1133
 1627SOL     OW 7034   4.415   2.152   4.304  0.2468  0.8065  0.3028
 1627SOL    HW1 7035   4.507   2.179   4.301  0.4680  0.0454 -2.5421
 1627SOL    HW2 7036   4.417   2.066   4.347  0.8164  0.9330  0.5428
 1628SOL     OW 7037   3.418   8.289   0.095  0.1617 -0.4122  0.1794
 1628SOL    HW1 7038   3.427   8.254   0.184 -0.6245  0.5030  0.6390
 1628SOL    HW2 7039   3.476   8.234   0.042  3.5768  1.2689  1.8241
 1629SOL     OW 7040   0.443   4.959   3.001 -0.0259  0.4874 -0.6289
 1629SOL    HW1 7041   0.348   4.946   3.010  0.1367 -0.6611 -0.3184
 1629SOL    HW2 7042   0.458   5.049   3.028 -0.9228  0.3949  0.2514
 1630SOL     OW 7043   0.560   8.524   1.542 -0.5510 -0.0478  0.0477
 1630SOL    HW1 7044   0.597   8.600   1.497  0.7769 -1.1650 -0.8427
 1630SOL    HW2 7045   0.628   8.498   1.604 -0.1299 -1.6585 -1.0402
 1631SOL     OW 7046   3.112   3.298   0.876  0.3908  0.0653 -0.4021
 1631SOL    HW1 7047   3.141   3.209   0.892 -0.9682 -0.3835 -0.3036
 1631SOL    HW2 7048   3.017   3.296   0.890  0.1265  1.2065 -1.7458
 1632SOL     OW 7049   2.017   9.128   2.313 -0.1787  0.2132  0.6307
 1632SOL    HW1 7050   2.016   9.154   2.405 -1.3526 -0.6359  0.8867
 1632SOL    HW2 7051   1.953   9.057   2.307  1.8502 -1.6849 -0.2885
 1633SOL     OW 7052   1.670   5.808   7.361  0.0441 -0.0426 -0.1492
 1633SOL    HW1 7053   1.751   5.803   7.309 -0.5486 -2.1196 -0.9544
 1633SOL    HW2 7054   1.619   5.876   7.317  1.8612  2.3931  1.2471
 1634SOL     OW 7055   2.988   0.728   9.409 -0.1771  0.4076 -0.1685
 1634SOL    HW1 7056   2.904   0.709   9.451  0.0609 -0.6531 -0.1311
 1634SOL    HW2 7057   3.020   0.805   9.455 -0.7487  0.3335  0.3861
 1635SOL     OW 7058   0.506   7.219   2.210  0.1839  0.0765  0.3930
 1635SOL    HW1 7059   0.503   7.302   2.164 -2.0054  1.4351  2.6978
 1635SOL    HW2 7060   0.573   7.231   2.278 -0.3747  0.1238  0.9473
 1636SOL     OW 7061   1.122   7.802   7.409 -0.6937  0.0184  0.5151
 1636SOL    HW1 7062   1.075   7.882   7.388 -1.2674 -0.1834  1.0078
 1636SOL    HW2 7063   1.215   7.825   7.400 -0.8934  0.1588 -1.3751
 1637SOL     OW 7064   3.344   1.216   8.110 -0.3827 -0.1978  0.1278
 1637SOL    HW1 7065   3.254   1.186   8.128 -0.3339  0.0441  0.8180
 1637SOL    HW2 7066   3.346   1.234   8.016 -0.4090 -2.4189 -0.3540
 1638SOL     OW 7067   7.936   3.389   3.766 -0.5932  0.4205 -0.6037
 1638SOL    HW1 7068   7.964   3.432   3.847  1.0546  1.5466 -1.7033
 1638SOL    HW2 7069   8.015   3.384   3.713 -1.4074 -1.2342 -1.7681
 1639SOL     OW 7070   2.928   1.534   3.005  0.3707  0.0061 -0.4101
 1639SOL    HW1 7071   3.010   1.510   2.961 -0.3087  0.6746 -2.1460
 1639SOL    HW2 7072   2.931   1.629   3.011 -0.9372  0.1883 -1.9688
 1640SOL     OW 7073   5.349   4.236   8.780  0.2012 -0.3034 -0.0527
 1640SOL    HW1 7074   5.378   4.194   8.861  1.4149  2.7134  1.2379
 1640SOL    HW2 7075   5.424   4.228   8.721 -0.8031 -2.8000 -1.1254
 1641SOL     OW 7076   1.360   9.258   7.405  0.1094 -0.2867  0.0655
 1641SOL    HW1 7077   1.393   9.335   7.359 -2.5313 -0.0999 -1.7562
 1641SOL    HW2 7078   1.265   9.261   7.392 -0.3040 -2.7247  1.7737
 1642SOL     OW 7079   9.416   1.457   0.798 -0.2489  0.2006 -0.3801
 1642SOL    HW1 7080   9.415   1.477   0.892  0.7569  1.1458 -0.5571
 1642SOL    HW2 7081   9.336   1.498   0.764  0.8828  2.5565 -0.4224
 1643SOL     OW 7082   2.973   8.342   0.809 -0.9963 -0.1513  0.2555
 1643SOL    HW1 7083   2.948   8.258   0.848 -0.0163 -0.4061  0.3519
 1643SOL    HW2 7084   2.900   8.401   0.831 -0.7206 -0.4081  2.0352
 1644SOL     OW 7085   9.041   6.025   6.557 -1.0195  0.1780 -0.3508
 1644SOL    HW1 7086   9.024   5.933   6.536 -0.0377  0.0191 -0.4811
 1644SOL    HW2 7087   8.974   6.074   6.509 -1.5812 -0.4617 -0.2398
 1645SOL     OW 7088   0.633   3.959   0.232 -0.1539 -0.2205 -0.3004
 1645SOL    HW1 7089   0.626   3.866   0.210  1.4687 -0.4632  0.1105
 1645SOL    HW2 7090   0.545   3.994   0.216 -0.6122 -1.6712 -1.1277
 1646SOL     OW 7091   4.030   4.223   9.558 -0.4888 -0.3905  0.7455
 1646SOL    HW1 7092   4.065   4.249   9.643  0.2108 -1.9026  0.9441
 1646SOL    HW2 7093   4.018   4.128   9.565 -0.9611 -0.4524 -0.6511
 1647SOL     OW 7094   5.074   7.530   4.029  0.4750 -0.0059  0.6312
 1647SOL    HW1 7095   4.989   7.486   4.037  0.1863  0.8804  3.4340
 1647SOL    HW2 7096   5.124   7.475   3.968 -1.8585 -0.8864 -0.6215
 1648SOL     OW 7097   3.440   5.378   0.431 -0.6203  0.8392  0.3153
 1648SOL    HW1 7098   3.522   5.417   0.402 -0.1997  0.0635  0.4630
 1648SOL    HW2 7099   3.388   5.453   0.461  0.2418  1.2712  0.7597
 1649SOL     OW 7100   3.263   0.785   9.282 -0.1212  0.2754  0.3368
 1649SOL    HW1 7101   3.190   0.815   9.228 -3.1799 -3.5254  1.8336
 1649SOL    HW2 7102   3.288   0.861   9.334 -1.6175  2.2613 -1.6739
 1650SOL     OW 7103   2.480   2.363   0.065 -0.0127  0.2073 -0.3039
 1650SOL    HW1 7104   2.536   2.368   0.143  0.1490 -2.0076 -0.2055
 1650SOL    HW2 7105   2.536   2.391  -0.007  1.3735 -2.0904 -0.2252
 1651SOL     OW 7106   7.263   1.094   1.105 -0.1523  0.7466 -0.5728
 1651SOL    HW1 7107   7.326   1.159   1.136 -0.0493  0.2358  0.2920
 1651SOL    HW2 7108   7.301   1.060   1.024  1.2404 -0.3743  0.5237
 1652SOL     OW 7109   7.221   8.609   0.102  0.2345  0.1664 -0.0490
 1652SOL    HW1 7110   7.252   8.646   0.185 -2.5526  0.6298  0.9263
 1652SOL    HW2 7111   7.203   8.517   0.123  0.1554  0.1223 -0.3129
 1653SOL     OW 7112   9.268   1.782   3.856 -0.3632  0.1858 -0.4157
 1653SOL    HW1 7113   9.289   1.808   3.946 -0.9852  0.2500 -0.2875
 1653SOL    HW2 7114   9.293   1.690   3.851  1.1442  0.5705 -0.6465
 1654SOL     OW 7115   3.702   2.508   2.874 -0.2679  0.3467  0.0443
 1654SOL    HW1 7116   3.797   2.505   2.869 -0.1657  2.5981 -0.2612
 1654SOL    HW2 7117   3.674   2.539   2.788 -1.2621  0.2056  0.2983
 1655SOL     OW 7118   7.066   1.494   0.286 -0.2417 -0.0842 -0.3634
 1655SOL    HW1 7119   7.015   1.473   0.209  0.0825 -0.9950 -0.3387
 1655SOL    HW2 7120   7.042   1.427   0.350  1.7277 -1.1798 -0.7020
 1656SOL     OW 7121   8.204   2.468   0.163 -0.2634  0.6372  0.3467
 1656SOL    HW1 7122   8.279   2.408   0.160 -0.5814  0.1756  1.3384
 1656SOL    HW2 7123   8.154   2.441   0.239 -0.1851  2.4538  1.0996
 1657SOL     OW 7124   9.366   1.481   6.472  0.1544 -0.3407 -0.4663
 1657SOL    HW1 7125   9.289   1.473   6.416  0.8742 -2.0529 -1.2776
 1657SOL    HW2 7126   9.414   1.400   6.458  2.0920  0.6620  0.0600
 1658SOL     OW 7127   1.414   0.885   5.942  0.3032  0.3003 -0.2684
 1658SOL    HW1 7128   1.437   0.953   5.878 -0.4978 -1.0375 -2.0796
 1658SOL    HW2 7129   1.488   0.824   5.940 -0.7827 -1.0591 -1.8822
 1659SOL     OW 7130   0.882   8.469   7.593 -0.1974  0.1766  0.0048
 1659SOL    HW1 7131   0.868   8.485   7.687  1.8344  2.1291  0.0526
 1659SOL    HW2 7132   0.856   8.551   7.551  1.0976  0.1556 -0.8726
 1660SOL     OW 7133   4.917   6.706   7.946 -0.4644  0.0069  0.4111
 1660SOL    HW1 7134   4.904   6.738   8.036 -0.5912  0.9466  0.0652
 1660SOL    HW2 7135   4.908   6.784   7.891 -0.2622 -0.5410 -0.4131
 1661SOL     OW 7136   9.284   7.097   7.791  0.6623  0.1672  0.3415
 1661SOL    HW1 7137   9.191   7.099   7.816  1.1983  0.7757  2.4703
 1661SOL    HW2 7138   9.304   7.187   7.766  0.8448  0.2030  0.6095
 1662SOL     OW 7139   2.636   7.170   5.293 -0.4674  0.0270  0.4441
 1662SOL    HW1 7140   2.548   7.160   5.327 -0.9307  0.1699 -0.6701
 1662SOL    HW2 7141   2.676   7.238   5.347 -1.2550  0.4145  0.5450
 1663SOL     OW 7142   7.218   5.447   3.794  0.2534  0.3508 -0.0885
 1663SOL    HW1 7143   7.204   5.538   3.820  1.4438  1.0974 -1.9181
 1663SOL    HW2 7144   7.269   5.452   3.714 -0.2512 -1.9284 -0.6231
 1664SOL     OW 7145   0.339   6.082   4.525  0.2743 -0.1772 -0.8225
 1664SOL    HW1 7146   0.270   6.135   4.563  0.0009 -0.3457 -1.0772
 1664SOL    HW2 7147   0.370   6.133   4.450  2.6738  1.4496  1.1227
 1665SOL     OW 7148   0.787   4.908   6.628 -0.6583 -0.3393  0.0493
 1665SOL    HW1 7149   0.740   4.951   6.556 -0.1902  2.4851  1.3120
 1665SOL    HW2 7150   0.874   4.891   6.593 -0.6840  0.2333 -0.3010
 1666SOL     OW 7151   7.814   2.588   4.486  0.2973 -0.4866  0.1759
 1666SOL    HW1 7152   7.781   2.543   4.563  1.7112 -0.4595  0.8347
 1666SOL    HW2 7153   7.861   2.520   4.437 -1.5745 -0.7982 -1.3376
 1667SOL     OW 7154   6.459   1.854   5.358  0.1904 -0.2586  0.1514
 1667SOL    HW1 7155   6.486   1.796   5.286 -0.3067 -0.0884 -0.1760
 1667SOL    HW2 7156   6.520   1.927   5.354  0.2334 -0.3030 -0.0269
 1668SOL     OW 7157   2.496   8.487   0.074 -0.0998 -0.0080  0.8275
 1668SOL    HW1 7158   2.409   8.456   0.101 -0.0761 -0.1895  0.6986
 1668SOL    HW2 7159   2.557   8.431   0.121 -0.0622 -0.9429 -0.2998
 1669SOL     OW 7160   4.345   8.188   4.047 -0.0322  0.0397 -0.0148
 1669SOL    HW1 7161   4.398   8.262   4.016  1.0614 -1.7424 -2.8158
 1669SOL    HW2 7162   4.408   8.130   4.090 -0.6004  0.0499  0.8421
 1670SOL     OW 7163   8.513   3.794   4.196  0.1812 -0.1446  0.6258
 1670SOL    HW1 7164   8.571   3.855   4.150 -0.7050 -0.1249 -0.4982
 1670SOL    HW2 7165   8.526   3.710   4.150 -1.4469  0.1017 -0.3470
 1671SOL     OW 7166   3.321   7.512   0.472 -0.0481  0.4292  1.3244
 1671SOL    HW1 7167   3.382   7.582   0.446  1.5178 -1.4040 -0.2940
 1671SOL    HW2 7168   3.298   7.469   0.390 -1.5338 -0.5297  2.2024
 1672SOL     OW 7169   2.208   4.998   8.402  0.3779  0.1761 -0.1190
 1672SOL    HW1 7170   2.220   4.905   8.383 -0.9154 -0.1702  0.6045
 1672SOL    HW2 7171   2.150   4.999   8.478 -0.3388  1.5834 -0.6518
 1673SOL     OW 7172   7.541   8.540   8.407  0.0586 -0.4307  0.1668
 1673SOL    HW1 7173   7.555   8.588   8.326  0.3042 -0.0636  0.4247
 1673SOL    HW2 7174   7.612   8.477   8.410  1.7483  1.4214  1.4686
 1674SOL     OW 7175   0.549   3.813   0.855 -0.2078 -0.2606  0.1453
 1674SOL    HW1 7176   0.573   3.852   0.939  0.2655 -1.6082  0.6605
 1674SOL    HW2 7177   0.583   3.724   0.859 -1.3998 -0.8011 -0.9209
 1675SOL     OW 7178   3.584   6.964   1.163 -0.0013 -0.0122 -0.3231
 1675SOL    HW1 7179   3.528   7.037   1.137 -0.4876  0.3197  1.5551
 1675SOL    HW2 7180   3.524   6.889   1.167  0.3324 -0.3556 -1.4007
 1676SOL     OW 7181   7.317   1.550   2.458  0.1722 -0.0052 -0.0942
 1676SOL    HW1 7182   7.285   1.628   2.503  0.1920  0.1071 -0.2719
 1676SOL    HW2 7183   7.281   1.557   2.369 -1.5520 -1.2541  0.4653
 1677SOL     OW 7184   3.421   9.631   9.278 -0.0601 -0.4824 -0.6875
 1677SOL    HW1 7185   3.369   9.551   9.282  0.7084 -0.9419  1.8726
 1677SOL    HW2 7186   3.399   9.679   9.358  1.1075  0.8118 -1.0872
 1678SOL     OW 7187   0.009   4.270   0.814 -0.6529  0.0901  0.1602
 1678SOL    HW1 7188   0.075   4.291   0.749 -1.1256  0.1627 -0.3010
 1678SOL    HW2 7189  -0.071   4.310   0.781 -1.3440 -1.5256 -0.2053
 1679SOL     OW 7190   5.151   0.109   1.176 -0.3975 -0.0208 -0.2189
 1679SOL    HW1 7191   5.162   0.163   1.098 -1.9898  0.8759  0.1378
 1679SOL    HW2 7192   5.069   0.139   1.215 -2.7521 -4.2612 -1.3033
 1680SOL     OW 7193   3.847   3.589   3.528 -0.3928 -0.0300  0.5258
 1680SOL    HW1 7194   3.928   3.610   3.573  1.0068 -1.1511 -1.3132
 1680SOL    HW2 7195   3.870   3.519   3.467 -2.2851  0.8623 -1.3936
 1681SOL     OW 7196   6.018   2.305   4.256  0.0156  0.2366 -0.6281
 1681SOL    HW1 7197   6.032   2.356   4.335 -0.6030  0.3162 -0.5674
 1681SOL    HW2 7198   6.087   2.334   4.196 -0.2745  1.0762 -0.5645
 1682SOL     OW 7199   3.324   5.607   0.498 -0.1502 -0.2871  0.0497
 1682SOL    HW1 7200   3.323   5.702   0.508 -3.3716 -0.1621 -0.4928
 1682SOL    HW2 7201   3.339   5.592   0.405 -1.2495 -0.2055 -0.1544
 1683SOL     OW 7202   0.954   2.761   9.044 -0.2417 -0.0896 -0.2821
 1683SOL    HW1 7203   0.999   2.684   9.077  1.4867  0.3362 -1.5341
 1683SOL    HW2 7204   0.989   2.833   9.097 -0.4820  0.0667 -0.3365
 1684SOL     OW 7205   0.995   8.925   7.620 -0.0549 -0.1081 -0.2214
 1684SOL    HW1 7206   1.004   8.981   7.697  1.5402  1.1225 -1.2154
 1684SOL    HW2 7207   0.942   8.977   7.559 -1.9272 -1.3645  0.2362
 1685SOL     OW 7208   9.302   6.431   4.671  0.5688  0.1201 -0.2214
 1685SOL    HW1 7209   9.258   6.516   4.679  0.0807 -0.1953  0.4978
 1685SOL    HW2 7210   9.234   6.371   4.642  0.0059 -0.7604  2.6461
 1686SOL     OW 7211   2.136   7.549   5.602  0.6293  0.2187  0.3944
 1686SOL    HW1 7212   2.112   7.616   5.538  0.8562 -0.6649 -0.6250
 1686SOL    HW2 7213   2.228   7.532   5.586  0.5546 -0.3973  0.6106
 1687SOL     OW 7214   7.555   7.382   8.405 -0.2274 -0.2403  0.5822
 1687SOL    HW1 7215   7.617   7.365   8.476  0.1269  1.1300  0.6169
 1687SOL    HW2 7216   7.543   7.477   8.405  2.2035  0.2402 -3.2013
 1688SOL     OW 7217   7.610   6.788   8.289 -0.3529  0.4534 -0.2290
 1688SOL    HW1 7218   7.687   6.793   8.347 -0.6337  1.3627  0.0744
 1688SOL    HW2 7219   7.535   6.802   8.347 -0.7430 -0.2124 -0.5620
 1689SOL     OW 7220   0.232   9.394   1.942 -0.6398 -0.1514  0.2320
 1689SOL    HW1 7221   0.245   9.481   1.904  1.0316 -0.1572  0.7087
 1689SOL    HW2 7222   0.266   9.401   2.031 -1.4504 -1.0219  0.6247
 1690SOL     OW 7223   6.524   3.936   3.909 -0.1729  0.4391  0.1045
 1690SOL    HW1 7224   6.574   3.855   3.898 -0.4260  0.2763  0.1297
 1690SOL    HW2 7225   6.587   4.006   3.891 -0.0592  0.2258 -0.3497
 1691SOL     OW 7226   0.715   9.474   9.553  0.0230 -0.3446 -0.4174
 1691SOL    HW1 7227   0.691   9.394   9.506  1.5553 -1.0579 -0.0373
 1691SOL    HW2 7228   0.709   9.451   9.645 -0.5615  0.3188 -0.2757
 1692SOL     OW 7229   7.093   7.392   4.644 -0.8884 -0.1208  0.3260
 1692SOL    HW1 7230   7.005   7.356   4.639 -0.7773 -1.0833  3.4597
 1692SOL    HW2 7231   7.089   7.457   4.714  1.0899 -1.0430  1.3807
 1693SOL     OW 7232   3.596   2.322   5.986  0.4868  0.7815 -0.0371
 1693SOL    HW1 7233   3.676   2.314   6.039  0.1900 -0.2477  0.2714
 1693SOL    HW2 7234   3.529   2.351   6.048  0.1878 -0.2239  0.1359
 1694SOL     OW 7235   5.552   0.053   1.547 -0.4451 -0.1395  0.4562
 1694SOL    HW1 7236   5.514   0.075   1.462  0.5432 -0.8464 -0.1887
 1694SOL    HW2 7237   5.570  -0.041   1.542 -0.8108 -0.2913  1.6316
 1695SOL     OW 7238   1.873   6.796   8.332  0.7588 -0.2194 -0.5462
 1695SOL    HW1 7239   1.846   6.800   8.423  0.5111  1.7617 -0.6765
 1695SOL    HW2 7240   1.957   6.842   8.329  0.9476 -0.5767 -1.2730
 1696SOL     OW 7241   0.556   7.250   8.561 -0.0521 -0.0752 -0.1630
 1696SOL    HW1 7242   0.496   7.175   8.566 -2.5265  1.7031 -0.8546
 1696SOL    HW2 7243   0.632   7.224   8.612  0.6351 -4.2309 -2.8275
 1697SOL     OW 7244   0.629   2.302   9.516 -0.0204 -0.5552  0.6573
 1697SOL    HW1 7245   0.677   2.257   9.446  0.4774  0.8403  0.0576
 1697SOL    HW2 7246   0.625   2.393   9.487  0.6090  0.1643  2.6778
 1698SOL     OW 7247   2.461   1.723   4.166 -0.1330 -0.3930  0.1177
 1698SOL    HW1 7248   2.376   1.767   4.163 -0.7793 -1.5508  0.4911
 1698SOL    HW2 7249   2.495   1.728   4.077 -0.2687  0.6712  0.1130
 1699SOL     OW 7250   6.702   0.884   1.125  0.0173  0.4550  0.6905
 1699SOL    HW1 7251   6.620   0.845   1.096  0.6928  0.6590 -1.6820
 1699SOL    HW2 7252   6.680   0.976   1.144 -0.7696 -0.0674  2.5664
 1700SOL     OW 7253   5.382   1.274   3.599 -0.2312 -0.3945 -0.2889
 1700SOL    HW1 7254   5.472   1.251   3.622 -0.7766 -3.0246 -0.4602
 1700SOL    HW2 7255   5.362   1.219   3.523 -1.3838  1.5704 -1.5028
 1701SOL     OW 7256   8.547   1.225   6.175  0.0662  0.3128  0.6549
 1701SOL    HW1 7257   8.512   1.234   6.263  1.1498  0.4283  1.0901
 1701SOL    HW2 7258   8.518   1.304   6.129 -0.0125  0.5311  1.0820
 1702SOL     OW 7259   7.951   7.515   0.143 -0.4136  0.1288  0.1204
 1702SOL    HW1 7260   8.011   7.560   0.084  0.5183 -1.3780 -0.1329
 1702SOL    HW2 7261   7.924   7.437   0.094 -4.8762  2.0464 -0.9783
 1703SOL     OW 7262   5.930   5.460   5.984 -0.4066 -0.0757  0.2360
 1703SOL    HW1 7263   5.859   5.498   6.036 -0.5828  2.0567 -1.4343
 1703SOL    HW2 7264   6.004   5.519   5.999  0.8215 -1.7957  1.2915
 1704SOL     OW 7265   8.403   3.614   0.853  0.0894 -0.1238  0.2525
 1704SOL    HW1 7266   8.422   3.696   0.899 -0.7492  0.6014 -0.6562
 1704SOL    HW2 7267   8.328   3.578   0.900 -1.0467  0.8340 -0.7375
 1705SOL     OW 7268   5.909   0.133   0.775 -0.2640  0.1121 -0.2112
 1705SOL    HW1 7269   5.936   0.219   0.807 -1.3621 -0.5746  2.9631
 1705SOL    HW2 7270   5.825   0.150   0.732 -0.1829  0.7174 -0.1487
 1706SOL     OW 7271   1.543   1.070   9.539 -0.1651 -0.5896  0.4749
 1706SOL    HW1 7272   1.584   1.016   9.607  2.1276  0.0709 -0.3171
 1706SOL    HW2 7273   1.472   1.016   9.506  1.0797 -2.5081  0.7805
 1707SOL     OW 7274   1.186   5.453   2.720 -0.1705  0.4871 -0.1552
 1707SOL    HW1 7275   1.107   5.426   2.768 -0.0800  0.7988  0.1767
 1707SOL    HW2 7276   1.206   5.540   2.755 -0.2384  0.8199 -0.9333
 1708SOL     OW 7277   7.734   7.202   4.654  0.2302 -0.3790 -0.5826
 1708SOL    HW1 7278   7.734   7.279   4.712 -0.5053 -1.2135  0.5657
 1708SOL    HW2 7279   7.741   7.239   4.566  1.2612  0.9337  0.0100
 1709SOL     OW 7280   2.572   3.583   3.738 -0.1902 -0.0038  0.9389
 1709SOL    HW1 7281   2.631   3.538   3.799  1.4494 -0.5326 -0.9508
 1709SOL    HW2 7282   2.540   3.513   3.680  0.5230  0.8612 -0.5540
 1710SOL     OW 7283   9.089   9.199   0.675  0.6346 -0.0277 -0.1604
 1710SOL    HW1 7284   8.997   9.173   0.670  0.4180  0.9399 -2.6487
 1710SOL    HW2 7285   9.087   9.289   0.707  0.6817  0.1274 -0.5906
 1711SOL     OW 7286   3.262   9.373   4.342 -0.0920  0.1794  0.0823
 1711SOL    HW1 7287   3.171   9.381   4.369 -0.1794  1.6549 -0.5348
 1711SOL    HW2 7288   3.263   9.298   4.283 -0.8212 -0.0800  0.3859
 1712SOL     OW 7289   8.713   7.419   6.534 -0.1304 -0.3332 -0.4263
 1712SOL    HW1 7290   8.700   7.414   6.628 -2.0866  1.8929 -0.4802
 1712SOL    HW2 7291   8.667   7.342   6.499 -2.2895  0.5429  0.3009
 1713SOL     OW 7292   2.539   1.248   9.567  0.5783 -0.3230 -0.0083
 1713SOL    HW1 7293   2.611   1.186   9.556  0.3693 -0.8270  1.2763
 1713SOL    HW2 7294   2.497   1.221   9.649  1.0763  2.1066  1.1238
 1714SOL     OW 7295   5.726   4.207   1.275  0.0636  0.5219  0.1661
 1714SOL    HW1 7296   5.650   4.249   1.313 -1.0672 -0.9976 -0.3111
 1714SOL    HW2 7297   5.729   4.120   1.315  1.3906  0.4533 -0.0178
 1715SOL     OW 7298   7.515   7.769   4.020  0.2601  0.2100  0.1296
 1715SOL    HW1 7299   7.598   7.766   3.972  0.2634 -1.5383  0.1781
 1715SOL    HW2 7300   7.537   7.807   4.105  1.0822 -0.4812  0.2415
 1716SOL     OW 7301   5.681   1.109   6.428  0.3065  0.3501  1.3295
 1716SOL    HW1 7302   5.661   1.191   6.382 -2.1341 -0.4736  0.7683
 1716SOL    HW2 7303   5.683   1.133   6.520  0.6986  1.2165  1.1068
 1717SOL     OW 7304   2.404   9.578   5.317 -0.6226 -0.1345  0.3140
 1717SOL    HW1 7305   2.405   9.525   5.397 -0.4171 -0.2637  0.2254
 1717SOL    HW2 7306   2.366   9.520   5.250  0.2755 -0.4163  0.0448
 1718SOL     OW 7307   4.993   8.726   0.184  0.1110  0.5314  0.3889
 1718SOL    HW1 7308   5.015   8.672   0.260  1.2092  0.5436  0.0971
 1718SOL    HW2 7309   4.899   8.715   0.173  0.3918 -1.8009 -0.0197
 1719SOL     OW 7310   2.637   0.669   3.569 -0.4747  0.0826  0.2808
 1719SOL    HW1 7311   2.726   0.693   3.592  0.8490 -4.5525  1.0452
 1719SOL    HW2 7312   2.592   0.656   3.653 -0.9123 -0.5326 -0.0372
 1720SOL     OW 7313   2.658   8.216   7.999 -0.4471 -0.2137  0.3627
 1720SOL    HW1 7314   2.569   8.200   8.031 -0.2622 -1.4625  0.2794
 1720SOL    HW2 7315   2.691   8.130   7.973  1.2684 -0.0061  1.6456
 1721SOL     OW 7316   0.091   6.927   8.889  0.0761 -0.2334  0.3845
 1721SOL    HW1 7317   0.157   6.996   8.887  0.8147 -0.8708  1.6135
 1721SOL    HW2 7318   0.134   6.854   8.934 -0.4912 -1.7112 -1.3354
 1722SOL     OW 7319   1.773   6.021   9.414  0.3641  0.0808  0.4337
 1722SOL    HW1 7320   1.852   5.972   9.389  0.6847  1.6984 -2.0257
 1722SOL    HW2 7321   1.796   6.113   9.402 -1.9452  0.5963 -0.5936
 1723SOL     OW 7322   3.652   6.567   5.106 -0.5856  0.1807  0.7308
 1723SOL    HW1 7323   3.587   6.538   5.043  1.1928 -2.8299  0.0953
 1723SOL    HW2 7324   3.689   6.487   5.142  0.6383  1.7841  3.3632
 1724SOL     OW 7325   5.700   1.009   1.990 -0.7251 -0.6569 -0.1511
 1724SOL    HW1 7326   5.759   0.958   2.046 -0.1534  0.9278  0.7648
 1724SOL    HW2 7327   5.654   0.944   1.937  1.1699 -2.0165 -0.2244
 1725SOL     OW 7328   2.019   1.374   6.033 -0.3141  0.6691 -0.1354
 1725SOL    HW1 7329   1.994   1.310   5.968 -2.1682  0.3954  0.7553
 1725SOL    HW2 7330   2.055   1.323   6.105 -0.9508  0.6766  0.2020
 1726SOL     OW 7331   6.124   9.468   5.161 -0.2471 -0.2259  0.2842
 1726SOL    HW1 7332   6.143   9.463   5.067  2.7089 -0.3314  0.7889
 1726SOL    HW2 7333   6.030   9.453   5.167 -0.6794  0.6035 -2.7046
 1727SOL     OW 7334   5.198   6.639   1.484 -0.2594  0.4948  0.4267
 1727SOL    HW1 7335   5.189   6.721   1.436 -0.4553  0.2262  0.0024
 1727SOL    HW2 7336   5.282   6.647   1.529 -0.2892  0.9364  0.4100
 1728SOL     OW 7337   8.814   8.278   7.750  0.6993  0.6553  0.4068
 1728SOL    HW1 7338   8.835   8.213   7.817  2.7742  0.0934 -0.6872
 1728SOL    HW2 7339   8.882   8.345   7.761  1.5890  0.1507 -1.5804
 1729SOL     OW 7340   4.705   6.599   5.022 -0.0470  0.1048 -0.3725
 1729SOL    HW1 7341   4.783   6.612   5.075 -0.1888  0.0370 -0.1495
 1729SOL    HW2 7342   4.634   6.586   5.085  0.2153 -2.6845 -0.5472
 1730SOL     OW 7343   4.614   8.214   6.585 -0.5025 -0.5846  0.0462
 1730SOL    HW1 7344   4.546   8.171   6.533  0.4028 -2.6055  0.4692
 1730SOL    HW2 7345   4.607   8.307   6.561 -0.4159 -1.3374 -3.3341
 1731SOL     OW 7346   9.183   1.089   4.215  0.0060 -0.1108 -0.1226
 1731SOL    HW1 7347   9.205   1.158   4.279  0.7986  1.0574 -1.5922
 1731SOL    HW2 7348   9.158   1.014   4.269 -1.3470  1.4501  1.5529
 1732SOL     OW 7349   4.300   5.135   2.049  0.2312  0.5172 -0.0466
 1732SOL    HW1 7350   4.291   5.095   1.963  1.3765 -0.8273  0.4179
 1732SOL    HW2 7351   4.377   5.191   2.041  1.6699 -1.2583  0.6282
 1733SOL     OW 7352   4.022   0.758   3.067 -0.0179 -0.0090 -0.1286
 1733SOL    HW1 7353   3.942   0.726   3.026  0.0606 -0.7190  0.2591
 1733SOL    HW2 7354   3.991   0.818   3.135 -0.1061  2.6439 -2.3531
 1734SOL     OW 7355   0.845   1.654   5.865  0.1689  0.4396 -0.4465
 1734SOL    HW1 7356   0.906   1.703   5.919  0.8174 -0.6272 -0.1719
 1734SOL    HW2 7357   0.824   1.576   5.918  0.3222 -0.3084 -1.4656
 1735SOL     OW 7358   2.560   1.321   5.893  0.4326  0.1083 -0.0819
 1735SOL    HW1 7359   2.551   1.258   5.821 -1.5639  0.7427 -0.4360
 1735SOL    HW2 7360   2.521   1.276   5.968  0.8826  0.1464  0.1788
 1736SOL     OW 7361   5.291   1.254   6.170 -0.3909  0.0499 -0.3828
 1736SOL    HW1 7362   5.365   1.293   6.123 -0.2355 -0.6900 -0.7686
 1736SOL    HW2 7363   5.219   1.315   6.157 -0.6353 -0.5990 -2.4355
 1737SOL     OW 7364   0.649   3.563   8.736  0.2296  0.1072  0.1944
 1737SOL    HW1 7365   0.688   3.584   8.651  0.1969  2.5770  0.7270
 1737SOL    HW2 7366   0.700   3.614   8.799 -1.4006  0.3760  1.3463
 1738SOL     OW 7367   2.308   6.537   9.348  0.6955 -0.6848  0.2577
 1738SOL    HW1 7368   2.371   6.466   9.362  1.4899 -0.3927 -1.5069
 1738SOL    HW2 7369   2.351   6.594   9.285 -1.3166 -0.4241 -0.9544
 1739SOL     OW 7370   7.937   6.726   3.977  0.0904 -0.1733  0.5351
 1739SOL    HW1 7371   8.001   6.748   3.909  0.5111  1.3203  1.3588
 1739SOL    HW2 7372   7.900   6.811   4.003 -1.6562 -0.9312  0.6540
 1740SOL     OW 7373   0.560   3.613   4.522  0.4128 -0.3327 -0.5074
 1740SOL    HW1 7374   0.574   3.560   4.601  0.6914  2.0588  1.1744
 1740SOL    HW2 7375   0.614   3.572   4.455  1.9489 -1.2032  1.1741
 1741SOL     OW 7376   8.495   0.102   2.404 -0.2809  0.0657 -0.3820
 1741SOL    HW1 7377   8.451   0.077   2.485 -0.6835  0.4383 -0.4772
 1741SOL    HW2 7378   8.425   0.140   2.350  0.1619  0.6751 -0.5359
 1742SOL     OW 7379   2.930   0.041   4.371  0.7919  0.0719 -0.5538
 1742SOL    HW1 7380   2.921  -0.031   4.309 -0.6698 -1.6229  1.4970
 1742SOL    HW2 7381   2.962  -0.000   4.451  0.9749  1.9101  0.3744
 1743SOL     OW 7382   4.563   0.233   8.931  0.4497  0.0531 -0.5653
 1743SOL    HW1 7383   4.477   0.213   8.967  0.4962 -1.5685 -1.2400
 1743SOL    HW2 7384   4.546   0.301   8.865  0.0275  1.2909  0.7866
 1744SOL     OW 7385   7.842   1.417   5.612  0.1342  0.3672 -0.1966
 1744SOL    HW1 7386   7.750   1.396   5.628  0.3052 -0.0598  0.2698
 1744SOL    HW2 7387   7.840   1.483   5.542 -0.4695 -0.5544 -1.0878
 1745SOL     OW 7388   5.583   9.497   4.534  0.2350  0.3175 -0.1969
 1745SOL    HW1 7389   5.662   9.446   4.554 -0.0780  0.3891  1.3350
 1745SOL    HW2 7390   5.616   9.586   4.517  0.4687  0.4831  1.0114
 1746SOL     OW 7391   1.874   3.641   5.944 -0.1050 -0.3080  0.0781
 1746SOL    HW1 7392   1.948   3.685   5.903 -0.2576 -0.0705  0.0527
 1746SOL    HW2 7393   1.887   3.548   5.925  0.3749 -0.3049  0.3777
 1747SOL     OW 7394   4.266   3.353   3.603  0.1555 -0.5072  0.8725
 1747SOL    HW1 7395   4.194   3.303   3.642 -0.1087  0.2184  1.3448
 1747SOL    HW2 7396   4.280   3.425   3.664  0.4521  0.0612  0.1442
 1748SOL     OW 7397   0.605   1.831   7.440 -0.1079 -0.0823 -0.2350
 1748SOL    HW1 7398   0.608   1.750   7.389  0.2757 -0.3242  0.1620
 1748SOL    HW2 7399   0.681   1.826   7.497 -0.9687 -0.1971  0.9373
 1749SOL     OW 7400   1.403   0.704   5.329  0.3462  0.1589 -0.2666
 1749SOL    HW1 7401   1.375   0.780   5.381 -1.7150 -0.8709  0.1926
 1749SOL    HW2 7402   1.326   0.678   5.279  0.2324 -3.0212  1.3033
 1750SOL     OW 7403   2.263   6.347   0.285 -0.4141 -0.3142  0.3562
 1750SOL    HW1 7404   2.250   6.388   0.200 -0.4389  0.4794  0.7286
 1750SOL    HW2 7405   2.342   6.390   0.320 -0.6501 -0.3242  0.9065
 1751SOL     OW 7406   3.935   9.593   0.781 -0.1769 -0.4147 -0.3158
 1751SOL    HW1 7407   4.013   9.595   0.837 -0.8577  1.2282  0.6553
 1751SOL    HW2 7408   3.970   9.588   0.692  1.2106  2.3023 -0.0479
 1752SOL     OW 7409   4.100   9.020   8.779 -0.3354  0.0238  0.5972
 1752SOL    HW1 7410   4.160   9.073   8.726 -1.5106 -1.2460 -2.2560
 1752SOL    HW2 7411   4.023   9.075   8.791  1.1591  1.6005  4.1380
 1753SOL     OW 7412   6.982   3.983   4.859 -0.0580 -0.0794 -0.3819
 1753SOL    HW1 7413   6.924   3.967   4.934  0.2228  0.8086  0.0386
 1753SOL    HW2 7414   7.070   3.968   4.893  0.0153 -0.5037 -0.7630
 1754SOL     OW 7415   7.197   2.754   6.130 -0.4131  0.6784 -0.7361
 1754SOL    HW1 7416   7.225   2.772   6.040  0.8430  0.0673 -0.4817
 1754SOL    HW2 7417   7.186   2.841   6.169  0.9063  0.9478 -0.9308
 1755SOL     OW 7418   6.920   1.322   9.441 -0.2824 -0.5467 -0.2558
 1755SOL    HW1 7419   6.971   1.248   9.474 -1.3204 -0.7375  0.9919
 1755SOL    HW2 7420   6.879   1.290   9.361  1.2357 -0.5010 -1.0909
 1756SOL     OW 7421   4.183   1.440   8.475  0.0016  0.2722  0.1358
 1756SOL    HW1 7422   4.267   1.451   8.430 -0.3955  0.0196 -0.6831
 1756SOL    HW2 7423   4.129   1.511   8.443 -0.4519 -0.2115 -0.1923
 1757SOL     OW 7424   9.253   1.299   6.075 -0.2394 -0.3790 -0.1616
 1757SOL    HW1 7425   9.189   1.307   6.005 -0.1976  0.5167 -0.1100
 1757SOL    HW2 7426   9.201   1.286   6.154 -0.2937 -1.1865 -0.3253
 1758SOL     OW 7427   1.578   9.052   7.402 -0.5557 -0.0298  1.1315
 1758SOL    HW1 7428   1.523   9.007   7.338 -0.6961  0.6622  0.7536
 1758SOL    HW2 7429   1.529   9.132   7.424  0.1182  0.4020  1.0817
 1759SOL     OW 7430   1.350   9.436   6.905 -0.0802 -0.3034 -0.4709
 1759SOL    HW1 7431   1.442   9.458   6.890  0.0509 -1.6278 -1.9559
 1759SOL    HW2 7432   1.352   9.346   6.937 -0.7606  0.4780  1.9885
 1760SOL     OW 7433   8.690   7.468   3.261  0.0703 -0.6120 -0.0465
 1760SOL    HW1 7434   8.764   7.451   3.204 -0.4429  1.3064 -1.3769
 1760SOL    HW2 7435   8.658   7.381   3.286  1.6792 -1.4669 -0.8406
 1761SOL     OW 7436   2.278   7.870   7.404 -0.2100 -0.0997 -0.0628
 1761SOL    HW1 7437   2.309   7.905   7.321 -1.5393 -2.0220 -1.4406
 1761SOL    HW2 7438   2.349   7.814   7.435  0.8048  1.5863  0.7916
 1762SOL     OW 7439   3.003   1.721   1.824  0.1005 -0.4242  0.0062
 1762SOL    HW1 7440   3.023   1.808   1.858 -0.6622 -0.3045  0.1582
 1762SOL    HW2 7441   2.923   1.733   1.774 -0.1136 -1.0793  0.1893
 1763SOL     OW 7442   5.083   0.656   2.896  0.2682  0.1129 -0.8094
 1763SOL    HW1 7443   5.155   0.711   2.864  0.2127 -0.7712 -2.5925
 1763SOL    HW2 7444   5.032   0.636   2.818 -0.0940 -1.9055 -0.1194
 1764SOL     OW 7445   9.486   6.859   3.200 -0.6646  0.5369 -0.4746
 1764SOL    HW1 7446   9.416   6.838   3.138 -1.6683  3.2734 -0.4180
 1764SOL    HW2 7447   9.446   6.847   3.286 -0.3745  0.0665 -0.4026
 1765SOL     OW 7448   4.621   7.095   1.700 -0.2242  0.3069 -0.8138
 1765SOL    HW1 7449   4.570   7.025   1.741  1.0182 -0.1209  0.0708
 1765SOL    HW2 7450   4.582   7.106   1.614 -0.9626 -0.9252 -0.6631
 1766SOL     OW 7451   1.986   1.618   9.514 -0.5254  0.7205  0.1749
 1766SOL    HW1 7452   1.904   1.587   9.554 -1.4942  1.5572 -1.0793
 1766SOL    HW2 7453   1.987   1.712   9.532  0.1399  0.7269  0.1265
 1767SOL     OW 7454   8.362   1.915   3.328 -0.0601  0.4200  0.2630
 1767SOL    HW1 7455   8.404   1.848   3.382 -1.2509  0.2284  0.9816
 1767SOL    HW2 7456   8.406   1.908   3.243  2.3060  1.1672  1.3283
 1768SOL     OW 7457   6.088   4.335   6.220  0.2250  0.4363  0.0591
 1768SOL    HW1 7458   6.108   4.421   6.258  0.4939 -0.1425  1.2850
 1768SOL    HW2 7459   6.002   4.346   6.180  1.1137  1.8251 -1.5949
 1769SOL     OW 7460   6.831   1.258   6.863 -0.1631 -0.0066 -0.0004
 1769SOL    HW1 7461   6.831   1.256   6.959  0.8882 -0.1438  0.0119
 1769SOL    HW2 7462   6.830   1.351   6.841 -1.1371  0.0271  0.1175
 1770SOL     OW 7463   0.499   2.049   6.854  0.2401  0.3692  0.4566
 1770SOL    HW1 7464   0.434   1.991   6.894 -0.6128  1.4038  0.6106
 1770SOL    HW2 7465   0.548   2.086   6.927 -0.4022  1.1978  0.4810
 1771SOL     OW 7466   8.361   1.812   8.920  0.0619  0.2215 -0.2272
 1771SOL    HW1 7467   8.286   1.847   8.872  0.9291  0.3901 -1.4930
 1771SOL    HW2 7468   8.397   1.888   8.967  0.5253  0.5385 -1.0798
 1772SOL     OW 7469   2.401   0.726   2.744  0.3111  0.1126 -0.6390
 1772SOL    HW1 7470   2.351   0.724   2.663 -0.0384 -0.9549 -0.4203
 1772SOL    HW2 7471   2.432   0.816   2.751 -1.9187  0.9466 -0.5668
 1773SOL     OW 7472   6.905   6.006   3.420 -0.3630  0.1200  0.1528
 1773SOL    HW1 7473   6.823   5.967   3.453 -0.7484 -0.5245 -1.4637
 1773SOL    HW2 7474   6.923   5.959   3.339  0.6443  1.5016 -0.4716
 1774SOL     OW 7475   1.937   6.704   9.374  0.0664  0.4126  0.4198
 1774SOL    HW1 7476   2.013   6.695   9.317  0.3150  1.4996  0.5647
 1774SOL    HW2 7477   1.959   6.776   9.432 -0.0238 -0.8894  2.1585
 1775SOL     OW 7478   3.659   1.693   8.378  0.8387  0.0667 -0.2923
 1775SOL    HW1 7479   3.667   1.598   8.385 -0.8131  0.0014  2.4278
 1775SOL    HW2 7480   3.738   1.728   8.418  0.2133 -0.2632  1.3281
 1776SOL     OW 7481   8.441   0.118   2.687  0.7587 -0.3492 -0.7879
 1776SOL    HW1 7482   8.393   0.195   2.716  1.6071 -0.7764  2.0481
 1776SOL    HW2 7483   8.393   0.044   2.727  2.3260 -0.9393  0.0986
 1777SOL     OW 7484   7.777   2.022   1.805  0.0349  0.3230 -0.7244
 1777SOL    HW1 7485   7.779   2.117   1.815  0.8422  0.3310 -0.9219
 1777SOL    HW2 7486   7.869   1.996   1.804 -0.1890 -0.5726  0.4018
 1778SOL     OW 7487   3.062   2.699   3.571 -0.2454 -0.1253  0.5746
 1778SOL    HW1 7488   3.155   2.723   3.569 -0.5276  0.9838 -0.9190
 1778SOL    HW2 7489   3.058   2.613   3.530  0.2136 -0.6217  1.5330
 1779SOL     OW 7490   8.304   2.939   4.273  0.5016  0.0794  0.3303
 1779SOL    HW1 7491   8.236   2.905   4.216  1.8151 -0.9879 -0.6614
 1779SOL    HW2 7492   8.311   2.875   4.344  1.7436 -0.8591 -0.5894
 1780SOL     OW 7493   6.090   8.985   1.873 -0.5994  0.1909  0.1516
 1780SOL    HW1 7494   6.053   9.073   1.863  0.4860  0.7406  0.7309
 1780SOL    HW2 7495   6.091   8.949   1.785 -0.9263  0.8214 -0.1190
 1781SOL     OW 7496   8.251   0.327   0.721 -0.4071  0.1091  0.1915
 1781SOL    HW1 7497   8.218   0.411   0.687 -0.6096 -0.6272 -1.5441
 1781SOL    HW2 7498   8.233   0.264   0.651  0.6671 -1.1984  1.0402
 1782SOL     OW 7499   3.478   6.028   6.049  0.6175  0.1090 -0.7705
 1782SOL    HW1 7500   3.478   5.950   6.104  0.4554  0.7467  0.1618
 1782SOL    HW2 7501   3.539   6.088   6.092  3.2678 -0.6117 -3.1706
 1783SOL     OW 7502   1.682   3.648   1.645  0.5173 -0.3585 -0.0084
 1783SOL    HW1 7503   1.723   3.692   1.719  0.4186  0.3969 -0.3970
 1783SOL    HW2 7504   1.752   3.596   1.606  0.7213 -0.2662  0.2346
 1784SOL     OW 7505   8.532   5.041   0.559  0.6685 -0.0342  0.2041
 1784SOL    HW1 7506   8.500   5.075   0.642 -2.1169 -0.9745 -0.3846
 1784SOL    HW2 7507   8.558   4.951   0.577  0.9626  0.0549  0.2343
 1785SOL     OW 7508   6.479   0.791   4.742 -0.6581 -0.1668 -0.3572
 1785SOL    HW1 7509   6.438   0.761   4.661 -2.1168 -0.9514  0.6388
 1785SOL    HW2 7510   6.562   0.744   4.746 -0.5323 -0.0489 -1.4267
 1786SOL     OW 7511   4.377   4.315   9.413 -0.3835 -0.2790  0.6145
 1786SOL    HW1 7512   4.312   4.342   9.478 -1.4345  0.5815 -0.7407
 1786SOL    HW2 7513   4.438   4.388   9.409 -0.9867  0.1984 -0.1856
 1787SOL     OW 7514   5.990   4.645   5.985  0.4146 -0.0404 -0.0838
 1787SOL    HW1 7515   6.058   4.682   6.041 -0.0695  0.8567 -0.0686
 1787SOL    HW2 7516   6.037   4.612   5.908  0.7807  1.4425 -0.5219
 1788SOL     OW 7517   9.505   4.192   1.049  0.5489  0.1357  0.2712
 1788SOL    HW1 7518   9.557   4.112   1.056 -0.3785 -0.5743 -0.7150
 1788SOL    HW2 7519   9.495   4.206   0.954 -0.9123  0.3473  0.4369
 1789SOL     OW 7520   0.422   4.201   8.152 -0.0263  0.0782  0.0066
 1789SOL    HW1 7521   0.371   4.164   8.080 -0.7343 -1.0277  1.0455
 1789SOL    HW2 7522   0.374   4.178   8.231  0.2116  2.1341  0.8152
 1790SOL     OW 7523   6.613   6.633   4.693  0.1037  0.2721  0.5962
 1790SOL    HW1 7524   6.545   6.615   4.629  1.0081  0.2130 -0.3768
 1790SOL    HW2 7525   6.663   6.706   4.655  1.5639 -0.7468  0.4878
 1791SOL     OW 7526   0.014   1.859   9.444 -0.4955  0.5641  0.4207
 1791SOL    HW1 7527   0.085   1.798   9.462 -0.0732  0.3785 -1.6499
 1791SOL    HW2 7528   0.037   1.938   9.493  0.4656  0.0746  0.7895
 1792SOL     OW 7529   1.531   4.081   7.679  0.1727 -0.2776  0.5280
 1792SOL    HW1 7530   1.591   4.148   7.713 -0.3693 -0.7474  2.5639
 1792SOL    HW2 7531   1.546   4.081   7.585  1.2699  1.6450  0.6458
 1793SOL     OW 7532   3.653   1.643   5.887  0.0812  0.1944  0.2615
 1793SOL    HW1 7533   3.605   1.721   5.915  0.5337  0.5142  0.1622
 1793SOL    HW2 7534   3.635   1.636   5.793 -1.1480 -0.6737  0.5439
 1794SOL     OW 7535   9.111   9.453   7.608 -0.0081  0.1433  0.4564
 1794SOL    HW1 7536   9.021   9.421   7.608  0.2308 -0.5428  0.6410
 1794SOL    HW2 7537   9.151   9.411   7.685  0.4592  0.4689  0.3937
 1795SOL     OW 7538   8.511   4.629   1.218  0.5717  0.5479 -0.3221
 1795SOL    HW1 7539   8.489   4.562   1.282  0.1618 -0.9705 -1.9769
 1795SOL    HW2 7540   8.581   4.679   1.258  1.0367 -1.0051  0.8842
 1796SOL     OW 7541   6.840   7.313   6.505  0.2569  0.0402 -0.1249
 1796SOL    HW1 7542   6.871   7.243   6.563  1.0190 -0.3825 -1.0142
 1796SOL    HW2 7543   6.800   7.267   6.431  0.6371  0.5431 -0.6501
 1797SOL     OW 7544   2.107   8.445   8.610 -0.0533  0.6100 -0.4337
 1797SOL    HW1 7545   2.081   8.385   8.540 -2.3851  2.4852 -1.3413
 1797SOL    HW2 7546   2.058   8.526   8.591  2.3710  2.5769  1.0845
 1798SOL     OW 7547   3.635   8.406   1.884  0.5032  0.6031  0.5051
 1798SOL    HW1 7548   3.706   8.375   1.829 -1.1580 -0.5957 -1.1062
 1798SOL    HW2 7549   3.609   8.490   1.845 -0.0933  0.1875 -0.0031
 1799SOL     OW 7550   6.645   1.326   7.574 -0.0053 -0.1481 -0.3461
 1799SOL    HW1 7551   6.551   1.348   7.578 -0.5508 -1.9429 -2.0761
 1799SOL    HW2 7552   6.682   1.393   7.516 -0.2250  0.4533  0.1861
 1800SOL     OW 7553   4.718   0.891   5.112  0.4381 -0.2327  0.0647
 1800SOL    HW1 7554   4.664   0.866   5.187  0.6447 -0.6759  0.0656
 1800SOL    HW2 7555   4.796   0.930   5.152  0.2366  0.1803  0.0660
 1801SOL     OW 7556   5.945   6.828   2.357  0.6031  0.5255  0.0121
 1801SOL    HW1 7557   5.915   6.794   2.441 -3.0342 -3.6504 -2.5499
 1801SOL    HW2 7558   5.876   6.888   2.330  0.7942  0.4042 -0.7599
 1802SOL     OW 7559   1.051   9.524   8.448 -0.1096  0.2225 -0.3760
 1802SOL    HW1 7560   1.059   9.462   8.521  2.2959  0.0316 -0.7252
 1802SOL    HW2 7561   0.981   9.583   8.475 -2.2465 -2.3537  0.1336
 1803SOL     OW 7562   1.501   5.563   3.221  0.3269 -0.0202  0.1849
 1803SOL    HW1 7563   1.438   5.528   3.158 -0.5189 -0.4635  1.2468
 1803SOL    HW2 7564   1.526   5.488   3.275  1.0909  0.3364  0.3339
 1804SOL     OW 7565   9.624   3.928   7.118 -0.1568  0.7717  0.0300
 1804SOL    HW1 7566   9.659   4.011   7.087 -0.4517  0.6538 -0.6236
 1804SOL    HW2 7567   9.689   3.863   7.093 -0.9435  0.5118 -1.4438
 1805SOL     OW 7568   4.475   3.705   7.575 -0.5613 -0.0546  0.2014
 1805SOL    HW1 7569   4.424   3.630   7.544  0.2491 -0.0009 -1.3163
 1805SOL    HW2 7570   4.522   3.736   7.498  0.7490  0.7188  1.2766
 1806SOL     OW 7571   4.732   0.666   4.631  0.0084  0.2741 -0.0133
 1806SOL    HW1 7572   4.827   0.670   4.641 -0.0368  1.3169  0.1051
 1806SOL    HW2 7573   4.700   0.642   4.718  0.2027 -1.0345 -0.2837
 1807SOL     OW 7574   8.579   3.809   4.470  0.3192 -0.3092 -0.2002
 1807SOL    HW1 7575   8.599   3.811   4.377  2.3474 -1.1038  0.1666
 1807SOL    HW2 7576   8.575   3.901   4.496  0.4567 -0.0949 -0.9324
 1808SOL     OW 7577   1.111   3.373   3.371 -0.1842  0.1498  0.0077
 1808SOL    HW1 7578   1.098   3.382   3.465  2.1887 -2.1857  0.6624
 1808SOL    HW2 7579   1.051   3.305   3.344  1.9315 -2.1520  0.7413
 1809SOL     OW 7580   8.823   8.858   6.298  0.4056 -0.4293  0.2202
 1809SOL    HW1 7581   8.766   8.913   6.352  1.7836  0.6308  0.6514
 1809SOL    HW2 7582   8.908   8.862   6.341  1.9424  1.5361 -2.6474
 1810SOL     OW 7583   8.249   7.407   4.985 -0.2532  0.9374 -1.0479
 1810SOL    HW1 7584   8.224   7.477   5.046 -0.7517  0.5770 -0.8229
 1810SOL    HW2 7585   8.324   7.441   4.938 -0.6178  1.7124 -1.0885
 1811SOL     OW 7586   6.040   4.388   5.289  0.1400  0.5308  0.5728
 1811SOL    HW1 7587   6.039   4.457   5.356 -0.7122 -0.4038  1.5743
 1811SOL    HW2 7588   6.128   4.350   5.296 -0.0240  0.2731  1.3684
 1812SOL     OW 7589   5.197   1.130   5.072  0.5266  0.1297  0.1932
 1812SOL    HW1 7590   5.169   1.113   4.982 -0.0569  2.2125 -0.0814
 1812SOL    HW2 7591   5.265   1.196   5.064  0.6506  0.1509  1.2719
 1813SOL     OW 7592   9.038   4.233   9.468 -0.6191 -0.7195 -0.3609
 1813SOL    HW1 7593   9.046   4.221   9.562 -0.7084 -0.7556 -0.3586
 1813SOL    HW2 7594   8.952   4.274   9.456  0.0117  0.6824 -0.2912
 1814SOL     OW 7595   2.524   0.665   3.824  0.3789  0.3310  0.7297
 1814SOL    HW1 7596   2.451   0.605   3.840 -0.5259  0.7721 -1.3891
 1814SOL    HW2 7597   2.546   0.699   3.911 -1.7957  0.0029  1.4827
 1815SOL     OW 7598   2.085   4.553   0.891  0.3636 -0.0455 -0.0358
 1815SOL    HW1 7599   2.061   4.503   0.813 -0.0882 -0.2448  0.2280
 1815SOL    HW2 7600   2.149   4.497   0.936  0.6922  0.1092 -0.3061
 1816SOL     OW 7601   4.328   2.215   6.614  0.0121  0.6327 -0.0628
 1816SOL    HW1 7602   4.388   2.142   6.628 -0.7308  0.2986  1.7031
 1816SOL    HW2 7603   4.385   2.289   6.590  0.7738 -0.4661 -1.8765
 1817SOL     OW 7604   2.650   4.283   7.667  0.0376 -0.3678  0.3430
 1817SOL    HW1 7605   2.655   4.187   7.670 -2.4754 -0.5964  0.0771
 1817SOL    HW2 7606   2.633   4.308   7.758 -1.5573 -0.4255  0.0896
 1818SOL     OW 7607   2.473   0.181   5.184 -0.4755 -0.1646  0.3374
 1818SOL    HW1 7608   2.514   0.141   5.107  1.0194  0.3537  0.8350
 1818SOL    HW2 7609   2.439   0.107   5.234 -0.6226 -0.5676 -0.3477
 1819SOL     OW 7610   5.634   1.305   6.260  0.1043 -0.2757 -0.7551
 1819SOL    HW1 7611   5.678   1.321   6.176 -1.5866 -0.8571 -1.8059
 1819SOL    HW2 7612   5.569   1.375   6.266 -0.4197 -0.7819 -0.4143
 1820SOL     OW 7613   9.214   9.481   4.443 -0.7679  0.2502 -0.2964
 1820SOL    HW1 7614   9.254   9.459   4.359  1.0976  1.4530  0.2135
 1820SOL    HW2 7615   9.169   9.564   4.428 -0.7920  0.2520 -0.2152
 1821SOL     OW 7616   5.972   3.639   7.464 -0.8233  0.7733  0.0887
 1821SOL    HW1 7617   5.974   3.549   7.433 -0.8667  0.8648 -0.1872
 1821SOL    HW2 7618   5.879   3.662   7.467 -0.8841  0.4274  1.3030
 1822SOL     OW 7619   5.397   9.432   0.383 -0.7216 -0.1019  0.1816
 1822SOL    HW1 7620   5.468   9.487   0.348 -0.1411 -1.1064 -0.2886
 1822SOL    HW2 7621   5.397   9.450   0.477 -1.4388  1.6845 -0.1251
 1823SOL     OW 7622   5.003   6.508   2.988 -0.1544 -0.0760 -0.9721
 1823SOL    HW1 7623   5.072   6.459   2.941 -0.9066 -2.0319 -0.1406
 1823SOL    HW2 7624   4.948   6.544   2.918  1.7138  1.6295 -1.6612
 1824SOL     OW 7625   6.346   9.495   7.415  0.3375 -0.8223 -0.0391
 1824SOL    HW1 7626   6.424   9.551   7.422  0.8694 -1.3318 -1.4025
 1824SOL    HW2 7627   6.333   9.461   7.504 -0.2110  1.6655  0.9144
 1825SOL     OW 7628   3.478   0.012   3.915  0.4524 -0.0167  0.0706
 1825SOL    HW1 7629   3.492   0.106   3.919 -1.1954  0.2499  0.0615
 1825SOL    HW2 7630   3.502  -0.013   3.826  0.0275  0.5512 -0.2077
 1826SOL     OW 7631   2.680   1.596   0.160 -0.2297  0.5749 -0.3818
 1826SOL    HW1 7632   2.709   1.617   0.249 -1.1750 -2.0412  0.6530
 1826SOL    HW2 7633   2.588   1.621   0.158 -0.0990  1.0303 -0.7850
 1827SOL     OW 7634   8.398   9.154   8.667  0.0489 -0.9987  0.0810
 1827SOL    HW1 7635   8.478   9.169   8.717  0.5407 -0.6959 -0.7645
 1827SOL    HW2 7636   8.428   9.111   8.587 -0.7480 -1.6900  0.1425
 1828SOL     OW 7637   0.060   0.061   9.604  0.6327 -0.0367  0.0212
 1828SOL    HW1 7638  -0.008   0.022   9.549  0.2982  2.9241 -1.9449
 1828SOL    HW2 7639   0.137   0.005   9.590 -0.9553 -2.7243  1.3031
 1829SOL     OW 7640   5.338   6.496   0.865  0.3512 -0.1209  0.3304
 1829SOL    HW1 7641   5.323   6.575   0.813 -0.1794 -0.9019 -0.7575
 1829SOL    HW2 7642   5.251   6.462   0.883  0.5242  0.1627  1.8197
 1830SOL     OW 7643   0.632   7.778   1.633 -0.0583  0.3622 -0.0342
 1830SOL    HW1 7644   0.539   7.796   1.649 -0.6204 -2.2222 -0.0270
 1830SOL    HW2 7645   0.637   7.683   1.627  2.7100  0.4194  0.4886
 1831SOL     OW 7646   0.582   6.509   4.270  0.4053  0.2235  0.0304
 1831SOL    HW1 7647   0.601   6.603   4.271  2.5813 -0.1424 -0.6167
 1831SOL    HW2 7648   0.579   6.484   4.363 -2.3917  1.2397  0.3092
 1832SOL     OW 7649   5.945   8.747   6.272  0.3095 -0.0356  0.3016
 1832SOL    HW1 7650   5.923   8.669   6.222  2.0797 -1.2933  1.3713
 1832SOL    HW2 7651   5.895   8.739   6.353 -1.4404  1.2619 -0.6060
 1833SOL     OW 7652   0.482   6.641   3.254  0.3989  0.2625 -0.0995
 1833SOL    HW1 7653   0.443   6.559   3.284  0.6744 -0.2050 -0.9801
 1833SOL    HW2 7654   0.467   6.641   3.160  2.1725  0.2365 -0.4124
 1834SOL     OW 7655   8.890   8.405   0.950  0.5882 -1.0354  0.2702
 1834SOL    HW1 7656   8.870   8.495   0.977 -0.7384 -1.1430 -0.2673
 1834SOL    HW2 7657   8.852   8.351   1.019 -2.2516 -1.2876 -1.3539
 1835SOL     OW 7658   9.241   5.427   0.294  0.4177 -0.1321 -0.5112
 1835SOL    HW1 7659   9.229   5.352   0.235 -0.2235  0.0368 -0.5955
 1835SOL    HW2 7660   9.287   5.391   0.370 -1.1626 -0.9240  0.1025
 1836SOL     OW 7661   7.198   9.009   4.737  0.5765 -0.5346 -0.4335
 1836SOL    HW1 7662   7.107   9.004   4.709 -0.3121  0.5183  2.0545
 1836SOL    HW2 7663   7.205   8.945   4.807  1.5491 -0.0494 -0.0724
 1837SOL     OW 7664   7.838   8.650   6.451  0.1760  0.1951 -0.1313
 1837SOL    HW1 7665   7.833   8.744   6.431  1.6374  0.0839 -1.1859
 1837SOL    HW2 7666   7.871   8.610   6.371  1.5709 -0.9477  0.9531
 1838SOL     OW 7667   7.570   1.852   3.580  1.2663  0.0941 -0.3525
 1838SOL    HW1 7668   7.524   1.855   3.496  1.5139  0.2011 -0.4830
 1838SOL    HW2 7669   7.662   1.863   3.558  1.5300 -1.7066 -0.2397
 1839SOL     OW 7670   7.424   6.403   1.455 -0.4328 -0.0209 -0.2484
 1839SOL    HW1 7671   7.501   6.356   1.422 -0.4591  1.0799 -2.0188
 1839SOL    HW2 7672   7.416   6.376   1.547  1.4433 -0.9446 -0.3201
 1840SOL     OW 7673   0.556   1.407   5.447  0.0217 -0.3115  0.3099
 1840SOL    HW1 7674   0.476   1.458   5.434 -1.0168 -1.6066  1.2977
 1840SOL    HW2 7675   0.610   1.461   5.504 -0.1538  0.5720 -0.3544
 1841SOL     OW 7676   4.510   5.069   8.571  0.7278  0.1921 -0.4805
 1841SOL    HW1 7677   4.517   5.163   8.590 -0.9671  0.2768 -0.1819
 1841SOL    HW2 7678   4.436   5.039   8.623  1.5020 -1.4164 -0.2610
 1842SOL     OW 7679   8.417   7.063   6.168  0.2319 -0.0028 -0.5477
 1842SOL    HW1 7680   8.359   7.002   6.213  0.7460  0.0502  0.1975
 1842SOL    HW2 7681   8.501   7.017   6.164  0.4892  0.4596 -0.4321
 1843SOL     OW 7682   4.306   3.039   6.554 -0.8326 -0.2671  0.1390
 1843SOL    HW1 7683   4.387   3.064   6.510  0.2966 -0.1159  2.1626
 1843SOL    HW2 7684   4.291   2.948   6.528 -0.1230 -0.2413 -0.3967
 1844SOL     OW 7685   8.508   0.233   0.175  0.4029  0.1024  0.6379
 1844SOL    HW1 7686   8.564   0.270   0.107  0.0721 -1.7454 -0.7240
 1844SOL    HW2 7687   8.500   0.140   0.152 -1.4488 -0.1487  2.0161
 1845SOL     OW 7688   0.256   6.226   6.208  0.6076 -0.5737  0.2440
 1845SOL    HW1 7689   0.274   6.318   6.187  0.0074 -0.6144 -0.5179
 1845SOL    HW2 7690   0.180   6.204   6.153  0.3104 -1.3223  0.9360
 1846SOL     OW 7691   3.328   7.696   3.398  0.0931  0.0255 -0.4755
 1846SOL    HW1 7692   3.370   7.678   3.314  0.4224 -3.0660  0.2504
 1846SOL    HW2 7693   3.258   7.631   3.404 -0.9545  1.2135  0.9979
 1847SOL     OW 7694   5.699   3.505   1.441 -0.5299  0.1105  0.2829
 1847SOL    HW1 7695   5.657   3.425   1.408  0.9805 -0.7380  0.3553
 1847SOL    HW2 7696   5.625   3.560   1.468 -1.6360 -0.9772 -0.3772
 1848SOL     OW 7697   0.936   4.910   1.203  0.1838  0.3473 -0.3944
 1848SOL    HW1 7698   0.888   4.846   1.151  2.0232  0.6791 -2.6869
 1848SOL    HW2 7699   1.021   4.869   1.219  0.1025  0.7714  1.3368
 1849SOL     OW 7700   3.702   8.079   5.101  0.3518 -0.5428 -0.4445
 1849SOL    HW1 7701   3.763   8.049   5.167 -1.3400  0.5903  1.7759
 1849SOL    HW2 7702   3.629   8.017   5.105  0.2155 -0.4477 -1.2207
 1850SOL     OW 7703   3.497   2.964   4.228 -0.1369  0.3638  0.2210
 1850SOL    HW1 7704   3.403   2.970   4.244 -0.1647  3.1008 -0.4325
 1850SOL    HW2 7705   3.507   2.988   4.136  1.1375 -1.1084 -0.0559
 1851SOL     OW 7706   3.827   9.580   1.307  0.0383  0.0129  0.1398
 1851SOL    HW1 7707   3.899   9.529   1.344  2.1694  2.1796 -0.7116
 1851SOL    HW2 7708   3.808   9.538   1.224  1.4866  0.2823 -0.3664
 1852SOL     OW 7709   6.508   5.196   3.329  0.3605  0.4123 -0.1267
 1852SOL    HW1 7710   6.593   5.167   3.296  0.2150  0.4977 -0.5820
 1852SOL    HW2 7711   6.451   5.119   3.319  0.3541  0.3910  0.0703
 1853SOL     OW 7712   5.648   6.580   7.052 -0.4987 -0.1223 -0.1280
 1853SOL    HW1 7713   5.714   6.580   6.983  1.1892 -0.1359  1.4036
 1853SOL    HW2 7714   5.600   6.662   7.039  0.7178  0.5682 -0.4928
 1854SOL     OW 7715   9.458   6.462   4.217 -0.0330 -0.2447 -0.4361
 1854SOL    HW1 7716   9.549   6.465   4.247  0.3442 -0.2356 -1.5304
 1854SOL    HW2 7717   9.415   6.534   4.262  0.1738 -1.0148  1.0705
 1855SOL     OW 7718   4.218   8.544   3.820  0.0652  0.3243 -0.3405
 1855SOL    HW1 7719   4.237   8.536   3.913  0.3304 -1.2963 -0.5153
 1855SOL    HW2 7720   4.129   8.578   3.816 -0.1749 -0.1940  0.5070
 1856SOL     OW 7721   5.525   0.498   2.741  0.5483 -0.4459 -0.8275
 1856SOL    HW1 7722   5.478   0.579   2.719  1.5091 -0.1411 -1.9031
 1856SOL    HW2 7723   5.602   0.528   2.790  0.3879 -0.8069 -0.3490
 1857SOL     OW 7724   3.794   4.902   7.086 -0.1520 -0.0180  0.0159
 1857SOL    HW1 7725   3.727   4.858   7.139  0.5103  0.4924  1.3131
 1857SOL    HW2 7726   3.876   4.883   7.131  0.5426 -0.2173 -1.2827
 1858SOL     OW 7727   4.017   1.363   9.232 -0.1731  0.3844 -0.0621
 1858SOL    HW1 7728   4.038   1.281   9.187  0.5624 -0.2043  1.3064
 1858SOL    HW2 7729   3.940   1.396   9.186  0.9340  0.1903 -2.2085
 1859SOL     OW 7730   7.109   3.966   3.878  0.5002  0.4658  0.4016
 1859SOL    HW1 7731   7.145   3.897   3.823 -0.9648 -1.1930  1.4062
 1859SOL    HW2 7732   7.135   3.943   3.967  0.2558  1.4027  0.7338
 1860SOL     OW 7733   4.513   4.677   9.058  0.1181 -0.1131  0.6063
 1860SOL    HW1 7734   4.444   4.612   9.069  1.2686 -1.4216  0.3295
 1860SOL    HW2 7735   4.592   4.626   9.038  0.6564  1.4733 -1.6386
 1861SOL     OW 7736   2.063   4.901   9.198  0.1113  0.0190  0.0461
 1861SOL    HW1 7737   2.154   4.924   9.180 -0.4214  3.2148  0.8104
 1861SOL    HW2 7738   2.027   4.877   9.113  1.5473 -1.1487 -0.2962
 1862SOL     OW 7739   5.539   4.503   1.808 -0.2155 -0.5638  0.0520
 1862SOL    HW1 7740   5.585   4.480   1.889 -0.1983 -1.4314 -0.1980
 1862SOL    HW2 7741   5.463   4.445   1.806 -1.4288  0.9430  0.5219
 1863SOL     OW 7742   5.653   6.643   6.435 -0.1463 -0.0953 -0.5502
 1863SOL    HW1 7743   5.654   6.678   6.524 -0.9178  3.5125 -1.8036
 1863SOL    HW2 7744   5.744   6.646   6.406 -0.0597 -0.1384 -0.2788
 1864SOL     OW 7745   3.059   0.820   4.716 -0.0474  0.3556  0.6732
 1864SOL    HW1 7746   3.117   0.895   4.702 -0.2276  0.3626 -0.1072
 1864SOL    HW2 7747   3.117   0.744   4.712 -0.2787  0.2439 -1.7725
 1865SOL     OW 7748   8.311   6.191   2.021 -0.4417  0.0296  0.8279
 1865SOL    HW1 7749   8.304   6.104   2.062  1.4593 -0.6767 -0.1750
 1865SOL    HW2 7750   8.221   6.217   2.002 -1.0361 -2.1061  0.4382
 1866SOL     OW 7751   0.283   5.771   9.609 -0.1113 -0.7894 -0.5318
 1866SOL    HW1 7752   0.353   5.792   9.671  0.0356 -1.4219 -0.4755
 1866SOL    HW2 7753   0.314   5.692   9.564 -1.3687 -1.8867  0.4509
 1867SOL     OW 7754   8.145   2.310   7.580  0.5727  0.2573 -0.5131
 1867SOL    HW1 7755   8.133   2.358   7.661  1.7600  0.9972 -0.7629
 1867SOL    HW2 7756   8.190   2.229   7.606  0.3176  0.1666 -0.3512
 1868SOL     OW 7757   3.828   2.318   2.658 -0.5632  0.4348  0.0452
 1868SOL    HW1 7758   3.881   2.303   2.580 -2.0623 -0.6309 -0.8161
 1868SOL    HW2 7759   3.775   2.395   2.638  1.8725  2.7052  1.6367
 1869SOL     OW 7760   0.183   1.714   6.101 -0.1242  0.0266 -0.0245
 1869SOL    HW1 7761   0.254   1.660   6.067 -1.5929 -1.1977 -1.2667
 1869SOL    HW2 7762   0.213   1.804   6.087  2.1218 -0.3825  1.5638
 1870SOL     OW 7763   3.318   0.301   0.049  1.0545  0.3435 -0.3368
 1870SOL    HW1 7764   3.410   0.327   0.044  1.0094  1.1237  1.8828
 1870SOL    HW2 7765   3.270   0.372   0.005  1.4914 -0.3640 -2.0547
 1871SOL     OW 7766   9.301   6.207   7.963 -0.2631 -0.6320 -0.5307
 1871SOL    HW1 7767   9.372   6.177   7.906 -2.0200 -1.6958 -2.2939
 1871SOL    HW2 7768   9.290   6.299   7.941 -1.2435 -1.1427 -2.3761
 1872SOL     OW 7769   5.503   7.945   6.947  0.5260 -0.1145 -0.2347
 1872SOL    HW1 7770   5.580   7.892   6.927  1.3847  0.9825  0.0610
 1872SOL    HW2 7771   5.436   7.915   6.885  0.9817 -1.4903 -0.1057
 1873SOL     OW 7772   3.084   1.825   5.888  0.0608 -0.0341 -0.3940
 1873SOL    HW1 7773   3.044   1.840   5.974 -1.9615  0.5532 -1.3673
 1873SOL    HW2 7774   3.042   1.889   5.831  0.1932 -1.4374 -2.1461
 1874SOL     OW 7775   5.887   0.462   6.318 -0.2767  0.6780  0.1449
 1874SOL    HW1 7776   5.900   0.439   6.410  0.0848 -0.6303 -0.2086
 1874SOL    HW2 7777   5.974   0.483   6.286 -0.2890  0.4287 -0.0623
 1875SOL     OW 7778   7.905   1.248   6.495  0.1204 -0.1641  0.2567
 1875SOL    HW1 7779   7.971   1.225   6.429 -1.5602 -0.3147 -1.4700
 1875SOL    HW2 7780   7.846   1.173   6.497 -1.8697  1.2757 -0.7698
 1876SOL     OW 7781   6.004   4.995   7.681 -0.2487  0.3712  0.4366
 1876SOL    HW1 7782   5.957   4.934   7.738 -0.9848  0.8772  0.3802
 1876SOL    HW2 7783   5.942   5.066   7.665 -1.4483 -1.2619 -3.6676
 1877SOL     OW 7784   3.105   2.210   8.111  0.3112  0.2578 -0.1901
 1877SOL    HW1 7785   3.180   2.266   8.132 -1.1507  2.4195 -0.3965
 1877SOL    HW2 7786   3.062   2.194   8.195  1.9510 -2.6439  0.2543
 1878SOL     OW 7787   6.074   4.583   0.271  0.1035 -0.5602 -0.4337
 1878SOL    HW1 7788   6.004   4.521   0.249 -0.6118  0.0534  0.0399
 1878SOL    HW2 7789   6.030   4.652   0.321  0.8660  0.3653 -0.9975
 1879SOL     OW 7790   6.988   0.315   2.576  0.7831  0.3851 -0.3736
 1879SOL    HW1 7791   6.936   0.246   2.617  0.3228  0.7068 -0.4069
 1879SOL    HW2 7792   6.963   0.394   2.623 -0.6141  0.9667 -1.9905
 1880SOL     OW 7793   5.524   5.679   8.428 -0.2751 -0.0400 -0.6099
 1880SOL    HW1 7794   5.604   5.728   8.450  0.4208 -2.0858  2.2053
 1880SOL    HW2 7795   5.458   5.745   8.411  1.6646  1.7470 -1.6514
 1881SOL     OW 7796   3.702   2.635   4.984 -0.6038 -0.2994  0.2537
 1881SOL    HW1 7797   3.729   2.717   5.025 -0.7140  0.4091 -1.0453
 1881SOL    HW2 7798   3.781   2.581   4.984 -0.4803 -0.1210  0.9428
 1882SOL     OW 7799   1.220   4.901   0.916  0.0994  0.4989 -0.1990
 1882SOL    HW1 7800   1.312   4.915   0.941  0.2941  0.7185 -1.0002
 1882SOL    HW2 7801   1.187   4.838   0.980  1.0497 -0.2208 -0.3921
 1883SOL     OW 7802   7.007   8.402   4.324 -0.2347 -0.2822 -0.6952
 1883SOL    HW1 7803   7.042   8.331   4.271 -0.9190  0.0823 -1.6575
 1883SOL    HW2 7804   6.951   8.358   4.389  1.2150 -0.7877  0.2497
 1884SOL     OW 7805   8.486   2.755   5.754  0.7286  0.1438 -0.1455
 1884SOL    HW1 7806   8.486   2.850   5.742 -0.4901  0.2655  0.6637
 1884SOL    HW2 7807   8.532   2.721   5.677 -1.2466  1.2257 -1.8811
 1885SOL     OW 7808   1.048   2.361   2.575 -0.0320 -0.1418 -0.6444
 1885SOL    HW1 7809   1.118   2.416   2.610 -0.8550  1.7220 -1.7727
 1885SOL    HW2 7810   0.975   2.422   2.559 -0.4715 -1.2535 -3.3978
 1886SOL     OW 7811   5.526   3.327   7.170  0.0628 -0.5774  0.5527
 1886SOL    HW1 7812   5.434   3.320   7.197  0.4259 -0.0098  2.0293
 1886SOL    HW2 7813   5.566   3.381   7.238  0.9915  1.1794 -1.3200
 1887SOL     OW 7814   2.240   8.463   6.452 -0.3593  0.1780 -0.2985
 1887SOL    HW1 7815   2.187   8.540   6.429 -1.6541 -0.6761 -0.2292
 1887SOL    HW2 7816   2.177   8.392   6.462  0.6232 -0.5270  1.3756
 1888SOL     OW 7817   4.691   8.082   5.863  0.2046 -0.9136 -0.1879
 1888SOL    HW1 7818   4.784   8.074   5.883  0.2114 -1.4351 -0.4147
 1888SOL    HW2 7819   4.659   8.148   5.925  0.8802 -0.1370 -0.6334
 1889SOL     OW 7820   0.808   2.746   0.658  0.1995 -0.6866  0.1041
 1889SOL    HW1 7821   0.777   2.664   0.620 -1.0129 -0.1479 -0.1211
 1889SOL    HW2 7822   0.731   2.785   0.699  1.0448 -0.2757  1.3770
 1890SOL     OW 7823   6.420   4.565   8.974 -0.0977 -0.2146  0.0964
 1890SOL    HW1 7824   6.412   4.659   8.990 -2.5130 -0.4005  0.3965
 1890SOL    HW2 7825   6.445   4.527   9.058 -0.0835  0.0649  0.2154
 1891SOL     OW 7826   0.965   4.683   9.152  0.1582 -0.4985 -0.0614
 1891SOL    HW1 7827   0.872   4.666   9.137  0.2629 -1.0037 -0.1503
 1891SOL    HW2 7828   0.968   4.724   9.238 -0.2637  0.6875 -0.5919
 1892SOL     OW 7829   8.486   2.417   0.722  0.0545 -0.0202 -0.1128
 1892SOL    HW1 7830   8.563   2.474   0.722 -0.6218  0.9404 -0.9879
 1892SOL    HW2 7831   8.479   2.388   0.631 -0.8390  0.2136 -0.1210
 1893SOL     OW 7832   7.143   5.262   4.597  0.4131  0.0762  0.0241
 1893SOL    HW1 7833   7.083   5.231   4.530 -0.2857 -2.7245  1.7842
 1893SOL    HW2 7834   7.117   5.352   4.613 -2.0978 -0.4708 -0.5791
 1894SOL     OW 7835   3.815   8.044   2.664  0.1576  0.3591  0.1773
 1894SOL    HW1 7836   3.883   7.977   2.661  0.3243  0.5507 -0.5719
 1894SOL    HW2 7837   3.822   8.082   2.752  0.4772 -0.1697  0.3821
 1895SOL     OW 7838   4.410   1.839   0.700  0.4055  0.0776  0.7317
 1895SOL    HW1 7839   4.468   1.869   0.630  0.1747 -0.7639  0.1629
 1895SOL    HW2 7840   4.408   1.744   0.690 -1.2426  0.0962  0.6025
 1896SOL     OW 7841   2.959   2.433   9.454 -0.2920 -0.1135  0.4525
 1896SOL    HW1 7842   3.048   2.398   9.453 -0.3340 -0.2431 -0.9928
 1896SOL    HW2 7843   2.917   2.389   9.528  1.2349  1.0458  2.0833
 1897SOL     OW 7844   0.811   2.862   1.748 -0.2029  0.0369  0.1046
 1897SOL    HW1 7845   0.745   2.794   1.757 -0.8214  0.2424 -2.3875
 1897SOL    HW2 7846   0.864   2.854   1.828 -2.0729 -1.3359  1.2891
 1898SOL     OW 7847   8.078   2.740   2.441 -0.5379  0.1113  0.3332
 1898SOL    HW1 7848   8.135   2.807   2.403  0.2736 -0.4561  0.4948
 1898SOL    HW2 7849   8.037   2.698   2.365 -1.0141  0.7544  0.2325
 1899SOL     OW 7850   2.762   7.301   5.501 -0.2141 -0.3726 -0.5690
 1899SOL    HW1 7851   2.844   7.252   5.510  0.6254  0.9348 -0.7568
 1899SOL    HW2 7852   2.731   7.313   5.591  0.5486  0.2950 -0.3771
 1900SOL     OW 7853   3.282   9.004   5.078 -0.1913  0.0770 -0.0948
 1900SOL    HW1 7854   3.363   9.024   5.125  0.7742 -2.6585 -0.4358
 1900SOL    HW2 7855   3.213   9.042   5.133  1.1483  0.2579  1.5538
 1901SOL     OW 7856   8.747   5.160   0.446  0.4962 -0.5911  0.3205
 1901SOL    HW1 7857   8.658   5.135   0.466  0.5239 -0.2592  0.8797
 1901SOL    HW2 7858   8.776   5.212   0.521  1.0142 -0.3385 -0.0370
 1902SOL     OW 7859   6.707   7.869   5.766  0.0983  0.2840 -0.7338
 1902SOL    HW1 7860   6.751   7.795   5.725  1.9344  1.4467 -0.9854
 1902SOL    HW2 7861   6.673   7.921   5.693 -2.5599 -0.9988 -0.5390
 1903SOL     OW 7862   0.510   3.955   2.171  0.2814  0.0544  0.6151
 1903SOL    HW1 7863   0.519   4.047   2.194  1.9535 -0.0958  0.7363
 1903SOL    HW2 7864   0.597   3.930   2.140 -0.3532 -1.2849 -0.1775
 1904SOL     OW 7865   5.698   0.999   5.440 -0.5125  0.0417 -0.0110
 1904SOL    HW1 7866   5.725   1.075   5.389 -0.7939 -0.2998 -0.6859
 1904SOL    HW2 7867   5.729   0.924   5.389 -0.3124 -0.3056  0.6033
 1905SOL     OW 7868   0.833   7.920   1.533 -0.2180 -0.6231  0.2325
 1905SOL    HW1 7869   0.775   7.847   1.557  0.4107 -2.0263 -2.1645
 1905SOL    HW2 7870   0.910   7.877   1.497  0.1312  1.2541 -1.3643
 1906SOL     OW 7871   5.016   7.331   1.728  0.7036  0.4553  0.3611
 1906SOL    HW1 7872   4.992   7.267   1.795 -0.7761  1.5182  0.8953
 1906SOL    HW2 7873   5.106   7.356   1.750  2.0639 -2.6727 -0.9103
 1907SOL     OW 7874   8.551   6.793   0.832 -0.3875  0.1500 -0.1156
 1907SOL    HW1 7875   8.470   6.777   0.881 -0.0018 -0.8895  0.2087
 1907SOL    HW2 7876   8.620   6.791   0.899 -0.1521  1.9382 -0.2474
 1908SOL     OW 7877   6.124   0.576   1.899  0.1602  0.7561 -0.0313
 1908SOL    HW1 7878   6.189   0.645   1.890  0.7723  0.4499  1.6717
 1908SOL    HW2 7879   6.103   0.574   1.993 -0.2932 -0.9322 -0.1298
 1909SOL     OW 7880   7.274   0.838   2.015  0.0591 -0.3010 -0.0935
 1909SOL    HW1 7881   7.197   0.790   1.984  0.2249 -1.0296  0.5778
 1909SOL    HW2 7882   7.337   0.830   1.944 -0.2967 -0.1430 -0.4335
 1910SOL     OW 7883   3.825   1.144   0.405 -0.0574  0.3107  0.2624
 1910SOL    HW1 7884   3.910   1.101   0.398  0.0319  0.7194 -1.6386
 1910SOL    HW2 7885   3.803   1.170   0.315 -2.2025  0.2080  0.7011
 1911SOL     OW 7886   8.235   2.259   8.341 -0.2025  0.0133 -0.0762
 1911SOL    HW1 7887   8.247   2.164   8.340 -2.9147 -0.5152  2.2305
 1911SOL    HW2 7888   8.323   2.294   8.334  0.8567 -2.6133 -1.6297
 1912SOL     OW 7889   8.162   9.197   3.471 -0.0425  0.3819  0.3216
 1912SOL    HW1 7890   8.094   9.243   3.519  0.5115 -0.0201  1.5386
 1912SOL    HW2 7891   8.130   9.193   3.381 -1.3857  0.6356  0.7713
 1913SOL     OW 7892   5.565   4.298   0.248  0.0797  0.0693 -0.2539
 1913SOL    HW1 7893   5.549   4.223   0.305 -0.1107  0.5962  0.4069
 1913SOL    HW2 7894   5.659   4.314   0.254  0.1582 -0.2727 -0.5927
 1914SOL     OW 7895   2.028   1.745   6.379  0.2999 -0.3202 -0.2347
 1914SOL    HW1 7896   2.021   1.822   6.323 -0.3572  0.5950  1.0513
 1914SOL    HW2 7897   1.982   1.676   6.332 -0.4580  0.4917 -0.7101
 1915SOL     OW 7898   7.965   1.658   1.519 -0.2773  0.1821 -0.0148
 1915SOL    HW1 7899   8.028   1.611   1.574 -0.5405 -1.7873 -1.3036
 1915SOL    HW2 7900   8.011   1.670   1.436 -0.7424  0.9680 -0.1625
 1916SOL     OW 7901   3.931   4.535   1.692 -0.1280 -0.2071 -0.1476
 1916SOL    HW1 7902   4.025   4.544   1.677 -0.0484  0.8997  0.9069
 1916SOL    HW2 7903   3.891   4.557   1.608  0.5549 -1.3532 -0.8078
 1917SOL     OW 7904   5.399   6.208   6.737 -0.3322  0.0407 -0.1565
 1917SOL    HW1 7905   5.471   6.233   6.795  0.5116 -0.6711 -0.8799
 1917SOL    HW2 7906   5.421   6.247   6.653 -0.3401 -0.9293 -0.6149
 1918SOL     OW 7907   9.510   5.647   7.790  0.1939  0.0956 -0.3763
 1918SOL    HW1 7908   9.538   5.568   7.744 -2.4732 -1.1180 -0.1059
 1918SOL    HW2 7909   9.531   5.631   7.882  0.4242  0.0780 -0.4315
 1919SOL     OW 7910   0.354   5.938   9.167  0.0364  0.0333  0.1987
 1919SOL    HW1 7911   0.270   5.932   9.211  0.3507 -1.2021  0.6753
 1919SOL    HW2 7912   0.416   5.894   9.226  1.1198  1.3276  0.0891
 1920SOL     OW 7913   2.494   4.684   1.971 -0.1120 -0.8054 -0.0192
 1920SOL    HW1 7914   2.477   4.728   1.888 -1.4973 -3.0036 -0.9634
 1920SOL    HW2 7915   2.586   4.657   1.966  0.0606 -0.1544 -0.4383
 1921SOL     OW 7916   9.012   0.662   4.515  0.3533  0.5194 -0.1324
 1921SOL    HW1 7917   8.960   0.608   4.575 -0.5243  1.7635  0.2682
 1921SOL    HW2 7918   8.986   0.633   4.428 -0.3643  0.5260  0.0734
 1922SOL     OW 7919   1.516   6.579   4.207  0.2547 -0.5180  0.1668
 1922SOL    HW1 7920   1.570   6.649   4.245  0.0495 -0.2276 -0.0712
 1922SOL    HW2 7921   1.550   6.499   4.246  1.5010 -0.4400 -0.6787
 1923SOL     OW 7922   8.066   1.082   0.227 -0.0610  0.3079  0.1195
 1923SOL    HW1 7923   8.133   1.022   0.261  1.3043  0.9867 -1.2633
 1923SOL    HW2 7924   8.026   1.119   0.305 -0.0791 -1.4589  1.0014
 1924SOL     OW 7925   4.954   7.992   2.835  0.1263 -0.3942 -0.4301
 1924SOL    HW1 7926   4.918   8.050   2.768  1.6915  0.6546 -0.4157
 1924SOL    HW2 7927   4.938   8.039   2.917  0.1407 -0.6569 -0.2782
 1925SOL     OW 7928   6.670   3.788   8.135  0.1591 -0.6045  0.2450
 1925SOL    HW1 7929   6.658   3.693   8.133  1.0868 -0.7510 -2.3351
 1925SOL    HW2 7930   6.733   3.806   8.065  0.5177  1.8725  1.0859
 1926SOL     OW 7931   6.280   4.712   2.684 -0.1485  0.7956 -0.3143
 1926SOL    HW1 7932   6.226   4.688   2.609  2.1137 -1.7793 -1.3066
 1926SOL    HW2 7933   6.366   4.733   2.646  1.1923 -1.0012  1.4909
 1927SOL     OW 7934   3.219   6.984   2.653  0.4808 -0.3989  0.0092
 1927SOL    HW1 7935   3.135   6.961   2.613  0.6078  0.1985 -0.6058
 1927SOL    HW2 7936   3.280   6.918   2.621  0.4609 -0.2512 -0.3320
 1928SOL     OW 7937   7.907   7.894   3.324  0.1052 -0.0093  0.4296
 1928SOL    HW1 7938   7.926   7.916   3.415 -3.4625 -0.6708  1.4772
 1928SOL    HW2 7939   7.894   7.799   3.323  1.0058 -0.1580 -1.0158
 1929SOL     OW 7940   0.727   6.401   3.494 -0.1856  0.2478 -0.2766
 1929SOL    HW1 7941   0.685   6.482   3.465  2.8022  1.3317 -1.9437
 1929SOL    HW2 7942   0.689   6.333   3.439 -1.3146  0.8055 -0.2106
 1930SOL     OW 7943   9.004   6.460   7.696 -0.1201  0.2047  0.0482
 1930SOL    HW1 7944   9.048   6.534   7.739  0.4056  1.4502 -2.4043
 1930SOL    HW2 7945   8.992   6.490   7.605 -1.5548 -2.0602 -0.5797
 1931SOL     OW 7946   6.954   3.293   7.999 -0.0559  0.2229 -0.4362
 1931SOL    HW1 7947   6.930   3.203   7.976  0.7191  0.1605 -1.0872
 1931SOL    HW2 7948   7.003   3.285   8.080 -1.7515  0.3006  0.6324
 1932SOL     OW 7949   3.330   0.431   2.840 -0.3352  0.4521 -0.0828
 1932SOL    HW1 7950   3.362   0.457   2.754 -0.9373  0.5288 -0.2875
 1932SOL    HW2 7951   3.275   0.504   2.868  0.6444  0.8733  0.8063
 1933SOL     OW 7952   4.964   5.401   4.342 -0.5435  0.0501 -0.3624
 1933SOL    HW1 7953   4.884   5.349   4.343  0.4676 -1.5611  0.3873
 1933SOL    HW2 7954   5.024   5.353   4.284  0.6283 -0.0192  0.8396
 1934SOL     OW 7955   3.799   6.580   5.684  0.0146 -0.1262  0.2889
 1934SOL    HW1 7956   3.822   6.508   5.743 -1.7861 -0.3545  0.7651
 1934SOL    HW2 7957   3.721   6.619   5.723  1.2078  2.4458  0.3146
 1935SOL     OW 7958   6.606   8.027   8.359  0.0331 -0.7935 -0.1428
 1935SOL    HW1 7959   6.634   7.994   8.274 -2.2513  1.9309 -2.1085
 1935SOL    HW2 7960   6.572   7.950   8.404 -1.0931 -1.9261 -2.7559
 1936SOL     OW 7961   8.093   9.178   1.673  0.1453  0.2594  0.1630
 1936SOL    HW1 7962   8.004   9.156   1.646 -0.2022  0.9456  0.7127
 1936SOL    HW2 7963   8.101   9.272   1.655  1.3011 -0.0814 -1.3334
 1937SOL     OW 7964   1.111   0.950   3.995 -0.2916  0.0391 -0.2392
 1937SOL    HW1 7965   1.189   1.006   3.994 -0.4197  0.3971  2.2622
 1937SOL    HW2 7966   1.143   0.863   4.017 -0.5250  0.0413  0.1191
 1938SOL     OW 7967   9.326   8.089   1.999 -0.3021 -0.0084  0.0195
 1938SOL    HW1 7968   9.325   8.014   2.059  0.7138 -0.6450 -0.7294
 1938SOL    HW2 7969   9.401   8.073   1.942  0.2496  1.8415  0.1540
 1939SOL     OW 7970   2.125   2.375   8.575  0.2061  0.0371  0.5009
 1939SOL    HW1 7971   2.040   2.410   8.602 -0.2023  0.5576 -1.3028
 1939SOL    HW2 7972   2.121   2.282   8.597 -0.0707  0.4067  2.1444
 1940SOL     OW 7973   7.225   0.490   4.709  0.0547  0.3620  0.9358
 1940SOL    HW1 7974   7.206   0.543   4.786 -1.6262  2.7874 -0.9934
 1940SOL    HW2 7975   7.286   0.544   4.658  2.0608 -1.6953  0.9789
 1941SOL     OW 7976   7.671   5.209   4.966  0.5331  0.3492 -0.0533
 1941SOL    HW1 7977   7.576   5.207   4.979  0.2395  1.1176 -1.8096
 1941SOL    HW2 7978   7.707   5.199   5.054 -1.1704  0.1284  0.6605
 1942SOL     OW 7979   2.250   6.706   0.567  0.0185  0.4907 -0.2396
 1942SOL    HW1 7980   2.298   6.729   0.487  0.0399  0.3979 -0.2535
 1942SOL    HW2 7981   2.176   6.653   0.536 -0.3330  0.9911 -0.2600
 1943SOL     OW 7982   8.885   7.137   9.189 -0.1588 -0.6286  0.5126
 1943SOL    HW1 7983   8.909   7.052   9.152  1.0567 -0.1351  0.1035
 1943SOL    HW2 7984   8.841   7.116   9.271 -0.0439 -1.6654  0.3231
 1944SOL     OW 7985   3.991   2.047   6.411 -0.1871 -0.0214 -0.5577
 1944SOL    HW1 7986   3.956   2.135   6.409  0.8864  0.4951  0.9978
 1944SOL    HW2 7987   4.080   2.055   6.375  0.2694 -0.2468  0.4600
 1945SOL     OW 7988   1.592   3.543   1.978  0.3677  0.8807 -0.4973
 1945SOL    HW1 7989   1.641   3.465   2.001  0.3026  1.7215  3.0872
 1945SOL    HW2 7990   1.652   3.593   1.922  1.0030 -0.9423 -1.5350
 1946SOL     OW 7991   0.611   4.870   1.970 -0.0338 -0.0167 -0.3315
 1946SOL    HW1 7992   0.649   4.845   1.886  0.4016  0.4061 -0.2678
 1946SOL    HW2 7993   0.685   4.903   2.020 -0.4078  0.3818 -0.0333
 1947SOL     OW 7994   0.648   7.915   6.459  0.5977 -0.1677 -0.5660
 1947SOL    HW1 7995   0.642   7.883   6.549  2.3852  0.5083 -0.1856
 1947SOL    HW2 7996   0.610   8.003   6.462  0.9300 -0.0290 -0.4051
 1948SOL     OW 7997   0.791   2.021   1.441 -0.3075  0.0487  0.4686
 1948SOL    HW1 7998   0.869   2.073   1.460  0.0454 -0.8394  1.5370
 1948SOL    HW2 7999   0.813   1.933   1.471 -1.8842 -0.1261  1.2116
 1949SOL     OW 8000   6.297   6.656   4.258 -0.1126 -0.2575  0.0438
 1949SOL    HW1 8001   6.258   6.717   4.195  0.1538 -2.0138 -1.9515
 1949SOL    HW2 8002   6.361   6.709   4.306 -0.9185  1.3492 -0.5640
 1950SOL     OW 8003   7.783   4.931   3.506 -0.0270  0.4105  0.1484
 1950SOL    HW1 8004   7.761   4.847   3.467 -0.1750  0.3076  0.4522
 1950SOL    HW2 8005   7.710   4.988   3.483  0.6982  0.8293 -1.1984
 1951SOL     OW 8006   6.082   1.082   6.518 -0.2073 -0.5374  0.2536
 1951SOL    HW1 8007   6.075   1.065   6.612 -0.2053  0.3615  0.4262
 1951SOL    HW2 8008   6.175   1.094   6.501 -0.2260 -0.4977  0.1735
 1952SOL     OW 8009   0.929   2.891   2.997  0.0557  0.2078  0.0151
 1952SOL    HW1 8010   0.890   2.971   3.032  0.3137  0.2284  0.2604
 1952SOL    HW2 8011   0.963   2.846   3.075 -3.2388 -1.9078  0.4378
 1953SOL     OW 8012   3.198   7.913   3.786  0.3996  0.2241  0.0682
 1953SOL    HW1 8013   3.219   7.984   3.846  0.7582  1.4851 -1.4707
 1953SOL    HW2 8014   3.267   7.848   3.800  1.3334  1.1711  0.0055
 1954SOL     OW 8015   8.270   1.806   0.951  0.4970  0.1799 -0.1620
 1954SOL    HW1 8016   8.354   1.819   0.996  1.3958  2.2625 -2.2091
 1954SOL    HW2 8017   8.204   1.838   1.013  1.2913 -0.4185  1.0377
 1955SOL     OW 8018   4.313   6.230   0.413 -0.5363  0.2594  0.3737
 1955SOL    HW1 8019   4.387   6.279   0.377  0.9217 -0.4752  2.2242
 1955SOL    HW2 8020   4.317   6.145   0.369 -1.2061  0.7138 -0.5976
 1956SOL     OW 8021   5.572   1.437   0.511  0.2080  0.2724 -0.5436
 1956SOL    HW1 8022   5.570   1.374   0.439 -0.8637  0.5717 -0.7852
 1956SOL    HW2 8023   5.483   1.439   0.545  0.2606  1.5314 -0.4354
 1957SOL     OW 8024   6.146   4.614   5.778  0.0856 -0.1265 -0.0385
 1957SOL    HW1 8025   6.235   4.588   5.804  0.4605 -0.3173 -1.4386
 1957SOL    HW2 8026   6.153   4.707   5.757 -0.5569  0.4122  1.9087
 1958SOL     OW 8027   5.815   6.084   8.267 -0.3709 -0.2068  0.4707
 1958SOL    HW1 8028   5.846   6.169   8.298 -1.8264  0.2915  0.6377
 1958SOL    HW2 8029   5.893   6.042   8.229  0.3075  1.3386  0.0746
 1959SOL     OW 8030   1.192   8.991   5.106  0.0447 -0.6054  0.5209
 1959SOL    HW1 8031   1.202   8.969   5.199  0.7272 -1.3113  0.2928
 1959SOL    HW2 8032   1.240   8.922   5.060 -2.1156 -1.5395 -0.4747
 1960SOL     OW 8033   7.054   1.266   1.146 -0.0740  0.2918  0.5354
 1960SOL    HW1 8034   7.091   1.332   1.205  1.0742 -2.3730  3.0343
 1960SOL    HW2 8035   7.127   1.205   1.131 -0.8268 -0.0073 -2.4025
 1961SOL     OW 8036   8.499   1.128   8.210  0.6200 -0.4318  0.3117
 1961SOL    HW1 8037   8.502   1.142   8.305 -0.7747  1.9342  0.0898
 1961SOL    HW2 8038   8.432   1.060   8.199 -0.1639  0.1981  0.9921
 1962SOL     OW 8039   1.506   5.233   8.339 -0.1593  0.1231  0.0906
 1962SOL    HW1 8040   1.580   5.199   8.288  1.3618  1.8289  1.0344
 1962SOL    HW2 8041   1.460   5.291   8.278 -0.4386 -0.5669 -0.3617
 1963SOL     OW 8042   1.671   9.226   5.811 -0.4320 -0.0077 -0.0929
 1963SOL    HW1 8043   1.750   9.271   5.781  0.8700 -1.5912  0.7973
 1963SOL    HW2 8044   1.688   9.207   5.903 -2.8107  1.5465  0.7374
 1964SOL     OW 8045   1.075   6.644   4.066 -0.1555 -0.0349 -0.0187
 1964SOL    HW1 8046   1.131   6.578   4.025 -0.0455  0.5250 -0.7848
 1964SOL    HW2 8047   1.082   6.625   4.160  0.3331 -0.7466 -0.1853
 1965SOL     OW 8048   8.991   1.784   8.525 -0.0674  0.0509  0.0575
 1965SOL    HW1 8049   8.919   1.721   8.530  1.2877 -1.6514 -0.6020
 1965SOL    HW2 8050   9.027   1.787   8.614 -0.5665  0.4391  0.2484
 1966SOL     OW 8051   5.275   2.902   4.688  0.2798  0.0280 -0.5387
 1966SOL    HW1 8052   5.287   2.956   4.610  1.0107 -1.1029 -1.2389
 1966SOL    HW2 8053   5.285   2.812   4.657 -0.1475 -0.4863  0.7324
 1967SOL     OW 8054   1.679   3.855   0.290 -0.0358 -0.1453  0.2427
 1967SOL    HW1 8055   1.746   3.900   0.238 -2.1484  2.1313 -0.6883
 1967SOL    HW2 8056   1.657   3.917   0.360 -1.1661 -0.8496  0.5382
 1968SOL     OW 8057   7.838   5.486   1.575  0.5086 -0.1409 -0.2555
 1968SOL    HW1 8058   7.906   5.547   1.546  0.5457 -0.0406  0.0397
 1968SOL    HW2 8059   7.761   5.541   1.589 -0.4253 -0.5729 -3.0521
 1969SOL     OW 8060   6.817   2.686   5.316 -0.7404  0.6008  0.3309
 1969SOL    HW1 8061   6.833   2.621   5.248 -0.5204 -0.0400  0.9814
 1969SOL    HW2 8062   6.834   2.770   5.273  0.9393  0.1307  0.0138
 1970SOL     OW 8063   3.838   0.671   8.920  0.1532 -0.1900 -0.2530
 1970SOL    HW1 8064   3.827   0.753   8.872 -0.1735 -0.6140 -0.9069
 1970SOL    HW2 8065   3.916   0.685   8.973  1.5282 -0.3150 -2.1660
 1971SOL     OW 8066   7.054   3.941   8.640 -0.1160 -0.3620 -0.5908
 1971SOL    HW1 8067   7.081   4.031   8.618 -0.0224  0.1304  1.3605
 1971SOL    HW2 8068   6.977   3.926   8.586 -0.9750  1.4542  0.0195
 1972SOL     OW 8069   4.744   7.363   1.522 -0.4441 -0.2062  0.2593
 1972SOL    HW1 8070   4.797   7.283   1.515 -1.3596 -0.7761 -0.4417
 1972SOL    HW2 8071   4.659   7.337   1.488 -0.8826  0.9634  0.4531
 1973SOL     OW 8072   0.405   7.022   8.590  0.5730 -0.1107  0.4229
 1973SOL    HW1 8073   0.475   6.958   8.606  0.7472 -0.5311 -1.7266
 1973SOL    HW2 8074   0.331   6.970   8.560 -0.2636  0.4587  1.4475
 1974SOL     OW 8075   0.880   2.460   5.331  0.6251  0.3366  0.1968
 1974SOL    HW1 8076   0.894   2.366   5.347 -1.1864  0.3187  2.1115
 1974SOL    HW2 8077   0.788   2.475   5.354  0.4682  2.3335 -1.4661
 1975SOL     OW 8078   5.140   9.220   7.201  0.6935 -0.0337 -0.2423
 1975SOL    HW1 8079   5.044   9.229   7.204  0.7304  0.2719  2.2109
 1975SOL    HW2 8080   5.171   9.300   7.160 -0.0843 -0.2487 -1.2994
 1976SOL     OW 8081   7.522   2.175   4.731 -0.3112 -0.0300 -0.1210
 1976SOL    HW1 8082   7.467   2.146   4.658 -0.7122 -1.9695  0.8946
 1976SOL    HW2 8083   7.488   2.129   4.807  0.7905  1.1114  1.1253
 1977SOL     OW 8084   4.404   4.792   8.836  0.0613  0.2201  0.1843
 1977SOL    HW1 8085   4.479   4.843   8.868 -1.4744  2.0531  1.0592
 1977SOL    HW2 8086   4.372   4.746   8.914 -1.6275  2.0144  0.6194
 1978SOL     OW 8087   6.503   1.628   1.071  0.2191  0.2939  0.7698
 1978SOL    HW1 8088   6.458   1.575   1.137  0.1732 -0.7559 -0.0764
 1978SOL    HW2 8089   6.537   1.703   1.120 -1.6209  0.6479  1.5960
 1979SOL     OW 8090   6.292   7.839   7.793  0.2204 -0.2427  0.0388
 1979SOL    HW1 8091   6.198   7.838   7.811  0.4132 -1.1288  1.0236
 1979SOL    HW2 8092   6.299   7.801   7.705 -0.3156 -0.5539  0.1224
 1980SOL     OW 8093   3.221   0.095   4.554  0.1465  0.1080  0.1015
 1980SOL    HW1 8094   3.266   0.050   4.482  0.2347 -1.1545  0.9125
 1980SOL    HW2 8095   3.180   0.024   4.604 -0.4936  1.0235  0.8962
 1981SOL     OW 8096   6.334   9.362   1.786  0.0853  0.3489 -0.1882
 1981SOL    HW1 8097   6.294   9.379   1.700 -0.9303 -3.0162 -0.5582
 1981SOL    HW2 8098   6.275   9.405   1.848 -1.4575 -0.4070 -1.0363
 1982SOL     OW 8099   7.577   0.388   7.038  0.0319 -0.0933 -0.1913
 1982SOL    HW1 8100   7.616   0.476   7.038  0.8916 -0.4650 -0.0544
 1982SOL    HW2 8101   7.579   0.361   7.129 -2.3112  0.6117  0.1517
 1983SOL     OW 8102   8.182   4.108   3.547 -0.1791 -0.1192 -0.1459
 1983SOL    HW1 8103   8.143   4.184   3.591 -0.4467  0.3819 -1.2094
 1983SOL    HW2 8104   8.254   4.144   3.496  0.9304 -0.8702  0.8221
 1984SOL     OW 8105   8.863   1.806   9.353  0.3187  0.7884  0.1460
 1984SOL    HW1 8106   8.810   1.759   9.418  1.7129 -0.5194  0.3824
 1984SOL    HW2 8107   8.893   1.739   9.292  1.7975  1.4647  0.0764
 1985SOL     OW 8108   1.812   8.612   8.052  0.0797  0.7637  0.2004
 1985SOL    HW1 8109   1.765   8.670   7.992 -0.3259  0.5877  0.3431
 1985SOL    HW2 8110   1.858   8.671   8.112 -1.2315  0.9666  1.0590
 1986SOL     OW 8111   4.823   5.466   6.309 -0.0304  0.3812 -0.5998
 1986SOL    HW1 8112   4.794   5.375   6.309  1.8109 -0.2610  1.0804
 1986SOL    HW2 8113   4.826   5.490   6.216 -0.5204 -1.2552 -1.0701
 1987SOL     OW 8114   2.262   2.141   5.091 -0.1222  0.2153  0.2029
 1987SOL    HW1 8115   2.194   2.133   5.158 -1.2267  0.5797 -0.8392
 1987SOL    HW2 8116   2.278   2.051   5.063  1.7828 -0.1814  2.2762
 1988SOL     OW 8117   5.004   0.684   6.161  0.1227  0.1966 -0.2955
 1988SOL    HW1 8118   5.093   0.671   6.193 -0.4629 -0.6147  1.0885
 1988SOL    HW2 8119   4.978   0.597   6.129 -0.7747 -0.0114  0.9450
 1989SOL     OW 8120   4.774   0.817   2.475  0.1533  0.2764 -0.0846
 1989SOL    HW1 8121   4.766   0.911   2.457 -1.0576  0.0279 -0.9750
 1989SOL    HW2 8122   4.684   0.785   2.479  0.5374 -0.7901  0.5794
 1990SOL     OW 8123   5.807   8.667   4.129 -0.1054 -0.6778  0.1340
 1990SOL    HW1 8124   5.716   8.669   4.157 -0.6910 -2.3383 -1.4685
 1990SOL    HW2 8125   5.816   8.740   4.069  0.1053  0.4893  1.5300
 1991SOL     OW 8126   5.296   2.104   4.391 -0.2270  0.0163  0.1858
 1991SOL    HW1 8127   5.257   2.167   4.330 -0.3257 -0.2632 -0.0377
 1991SOL    HW2 8128   5.381   2.081   4.352  0.1000  0.5068  0.5946
 1992SOL     OW 8129   3.598   7.752   8.098 -0.2144  0.3655  0.0806
 1992SOL    HW1 8130   3.672   7.809   8.078 -0.0572 -0.0638 -0.6232
 1992SOL    HW2 8131   3.617   7.717   8.185  1.2019 -0.9360 -0.7063
 1993SOL     OW 8132   4.881   1.396   9.311 -0.1846  0.0910  0.2198
 1993SOL    HW1 8133   4.844   1.393   9.399 -0.6445 -0.8593  0.0128
 1993SOL    HW2 8134   4.884   1.304   9.283 -0.0230  0.3727 -0.7418
 1994SOL     OW 8135   6.951   5.105   0.708  0.2871  0.1837  0.2372
 1994SOL    HW1 8136   7.025   5.165   0.703 -0.1369  0.7313  0.3686
 1994SOL    HW2 8137   6.985   5.027   0.752  1.6199 -0.8777 -2.4484
 1995SOL     OW 8138   8.259   4.591   5.838  0.3389  0.2481 -0.6000
 1995SOL    HW1 8139   8.348   4.563   5.860  0.1495 -0.4391 -0.6926
 1995SOL    HW2 8140   8.238   4.657   5.905  0.2577 -0.8909  0.5234
 1996SOL     OW 8141   7.776   3.333   5.916 -0.2052  0.0177 -0.1401
 1996SOL    HW1 8142   7.747   3.282   5.840 -1.1385 -1.3080  1.0518
 1996SOL    HW2 8143   7.812   3.269   5.977 -2.6904  0.4711  2.0079
 1997SOL     OW 8144   2.281   7.394   6.911  0.4162 -0.1969  0.3776
 1997SOL    HW1 8145   2.233   7.370   6.990  1.0024  1.7689  1.4087
 1997SOL    HW2 8146   2.370   7.360   6.926  0.5103  0.1201  0.5620
 1998SOL     OW 8147   0.127   2.571   0.034  0.0513 -0.4248 -0.4079
 1998SOL    HW1 8148   0.161   2.637  -0.027 -1.2399 -0.9954 -1.8049
 1998SOL    HW2 8149   0.180   2.493   0.017  0.8211 -0.1011  0.4370
 1999SOL     OW 8150   6.844   3.885   3.024 -0.0049 -0.4945 -0.4790
 1999SOL    HW1 8151   6.912   3.880   2.957 -0.3750 -1.1672 -0.8154
 1999SOL    HW2 8152   6.857   3.970   3.065  0.2415 -0.0848 -1.3879
 2000SOL     OW 8153   8.662   6.587   8.525 -0.0099  0.2324  0.5560
 2000SOL    HW1 8154   8.707   6.665   8.493 -0.0037  0.4827  1.1525
 2000SOL    HW2 8155   8.571   6.616   8.538 -0.1410 -0.0225  0.2217
 2001SOL     OW 8156   9.515   5.664   6.489  0.2669  0.2131 -0.1520
 2001SOL    HW1 8157   9.439   5.672   6.431  0.3374  0.8731 -0.1602
 2001SOL    HW2 8158   9.573   5.735   6.462  0.3053  0.5294  0.7285
 2002SOL     OW 8159   7.745   1.350   0.620 -0.3092 -0.2577 -0.3386
 2002SOL    HW1 8160   7.720   1.350   0.712 -2.4471  1.3352 -0.8535
 2002SOL    HW2 8161   7.723   1.437   0.589 -1.0313 -1.2039 -2.7017
 2003SOL     OW 8162   8.035   4.515   2.184 -0.1191 -0.5115 -0.5772
 2003SOL    HW1 8163   7.942   4.503   2.164  0.1897 -0.5983 -2.0315
 2003SOL    HW2 8164   8.075   4.538   2.101  1.0971  0.0054  0.1248
 2004SOL     OW 8165   3.640   2.090   6.279 -0.0751 -0.0855 -0.2779
 2004SOL    HW1 8166   3.674   2.027   6.341 -1.1584 -1.5688 -1.1199
 2004SOL    HW2 8167   3.612   2.164   6.332 -0.6029 -1.1416  0.9591
 2005SOL     OW 8168   7.109   4.844   8.278 -0.0989  0.0344  0.2178
 2005SOL    HW1 8169   7.152   4.832   8.363 -0.7329 -1.7843  0.3438
 2005SOL    HW2 8170   7.025   4.885   8.300  0.5560  1.4234  0.2208
 2006SOL     OW 8171   5.299   7.791   2.822  0.2464  0.0259  0.3908
 2006SOL    HW1 8172   5.354   7.761   2.894  0.4495  0.9683  0.6415
 2006SOL    HW2 8173   5.261   7.711   2.785  1.7235 -0.6385  0.2551
 2007SOL     OW 8174   4.153   2.256   3.636  0.1714 -0.1216 -0.5805
 2007SOL    HW1 8175   4.064   2.290   3.628 -0.1931 -0.5228  1.2127
 2007SOL    HW2 8176   4.141   2.166   3.669  1.2372  0.0189  0.2512
 2008SOL     OW 8177   6.768   1.675   9.266 -0.1671  0.5092  0.0745
 2008SOL    HW1 8178   6.710   1.607   9.232  0.8339 -1.3027  1.7953
 2008SOL    HW2 8179   6.742   1.685   9.358  1.4290  0.5131  0.5512
 2009SOL     OW 8180   4.677   8.249   6.084  0.3587 -0.0141 -0.4315
 2009SOL    HW1 8181   4.765   8.268   6.115 -0.4395  0.3066  1.8239
 2009SOL    HW2 8182   4.648   8.176   6.138 -1.0518  0.4116 -0.5739
 2010SOL     OW 8183   0.822   1.253   1.194 -0.3004 -0.3712 -0.0863
 2010SOL    HW1 8184   0.810   1.210   1.278  1.2092 -3.3262 -1.2066
 2010SOL    HW2 8185   0.743   1.306   1.182 -0.5954  0.0874  3.0743
 2011SOL     OW 8186   7.784   1.814   6.053  0.6724  0.1678  0.3698
 2011SOL    HW1 8187   7.727   1.832   5.978 -0.6438 -1.7473  0.8372
 2011SOL    HW2 8188   7.868   1.789   6.013  0.5645  0.9712 -0.3947
 2012SOL     OW 8189   8.523   7.056   1.324 -0.2502 -0.3474  0.5590
 2012SOL    HW1 8190   8.518   6.960   1.314  2.4582 -0.7903  2.2858
 2012SOL    HW2 8191   8.517   7.090   1.234  1.1071 -2.3552 -0.3836
 2013SOL     OW 8192   5.201   9.361   3.105 -0.1877 -0.3089 -0.6264
 2013SOL    HW1 8193   5.210   9.274   3.065 -0.4596  0.3011 -2.0946
 2013SOL    HW2 8194   5.122   9.397   3.064  0.2925  0.8754 -0.5301
 2014SOL     OW 8195   2.752   2.072   0.508 -0.0781  0.7180  0.1851
 2014SOL    HW1 8196   2.781   1.984   0.535  2.3358  1.6857  1.0146
 2014SOL    HW2 8197   2.703   2.105   0.583  0.8575  0.8591  0.7555
 2015SOL     OW 8198   0.460   3.367   8.784 -0.2217 -0.5054  0.2534
 2015SOL    HW1 8199   0.433   3.404   8.701  0.1876 -1.2020 -0.2034
 2015SOL    HW2 8200   0.549   3.399   8.797 -0.9722  1.2758  1.4484
 2016SOL     OW 8201   9.002   5.790   7.798 -0.1095  0.6496  0.4155
 2016SOL    HW1 8202   9.064   5.766   7.866 -1.5309 -3.2654  0.5809
 2016SOL    HW2 8203   9.056   5.818   7.724  1.6251  0.8204  1.6950
 2017SOL     OW 8204   0.283   4.813   1.404 -0.3812 -0.4487 -0.0541
 2017SOL    HW1 8205   0.376   4.817   1.429 -0.0136 -1.6559 -1.1495
 2017SOL    HW2 8206   0.278   4.863   1.323 -0.8560  0.2496  0.3913
 2018SOL     OW 8207   8.526   7.986   6.595 -0.3952 -0.2208 -0.4525
 2018SOL    HW1 8208   8.531   7.972   6.500  0.0502 -0.8355 -0.3458
 2018SOL    HW2 8209   8.442   7.947   6.621 -0.8725  0.6276 -0.7018
 2019SOL     OW 8210   2.144   6.625   1.598 -0.1488 -0.1888 -0.0478
 2019SOL    HW1 8211   2.075   6.691   1.590 -1.1208 -1.0637  0.7395
 2019SOL    HW2 8212   2.177   6.613   1.509 -1.0054  0.2725 -0.4352
 2020SOL     OW 8213   9.419   5.685   2.741 -0.2550 -0.2268  0.4233
 2020SOL    HW1 8214   9.361   5.753   2.706  0.6450  0.8499  0.9845
 2020SOL    HW2 8215   9.393   5.605   2.693 -1.9605  0.2805  0.4215
 2021SOL     OW 8216   3.041   3.412   7.333 -0.1515  0.0685 -0.3119
 2021SOL    HW1 8217   2.946   3.398   7.326  0.0821 -1.8919  0.0983
 2021SOL    HW2 8218   3.049   3.499   7.372 -1.8276 -0.6128  1.7001
 2022SOL     OW 8219   1.074   4.605   0.900 -0.0719  0.1172  0.3856
 2022SOL    HW1 8220   1.076   4.509   0.900  1.9308  0.1050 -0.9774
 2022SOL    HW2 8221   1.152   4.631   0.852 -1.3482  2.4489 -0.5945
 2023SOL     OW 8222   1.799   7.585   8.132 -0.3028 -0.0414  0.9512
 2023SOL    HW1 8223   1.858   7.587   8.207  0.5317 -0.9760  0.3506
 2023SOL    HW2 8224   1.723   7.535   8.162 -0.7446  1.0222  1.6752
 2024SOL     OW 8225   1.350   8.443   6.718  0.3728 -0.3043  0.3405
 2024SOL    HW1 8226   1.431   8.395   6.737  0.7382  0.4288  0.6611
 2024SOL    HW2 8227   1.309   8.393   6.647  0.1436 -1.7777  1.4494
 2025SOL     OW 8228   3.683   0.960   1.190  0.0407  0.1066 -0.1725
 2025SOL    HW1 8229   3.711   0.895   1.126 -0.3368  0.1612 -0.3963
 2025SOL    HW2 8230   3.764   1.002   1.219  0.7041 -2.5761  2.3360
 2026SOL     OW 8231   2.621   0.629   4.077  0.0846 -0.0780  0.1582
 2026SOL    HW1 8232   2.595   0.616   4.168  0.3152  1.3525  0.4535
 2026SOL    HW2 8233   2.640   0.541   4.044 -1.6017 -0.7880  0.9923
 2027SOL     OW 8234   7.829   8.189   8.610  0.2135  0.1865  0.3377
 2027SOL    HW1 8235   7.837   8.136   8.531  1.1389  0.5919  0.1420
 2027SOL    HW2 8236   7.896   8.154   8.669  0.3734  0.6979  0.4626
 2028SOL     OW 8237   0.199   5.511   4.232 -0.3719 -0.3515  0.0321
 2028SOL    HW1 8238   0.264   5.461   4.182 -2.0148 -2.3290 -0.2567
 2028SOL    HW2 8239   0.186   5.461   4.312 -2.4793 -0.7348 -0.5142
 2029SOL     OW 8240   7.613   0.744   6.691 -0.1889 -0.8025  0.4825
 2029SOL    HW1 8241   7.658   0.817   6.733  0.9914 -0.4864 -1.2172
 2029SOL    HW2 8242   7.521   0.754   6.718 -0.1844  1.7245 -0.1948
 2030SOL     OW 8243   1.770   9.442   6.384  0.3632  0.3954  0.2758
 2030SOL    HW1 8244   1.782   9.351   6.412  0.0045  0.2876  0.0771
 2030SOL    HW2 8245   1.855   9.466   6.346  0.2467 -0.0899 -0.3163
 2031SOL     OW 8246   1.379   1.474   8.771  0.0796  0.4415  0.2102
 2031SOL    HW1 8247   1.350   1.495   8.859 -0.7133  0.2536 -0.0036
 2031SOL    HW2 8248   1.299   1.456   8.722  0.5659 -0.5271 -0.2725
 2032SOL     OW 8249   0.129   2.355   4.658 -0.4821 -0.4107  0.3408
 2032SOL    HW1 8250   0.047   2.371   4.704  0.4460  1.1592  1.5974
 2032SOL    HW2 8251   0.186   2.427   4.687  0.2943  0.4996 -3.0257
 2033SOL     OW 8252   8.837   8.839   6.988  0.2250 -0.0345  0.0344
 2033SOL    HW1 8253   8.913   8.790   6.957  0.6615  0.4879  0.2675
 2033SOL    HW2 8254   8.813   8.796   7.070  1.2745  0.7850  0.8011
 2034SOL     OW 8255   6.567   0.258   7.161  0.0376 -0.0198 -0.2635
 2034SOL    HW1 8256   6.605   0.337   7.124  0.8879  0.2497  1.1332
 2034SOL    HW2 8257   6.642   0.207   7.192 -0.4872 -1.4297 -1.2244
 2035SOL     OW 8258   2.294   8.992   6.736  0.0323  0.1722 -0.1519
 2035SOL    HW1 8259   2.251   8.913   6.703  1.7874 -0.4574 -1.0596
 2035SOL    HW2 8260   2.233   9.027   6.801 -1.5967 -0.9290 -1.0126
 2036SOL     OW 8261   5.902   9.079   7.791 -0.3618  0.0258 -0.4055
 2036SOL    HW1 8262   5.815   9.118   7.793 -0.0914  0.6373 -0.2814
 2036SOL    HW2 8263   5.936   9.090   7.879 -0.0525  0.0305 -0.5236
 2037SOL     OW 8264   2.765   8.969   0.540 -0.2054 -0.2325  0.3971
 2037SOL    HW1 8265   2.711   9.013   0.605  2.2457  0.7581  1.8889
 2037SOL    HW2 8266   2.721   8.987   0.457 -1.4607  1.5821  1.3825
 2038SOL     OW 8267   0.252   1.174   3.333 -0.1714 -0.2457 -0.3499
 2038SOL    HW1 8268   0.347   1.159   3.332 -0.2238 -0.7307  0.7436
 2038SOL    HW2 8269   0.214   1.087   3.334 -0.6505 -0.0535 -1.1336
 2039SOL     OW 8270   3.539   5.505   1.428 -0.1403  0.3578 -0.3899
 2039SOL    HW1 8271   3.521   5.413   1.450  0.5900 -0.1411 -1.7859
 2039SOL    HW2 8272   3.453   5.546   1.425 -0.5186 -0.4029 -0.2577
 2040SOL     OW 8273   6.982   7.222   9.168  0.5361 -0.1672 -0.0257
 2040SOL    HW1 8274   7.019   7.227   9.256 -0.5777 -0.4401  0.4764
 2040SOL    HW2 8275   6.997   7.309   9.131  0.1382  0.2757  0.8114
 2041SOL     OW 8276   8.970   4.650   4.498  0.1656 -0.1270  0.0654
 2041SOL    HW1 8277   8.900   4.653   4.432 -0.4461 -3.1787  0.4024
 2041SOL    HW2 8278   8.924   4.644   4.582  0.8791  0.5074  0.5081
 2042SOL     OW 8279   1.654   3.719   6.577 -0.4078 -0.4075  0.1118
 2042SOL    HW1 8280   1.683   3.764   6.498 -1.8879 -0.3874 -0.4558
 2042SOL    HW2 8281   1.585   3.776   6.613 -0.4909 -0.9462  0.8258
 2043SOL     OW 8282   1.772   8.230   9.603  0.3819  0.2429  1.1135
 2043SOL    HW1 8283   1.729   8.153   9.640  0.0806  0.0781  0.4424
 2043SOL    HW2 8284   1.724   8.304   9.638 -0.1325  0.0772  0.7734
 2044SOL     OW 8285   2.807   6.892   4.792  0.5376  0.4324 -0.4164
 2044SOL    HW1 8286   2.760   6.972   4.814  1.1047 -0.1145  3.5475
 2044SOL    HW2 8287   2.753   6.822   4.830  2.2297 -0.6063  0.2052
 2045SOL     OW 8288   2.129   6.778   0.275 -0.1612 -0.5401  0.1770
 2045SOL    HW1 8289   2.048   6.737   0.306 -0.1295  0.0863  1.0944
 2045SOL    HW2 8290   2.136   6.859   0.324 -0.2352  0.6206 -1.6334
 2046SOL     OW 8291   0.168   3.806   7.913  0.1839  0.0086  0.1048
 2046SOL    HW1 8292   0.134   3.836   7.997  1.6110 -1.0597  1.1172
 2046SOL    HW2 8293   0.263   3.815   7.921  0.3415 -0.0443 -1.4361
 2047SOL     OW 8294   4.448   1.698   1.802 -0.1463 -0.0440  0.2414
 2047SOL    HW1 8295   4.510   1.643   1.754  2.0568  2.4640 -0.0233
 2047SOL    HW2 8296   4.401   1.637   1.858  0.6840 -2.4258 -1.4669
 2048SOL     OW 8297   7.422   2.128   3.482  0.4975  0.1892  0.3258
 2048SOL    HW1 8298   7.401   2.036   3.464 -1.7160  0.2060  2.2807
 2048SOL    HW2 8299   7.508   2.142   3.442 -0.6693 -1.6545 -3.2913
 2049SOL     OW 8300   0.764   8.508   3.809  0.8192  0.0776  0.1516
 2049SOL    HW1 8301   0.782   8.451   3.735 -0.4487 -0.5340  0.2827
 2049SOL    HW2 8302   0.847   8.552   3.826  1.3202 -0.3027 -1.1644
 2050SOL     OW 8303   1.495   0.986   2.723  0.0737 -0.7538 -0.5455
 2050SOL    HW1 8304   1.586   1.005   2.698  0.7207 -1.8586  0.8172
 2050SOL    HW2 8305   1.503   0.921   2.793 -1.6655  0.9617  1.3880
 2051SOL     OW 8306   6.968   7.565   8.193  0.8587  0.1150  0.1474
 2051SOL    HW1 8307   6.961   7.479   8.234  2.1276 -0.7282 -1.2979
 2051SOL    HW2 8308   6.924   7.555   8.109 -0.5796  1.4390  0.7009
 2052SOL     OW 8309   7.116   0.001   9.155  0.2429 -0.2708 -0.0151
 2052SOL    HW1 8310   7.064   0.072   9.117  0.9091 -1.1796 -2.8361
 2052SOL    HW2 8311   7.175   0.045   9.216  0.8434  1.6883 -1.8803
 2053SOL     OW 8312   5.965   4.621   3.470 -0.2133 -0.1364 -0.3155
 2053SOL    HW1 8313   5.896   4.568   3.430 -1.1665  1.3121 -0.6945
 2053SOL    HW2 8314   5.948   4.615   3.564 -2.1408  1.7392 -0.4561
 2054SOL     OW 8315   7.974   3.911   0.044 -0.1508 -0.0938 -0.6118
 2054SOL    HW1 8316   7.932   3.997   0.052  0.3916  0.2007 -0.8992
 2054SOL    HW2 8317   7.965   3.888  -0.049  0.9612  0.3002 -0.8203
 2055SOL     OW 8318   2.268   6.953   7.089  0.7433 -0.6408  0.4049
 2055SOL    HW1 8319   2.182   6.988   7.111  0.6220  0.4624 -1.5883
 2055SOL    HW2 8320   2.301   6.915   7.171 -0.9868  0.2489  1.5624
 2056SOL     OW 8321   5.251   4.784   1.548 -0.5124  0.2391  0.7378
 2056SOL    HW1 8322   5.192   4.841   1.498  0.2009 -2.1060 -3.2511
 2056SOL    HW2 8323   5.192   4.735   1.606 -1.9021  1.0243  0.0493
 2057SOL     OW 8324   8.138   7.276   8.430 -0.1030 -0.8017 -0.3627
 2057SOL    HW1 8325   8.063   7.221   8.452 -1.6784  2.1965  2.7115
 2057SOL    HW2 8326   8.099   7.359   8.400  2.0657 -0.0902 -1.4666
 2058SOL     OW 8327   8.059   7.796   5.434  0.2185  0.0788 -0.2621
 2058SOL    HW1 8328   8.067   7.753   5.348 -0.0919  0.4734 -0.4930
 2058SOL    HW2 8329   8.116   7.745   5.491 -0.3074 -0.7743 -0.4775
 2059SOL     OW 8330   7.400   0.301   0.646 -0.2552  0.4661 -0.0691
 2059SOL    HW1 8331   7.431   0.382   0.606 -0.7443  0.6563 -0.0624
 2059SOL    HW2 8332   7.387   0.322   0.738 -1.0122  0.5685 -0.1903
 2060SOL     OW 8333   1.394   9.204   0.794 -0.0133 -0.5284  0.2604
 2060SOL    HW1 8334   1.424   9.293   0.772  0.8562 -1.2436 -1.6625
 2060SOL    HW2 8335   1.303   9.215   0.820  0.2193  0.9896  0.5269
 2061SOL     OW 8336   4.459   9.539   0.663  0.3452 -0.1582  0.0965
 2061SOL    HW1 8337   4.382   9.486   0.678  0.0413  0.0979 -0.5161
 2061SOL    HW2 8338   4.439   9.589   0.583  0.5126  1.0551  0.7814
 2062SOL     OW 8339   6.652   6.282   0.691  0.8234 -0.0949 -0.2639
 2062SOL    HW1 8340   6.556   6.277   0.687  0.8148 -1.4076  0.7791
 2062SOL    HW2 8341   6.672   6.372   0.664 -0.7505  0.4444  0.2029
 2063SOL     OW 8342   6.486   8.573   6.869 -0.0106 -0.4093  0.0671
 2063SOL    HW1 8343   6.471   8.526   6.951 -0.5854 -0.8048 -0.2558
 2063SOL    HW2 8344   6.467   8.508   6.801 -0.4701  0.1932 -0.3832
 2064SOL     OW 8345   4.866   3.459   5.857  0.1551  0.3910  0.4316
 2064SOL    HW1 8346   4.896   3.463   5.766  0.4759  1.7939  0.5753
 2064SOL    HW2 8347   4.879   3.547   5.891  0.7543 -0.2766  2.0739
 2065SOL     OW 8348   4.848   7.412   3.271  0.4441  0.1546  0.0831
 2065SOL    HW1 8349   4.921   7.351   3.283  1.7465  1.8235  0.9101
 2065SOL    HW2 8350   4.786   7.387   3.339  1.1260 -0.0256  0.6517
 2066SOL     OW 8351   5.444   5.240   0.353 -0.0446  0.1395  0.1663
 2066SOL    HW1 8352   5.425   5.291   0.274  1.8205  1.7948  0.7057
 2066SOL    HW2 8353   5.536   5.259   0.371 -0.0462 -1.3435  1.9449
 2067SOL     OW 8354   8.537   0.831   8.428  0.1421  0.0629 -0.5771
 2067SOL    HW1 8355   8.587   0.789   8.358 -0.0844  0.8949 -1.2597
 2067SOL    HW2 8356   8.451   0.850   8.388 -0.0091  0.4826 -0.0621
 2068SOL     OW 8357   2.032   7.330   3.452  0.1143 -0.3504  0.1508
 2068SOL    HW1 8358   1.967   7.313   3.520 -0.1241 -0.2648 -0.0542
 2068SOL    HW2 8359   1.990   7.394   3.394  0.4218 -0.2132  0.0772
 2069SOL     OW 8360   1.907   7.843   2.893  0.5573 -0.4699  0.4500
 2069SOL    HW1 8361   1.860   7.761   2.911 -0.7274  0.1652  0.0823
 2069SOL    HW2 8362   1.895   7.858   2.800  0.5156  0.3001  0.5736
 2070SOL     OW 8363   1.287   6.692   5.449  0.3765  0.3388 -0.3222
 2070SOL    HW1 8364   1.236   6.760   5.405  0.5306 -0.7532 -2.3477
 2070SOL    HW2 8365   1.244   6.610   5.423  1.0282 -0.4146  0.9005
 2071SOL     OW 8366   2.777   7.538   1.379  0.1030  0.2552  0.1818
 2071SOL    HW1 8367   2.699   7.564   1.428 -0.0725 -0.4912  0.3165
 2071SOL    HW2 8368   2.799   7.615   1.326  0.0176  0.9109  1.0792
 2072SOL     OW 8369   1.800   8.311   6.363 -0.2494  0.2432  0.3562
 2072SOL    HW1 8370   1.784   8.263   6.282  0.3706 -2.1735  1.5739
 2072SOL    HW2 8371   1.716   8.352   6.384 -0.6503  0.1646 -1.0314
 2073SOL     OW 8372   7.640   8.519   7.618  0.0531  0.1320 -0.4792
 2073SOL    HW1 8373   7.622   8.512   7.524 -0.9593 -1.9801 -0.1746
 2073SOL    HW2 8374   7.561   8.486   7.660  0.1649  1.8364  1.1676
 2074SOL     OW 8375   0.787   0.961   3.481  0.6407  0.1134 -0.2409
 2074SOL    HW1 8376   0.869   0.930   3.519  0.2904  0.8561  1.1929
 2074SOL    HW2 8377   0.719   0.911   3.527  0.2430  0.1769 -0.7468
 2075SOL     OW 8378   7.016   6.318   9.531  0.1875  0.3032 -0.0059
 2075SOL    HW1 8379   6.993   6.411   9.525  0.8446  0.4113 -1.1343
 2075SOL    HW2 8380   6.985   6.281   9.448 -0.0564 -0.4807  0.4331
 2076SOL     OW 8381   7.072   3.686   7.706 -0.3789 -0.4260 -0.0605
 2076SOL    HW1 8382   7.022   3.608   7.681  0.3640 -1.2394  0.9375
 2076SOL    HW2 8383   7.029   3.757   7.658 -1.6127 -1.3064 -0.3265
 2077SOL     OW 8384   3.759   2.323   4.108 -0.4614 -0.0232  0.0764
 2077SOL    HW1 8385   3.707   2.245   4.126  0.0192 -0.3768 -0.0536
 2077SOL    HW2 8386   3.799   2.307   4.023  1.9992 -0.9613  1.2928
 2078SOL     OW 8387   0.807   0.500   9.152 -0.1320 -0.0243 -0.4770
 2078SOL    HW1 8388   0.817   0.458   9.237  0.5723 -0.3660 -0.7202
 2078SOL    HW2 8389   0.890   0.546   9.138 -0.4365  0.4518 -0.7525
 2079SOL     OW 8390   2.874   0.496   5.722 -0.1274 -0.1166 -0.3523
 2079SOL    HW1 8391   2.811   0.425   5.711 -0.3815 -0.0435  0.5351
 2079SOL    HW2 8392   2.891   0.498   5.816  0.4145  0.5401 -0.4579
 2080SOL     OW 8393   2.378   1.841   7.417 -0.3890 -0.2411 -0.0854
 2080SOL    HW1 8394   2.331   1.914   7.456 -1.4300 -0.2311 -1.2989
 2080SOL    HW2 8395   2.457   1.833   7.470 -0.1887  1.8267  0.0118
 2081SOL     OW 8396   2.656   5.777   8.311  0.0083  0.0081 -0.2231
 2081SOL    HW1 8397   2.655   5.790   8.216  1.0891 -1.9539 -0.5511
 2081SOL    HW2 8398   2.736   5.820   8.340  1.6792 -2.5035 -0.7959
 2082SOL     OW 8399   8.386   2.001   0.451 -0.3399 -0.5601  0.4239
 2082SOL    HW1 8400   8.349   1.945   0.382  0.5265 -0.0710 -0.4602
 2082SOL    HW2 8401   8.477   2.014   0.426 -0.2667  0.4545  1.1273
 2083SOL     OW 8402   2.916   6.902   9.326 -0.0449 -0.0358 -0.8108
 2083SOL    HW1 8403   2.854   6.864   9.389  0.3482 -1.4468 -1.2244
 2083SOL    HW2 8404   2.861   6.931   9.253 -0.2383 -1.5580 -1.3126
 2084SOL     OW 8405   2.124   7.842   9.179  0.3307 -0.7729  0.0929
 2084SOL    HW1 8406   2.184   7.772   9.150  1.2787 -0.7945  1.9453
 2084SOL    HW2 8407   2.039   7.798   9.188 -0.1139 -0.7046 -2.7546
 2085SOL     OW 8408   7.763   8.647   8.877  0.0787 -0.1574 -0.3317
 2085SOL    HW1 8409   7.732   8.611   8.793 -1.1469 -1.1375  0.5046
 2085SOL    HW2 8410   7.835   8.590   8.901 -0.0283 -0.3134 -0.3770
 2086SOL     OW 8411   6.730   4.773   5.133  0.2285 -0.1925 -0.4636
 2086SOL    HW1 8412   6.654   4.825   5.106 -0.0264 -0.3133  0.0130
 2086SOL    HW2 8413   6.696   4.684   5.140  0.6070 -0.3864 -1.0385
 2087SOL     OW 8414   5.729   5.399   2.665 -0.2547  0.3592  0.4182
 2087SOL    HW1 8415   5.735   5.489   2.635  0.4325  0.0710 -0.3597
 2087SOL    HW2 8416   5.746   5.347   2.586 -0.9169 -0.4502  0.7957
 2088SOL     OW 8417   8.742   5.125   0.027 -0.2369  0.0001  0.0056
 2088SOL    HW1 8418   8.815   5.144   0.086 -0.6046  1.7657 -0.0406
 2088SOL    HW2 8419   8.741   5.030   0.019  1.3803 -0.1158  0.8549
 2089SOL     OW 8420   6.367   2.578   6.269 -0.0772 -0.2095  0.2281
 2089SOL    HW1 8421   6.406   2.663   6.287 -0.2210  0.0383 -0.6177
 2089SOL    HW2 8422   6.383   2.562   6.176  1.0654 -1.6917  0.6333
 2090SOL     OW 8423   3.417   2.989   6.320 -0.2942  0.7003  0.1551
 2090SOL    HW1 8424   3.487   2.947   6.370 -0.1865 -0.1758 -0.6991
 2090SOL    HW2 8425   3.372   3.044   6.384  0.1068 -0.0551  1.1224
 2091SOL     OW 8426   5.042   3.462   5.071  0.0188  0.2800  0.4081
 2091SOL    HW1 8427   5.021   3.539   5.125  2.9688  0.8851  0.8337
 2091SOL    HW2 8428   5.075   3.398   5.134  1.2632  0.1233 -0.3861
 2092SOL     OW 8429   3.215   6.527   2.675  0.1190  0.1221  0.1668
 2092SOL    HW1 8430   3.190   6.566   2.758  0.9076  0.6666  0.1606
 2092SOL    HW2 8431   3.141   6.545   2.617  0.1687  0.9940  0.3618
 2093SOL     OW 8432   2.994   1.441   4.737  0.1719  0.6281  0.2336
 2093SOL    HW1 8433   3.041   1.409   4.814 -0.0491  0.1114  0.1613
 2093SOL    HW2 8434   2.941   1.514   4.769  2.0946  2.1969  0.0388
 2094SOL     OW 8435   1.420   7.175   0.092  0.2882 -0.5916 -0.8204
 2094SOL    HW1 8436   1.479   7.163   0.018 -0.8422 -1.3567 -1.6340
 2094SOL    HW2 8437   1.335   7.143   0.061 -0.5537  0.4288  0.3280
 2095SOL     OW 8438   8.411   1.223   9.294 -0.6091  0.1287  0.4982
 2095SOL    HW1 8439   8.441   1.285   9.227  0.1607 -1.2881 -0.5154
 2095SOL    HW2 8440   8.470   1.148   9.285  0.1443  0.2517  3.4110
 2096SOL     OW 8441   9.369   8.179   0.447  0.3402  0.9063 -0.1559
 2096SOL    HW1 8442   9.299   8.187   0.512 -1.1574  0.6866 -1.6759
 2096SOL    HW2 8443   9.394   8.269   0.428 -1.1911  1.1245 -1.2878
 2097SOL     OW 8444   6.041   1.785   0.921 -0.0091 -0.5986  0.1176
 2097SOL    HW1 8445   5.959   1.831   0.937 -0.5245 -1.6864  0.7158
 2097SOL    HW2 8446   6.048   1.780   0.826 -0.5253 -0.2890  0.0643
 2098SOL     OW 8447   5.066   0.019   6.189  0.4080 -0.2843  0.8389
 2098SOL    HW1 8448   5.007   0.025   6.264  2.6437 -0.7093  2.7079
 2098SOL    HW2 8449   5.130   0.089   6.203  0.0124  0.6533 -1.5289
 2099SOL     OW 8450   1.523   8.647   0.751 -0.6013 -0.0865 -0.3372
 2099SOL    HW1 8451   1.472   8.599   0.816 -0.7624  1.9600  1.1539
 2099SOL    HW2 8452   1.466   8.721   0.727 -0.4689 -0.6665 -2.7162
 2100SOL     OW 8453   0.443   2.070   3.225  0.0257 -0.2679  0.6643
 2100SOL    HW1 8454   0.393   1.995   3.193 -0.3073  0.6657 -1.1258
 2100SOL    HW2 8455   0.424   2.073   3.318 -1.5320 -1.2283  0.4198
 2101SOL     OW 8456   6.688   3.216   4.177  0.3805 -0.0567  0.6394
 2101SOL    HW1 8457   6.766   3.162   4.165  0.7031  0.4553  0.3802
 2101SOL    HW2 8458   6.619   3.154   4.198  0.4031 -0.7446 -1.1705
 2102SOL     OW 8459   8.053   8.075   6.391  0.0567  0.1600  0.2698
 2102SOL    HW1 8460   8.042   8.141   6.322 -1.5629 -1.5812 -1.2405
 2102SOL    HW2 8461   8.085   7.998   6.345  3.3664  0.1736  2.2151
 2103SOL     OW 8462   2.027   5.611   0.590  0.6153 -0.5428 -0.0472
 2103SOL    HW1 8463   2.070   5.583   0.672 -0.5355  0.2678  0.8634
 2103SOL    HW2 8464   2.100   5.628   0.530  1.5739  0.5224  1.3557
 2104SOL     OW 8465   4.858   9.195   1.723  0.0728  0.5556 -0.1557
 2104SOL    HW1 8466   4.794   9.250   1.678 -0.2356 -0.2861 -0.7599
 2104SOL    HW2 8467   4.816   9.109   1.728  0.6334  0.3153  0.6012
 2105SOL     OW 8468   5.552   5.667   3.150  0.4098  0.5368 -0.2121
 2105SOL    HW1 8469   5.647   5.677   3.158  0.4946 -0.7137  0.6218
 2105SOL    HW2 8470   5.539   5.616   3.071  0.4207  0.7184 -0.3328
 2106SOL     OW 8471   6.658   4.522   3.881  0.3568 -0.1112 -0.5150
 2106SOL    HW1 8472   6.659   4.503   3.787  0.5314  1.6255 -0.8995
 2106SOL    HW2 8473   6.584   4.581   3.893  1.2088  0.8772  0.1559
 2107SOL     OW 8474   0.131   9.466   8.024 -0.1326 -0.2074 -0.7403
 2107SOL    HW1 8475   0.201   9.403   8.006  0.9415  1.3234 -2.3700
 2107SOL    HW2 8476   0.095   9.439   8.108  2.1153 -1.3755 -0.0583
 2108SOL     OW 8477   2.562   1.679   2.165  0.1587 -0.3384  0.0884
 2108SOL    HW1 8478   2.553   1.654   2.257 -0.0728 -3.1127 -0.6007
 2108SOL    HW2 8479   2.489   1.738   2.149  0.9177  1.1994  1.9616
 2109SOL     OW 8480   6.083   6.118   9.363  0.2019 -0.3305  0.3790
 2109SOL    HW1 8481   6.135   6.161   9.295  1.5091 -1.6244  0.5179
 2109SOL    HW2 8482   6.062   6.188   9.425  1.0607  0.3824 -0.1113
 2110SOL     OW 8483   4.852   5.346   2.592 -0.1988 -0.1683 -0.2598
 2110SOL    HW1 8484   4.863   5.292   2.513  0.0508 -1.0311  0.3475
 2110SOL    HW2 8485   4.772   5.312   2.633  1.4421 -2.0660  1.6127
 2111SOL     OW 8486   6.665   1.878   1.039  0.1656  0.7025 -1.0615
 2111SOL    HW1 8487   6.663   1.858   0.946  0.8117  0.5514 -1.0507
 2111SOL    HW2 8488   6.759   1.877   1.061 -0.0370 -0.6333 -0.1287
 2112SOL     OW 8489   8.703   3.204   6.733 -0.8736  0.2069  0.8483
 2112SOL    HW1 8490   8.653   3.123   6.740 -0.3111 -0.3664 -1.0358
 2112SOL    HW2 8491   8.638   3.272   6.718 -1.2198 -0.2205  0.3929
 2113SOL     OW 8492   3.295   5.595   8.653 -0.2704 -0.4756  0.2586
 2113SOL    HW1 8493   3.342   5.513   8.639 -0.9770 -0.6858 -1.0468
 2113SOL    HW2 8494   3.214   5.569   8.696 -0.5616 -0.4918 -0.2906
 2114SOL     OW 8495   0.692   6.238   4.327  0.3125  0.2462  0.3601
 2114SOL    HW1 8496   0.726   6.239   4.238  0.3628  2.3048  0.3535
 2114SOL    HW2 8497   0.603   6.204   4.317 -0.2972  2.0169 -0.7741
 2115SOL     OW 8498   6.674   3.100   7.761  0.0579  0.0482 -0.0692
 2115SOL    HW1 8499   6.614   3.033   7.728 -0.7457  0.2203  0.9992
 2115SOL    HW2 8500   6.622   3.181   7.762  0.7004  0.4747 -0.3375
 2116SOL     OW 8501   1.630   9.034   5.031 -0.2496 -0.5103  0.0206
 2116SOL    HW1 8502   1.718   8.998   5.039  0.9579  2.4214  1.2797
 2116SOL    HW2 8503   1.572   8.958   5.042  2.0676 -2.1147  2.4257
 2117SOL     OW 8504   9.188   0.656   0.769  0.0753 -0.4444  0.0849
 2117SOL    HW1 8505   9.114   0.611   0.729 -0.2161  0.3746 -0.3171
 2117SOL    HW2 8506   9.221   0.715   0.701 -0.8051  1.4127  1.1625
 2118SOL     OW 8507   6.125   3.866   0.997 -0.2494  0.4596 -0.3333
 2118SOL    HW1 8508   6.059   3.935   1.004 -1.3632 -0.6925  1.4286
 2118SOL    HW2 8509   6.079   3.792   0.957  0.0833 -0.2062  0.4802
 2119SOL     OW 8510   1.595   8.663   0.111 -0.2688  0.5513 -0.7692
 2119SOL    HW1 8511   1.602   8.750   0.150  1.9040  0.8486 -1.6546
 2119SOL    HW2 8512   1.553   8.678   0.026 -1.0512  0.5362 -0.3895
 2120SOL     OW 8513   3.210   8.371   0.647 -0.0806 -0.0076  0.2145
 2120SOL    HW1 8514   3.146   8.365   0.717 -0.3447 -1.4788 -0.1175
 2120SOL    HW2 8515   3.159   8.363   0.566  0.0450  3.0166 -0.2781
 2121SOL     OW 8516   8.125   8.039   8.143 -0.0197  0.4136 -0.2478
 2121SOL    HW1 8517   8.039   8.004   8.119  0.7059 -1.0919 -0.8111
 2121SOL    HW2 8518   8.162   8.069   8.060  0.4536 -0.0289 -0.2020
 2122SOL     OW 8519   5.781   2.630   4.977 -0.2411 -0.2379 -0.5637
 2122SOL    HW1 8520   5.714   2.564   4.958 -1.7059  0.8394  0.6957
 2122SOL    HW2 8521   5.843   2.585   5.035 -0.5239 -0.8746 -0.7453
 2123SOL     OW 8522   2.763   7.232   2.512 -1.2019 -0.0994 -0.5405
 2123SOL    HW1 8523   2.745   7.143   2.483  1.1093 -1.0464  0.6686
 2123SOL    HW2 8524   2.758   7.227   2.608 -0.8355  1.0208 -0.4459
 2124SOL     OW 8525   6.060   0.236   4.214 -0.2468 -0.2725  0.7319
 2124SOL    HW1 8526   5.965   0.230   4.209 -0.1311 -4.9789 -0.2434
 2124SOL    HW2 8527   6.077   0.272   4.301 -2.9067 -0.9104  1.6055
 2125SOL     OW 8528   8.959   1.601   2.173  0.3053 -0.7530  0.4094
 2125SOL    HW1 8529   8.914   1.564   2.097  3.9531 -2.0578 -1.3616
 2125SOL    HW2 8530   9.017   1.531   2.203 -0.7418 -0.2002  4.4013
 2126SOL     OW 8531   3.394   0.379   8.139 -0.0548 -0.0696  0.2482
 2126SOL    HW1 8532   3.404   0.357   8.046  0.1833  0.2937  0.1843
 2126SOL    HW2 8533   3.483   0.380   8.173 -0.1649 -0.5028  0.5534
 2127SOL     OW 8534   8.184   1.137   2.694  0.4234  0.0236 -0.2010
 2127SOL    HW1 8535   8.261   1.081   2.709  0.0030 -0.8557 -1.1620
 2127SOL    HW2 8536   8.220   1.216   2.654  1.0523  0.5740  1.3890
 2128SOL     OW 8537   4.922   4.090   6.650 -0.4999  0.0512 -0.2970
 2128SOL    HW1 8538   4.917   4.061   6.559 -1.4766  0.6144 -0.4361
 2128SOL    HW2 8539   4.880   4.020   6.700 -0.3296 -0.0716 -0.3271
 2129SOL     OW 8540   3.971   3.512   4.211  0.4770  0.5274  0.1954
 2129SOL    HW1 8541   3.975   3.418   4.231  0.9983  0.3147 -0.8323
 2129SOL    HW2 8542   4.034   3.552   4.270  1.3971  0.0208 -0.4129
 2130SOL     OW 8543   5.679   5.760   8.686  0.1252 -0.2218  0.0702
 2130SOL    HW1 8544   5.728   5.785   8.765 -0.3040 -1.3254  0.7211
 2130SOL    HW2 8545   5.721   5.809   8.615  1.1012  0.1185  0.8504
 2131SOL     OW 8546   4.978   1.959   2.293  0.2453 -0.4016  0.1828
 2131SOL    HW1 8547   4.945   1.949   2.382 -2.7457 -0.0278 -0.7832
 2131SOL    HW2 8548   5.042   2.030   2.299  0.2896 -0.5475  2.0451
 2132SOL     OW 8549   2.383   1.221   3.085  0.5501 -0.7166  0.1214
 2132SOL    HW1 8550   2.292   1.214   3.116 -0.0143  2.4778 -0.4448
 2132SOL    HW2 8551   2.431   1.258   3.159  1.3982 -2.2619  0.3673
 2133SOL     OW 8552   4.448   3.373   0.651 -0.4539  0.2400 -0.0925
 2133SOL    HW1 8553   4.514   3.371   0.720 -0.9608 -0.4002  0.3940
 2133SOL    HW2 8554   4.444   3.282   0.619 -0.5101  0.4476 -0.6807
 2134SOL     OW 8555   7.158   5.144   1.822 -0.4363  0.3557 -0.1860
 2134SOL    HW1 8556   7.127   5.226   1.783  0.7475  1.1068  0.3888
 2134SOL    HW2 8557   7.250   5.138   1.797  0.2365  0.6219  1.9753
 2135SOL     OW 8558   8.313   6.650   6.179  0.4130  0.0987  0.4321
 2135SOL    HW1 8559   8.282   6.733   6.217  1.1798  1.1619 -1.1456
 2135SOL    HW2 8560   8.351   6.675   6.095  1.7301 -1.7201  0.4225
 2136SOL     OW 8561   6.759   2.488   2.598  0.2382  0.3020  0.3680
 2136SOL    HW1 8562   6.741   2.561   2.539 -0.5769  1.3397  1.8166
 2136SOL    HW2 8563   6.835   2.517   2.649  0.5309 -0.3008  0.2903
 2137SOL     OW 8564   3.779   7.845   1.440 -0.2310  0.0980 -0.4052
 2137SOL    HW1 8565   3.817   7.758   1.448  1.7021  0.9797  0.8011
 2137SOL    HW2 8566   3.685   7.832   1.452  0.0611 -1.7691  0.1130
 2138SOL     OW 8567   2.242   3.799   8.325 -0.0077 -0.6091 -0.6225
 2138SOL    HW1 8568   2.148   3.799   8.343 -0.0293 -1.1420 -0.7183
 2138SOL    HW2 8569   2.263   3.891   8.307 -0.6415 -0.5902 -1.3062
 2139SOL     OW 8570   4.001   1.685   3.342  0.5401 -0.4530 -0.0976
 2139SOL    HW1 8571   4.097   1.684   3.341  0.6323  1.7521  0.0897
 2139SOL    HW2 8572   3.976   1.641   3.261  1.6997 -1.3906  0.0319
 2140SOL     OW 8573   4.801   2.835   2.792 -0.0450 -0.3494 -0.2050
 2140SOL    HW1 8574   4.829   2.908   2.737 -2.2505 -0.1788 -1.2296
 2140SOL    HW2 8575   4.803   2.759   2.734  1.9460 -1.1211  0.7737
 2141SOL     OW 8576   1.359   9.227   8.538  0.1268  0.6634 -0.3875
 2141SOL    HW1 8577   1.370   9.261   8.449 -2.5494  2.1623 -0.2526
 2141SOL    HW2 8578   1.357   9.306   8.593  0.8858 -0.1905  0.9127
 2142SOL     OW 8579   8.938   0.392   9.230  0.0422  0.1700  0.3709
 2142SOL    HW1 8580   8.896   0.350   9.155  0.6986  1.5246 -0.8003
 2142SOL    HW2 8581   8.869   0.398   9.296 -0.1509 -2.4505  0.5308
 2143SOL     OW 8582   8.509   1.357   0.555  0.2204  0.4732  0.8465
 2143SOL    HW1 8583   8.466   1.319   0.478  1.5977 -2.5186  1.3945
 2143SOL    HW2 8584   8.585   1.403   0.520  0.6177 -0.5242  0.3717
 2144SOL     OW 8585   1.750   0.072   3.451  0.3187 -0.2579  0.7119
 2144SOL    HW1 8586   1.749  -0.016   3.414 -1.8160 -0.7642  1.7733
 2144SOL    HW2 8587   1.840   0.102   3.439  1.1386 -2.5944  0.3829
 2145SOL     OW 8588   5.101   6.226   8.720 -0.5773 -0.0979  0.0328
 2145SOL    HW1 8589   5.018   6.180   8.730 -0.8067  0.4663  0.8430
 2145SOL    HW2 8590   5.089   6.280   8.642 -2.4684  2.9583  2.2232
 2146SOL     OW 8591   5.757   4.656   1.266 -0.6360 -0.3171 -0.2344
 2146SOL    HW1 8592   5.819   4.692   1.329  0.0790  0.6852 -1.4550
 2146SOL    HW2 8593   5.782   4.564   1.258  1.2266  0.2323 -1.2529
 2147SOL     OW 8594   3.247   1.597   3.235 -0.0091  0.2047  0.0820
 2147SOL    HW1 8595   3.336   1.580   3.264  0.9017  1.0384 -2.0120
 2147SOL    HW2 8596   3.252   1.681   3.190 -1.0016 -1.3194 -3.1996
 2148SOL     OW 8597   5.750   1.903   0.356  0.3736  0.7029  0.1579
 2148SOL    HW1 8598   5.710   1.977   0.310  0.1960  0.7550  0.3895
 2148SOL    HW2 8599   5.676   1.860   0.401  0.4858  0.4249  0.0765
 2149SOL     OW 8600   6.623   5.838   5.200  0.2994  0.1273  0.0847
 2149SOL    HW1 8601   6.558   5.771   5.223  0.3375 -0.1355 -0.5681
 2149SOL    HW2 8602   6.571   5.912   5.169  0.3234 -0.8658 -2.5829
 2150SOL     OW 8603   4.642   6.172   4.817  0.0633  0.0274  0.3257
 2150SOL    HW1 8604   4.720   6.157   4.764 -0.8060 -0.1872 -0.9528
 2150SOL    HW2 8605   4.641   6.266   4.833  0.2986  0.1086 -0.1202
 2151SOL     OW 8606   5.099   0.441   6.644  0.4061  0.6319 -0.2376
 2151SOL    HW1 8607   5.169   0.380   6.665  0.2888  0.4716 -0.3066
 2151SOL    HW2 8608   5.140   0.509   6.591  0.3754  0.1885 -0.8364
 2152SOL     OW 8609   6.054   7.026   3.038  0.2410 -0.6054 -0.1061
 2152SOL    HW1 8610   5.965   7.003   3.064 -0.6458  1.6421 -0.8825
 2152SOL    HW2 8611   6.070   7.111   3.079  1.4214 -0.2390 -1.2519
 2153SOL     OW 8612   9.056   9.487   1.585 -0.4704 -0.4596  0.6984
 2153SOL    HW1 8613   8.993   9.493   1.513 -0.2560 -1.9696  0.3483
 2153SOL    HW2 8614   9.043   9.400   1.622  2.1704 -1.3206 -0.1494
 2154SOL     OW 8615   7.240   5.999   1.585 -0.1384  0.4858 -0.4669
 2154SOL    HW1 8616   7.287   5.952   1.516 -1.3642 -1.1914 -0.2242
 2154SOL    HW2 8617   7.199   6.073   1.540 -0.7578 -0.4699 -1.5272
 2155SOL     OW 8618   0.792   8.229   7.212 -0.1714  0.0131  0.4657
 2155SOL    HW1 8619   0.845   8.156   7.243 -1.5268 -0.8910  0.7257
 2155SOL    HW2 8620   0.706   8.216   7.253 -0.3523  1.9663  0.8311
 2156SOL     OW 8621   0.852   5.497   5.008 -0.6797  0.0715  0.2771
 2156SOL    HW1 8622   0.903   5.421   5.038  0.1595  0.5443  0.0633
 2156SOL    HW2 8623   0.764   5.461   4.992 -0.3792 -0.7897  0.4768
 2157SOL     OW 8624   5.423   2.988   1.186 -0.2848 -0.4712  0.7418
 2157SOL    HW1 8625   5.457   3.021   1.270  0.7631  1.2414 -0.2986
 2157SOL    HW2 8626   5.423   3.065   1.129 -0.0377 -1.7971 -1.1088
 2158SOL     OW 8627   2.811   7.471   3.731  0.2882  0.4511 -0.1808
 2158SOL    HW1 8628   2.736   7.455   3.789  0.6214  0.1488  0.1777
 2158SOL    HW2 8629   2.822   7.566   3.732 -0.7603  0.5944 -1.1006
 2159SOL     OW 8630   6.642   4.947   0.019  0.3875 -0.4199 -0.0655
 2159SOL    HW1 8631   6.737   4.947   0.034  0.5234  2.1772 -0.4506
 2159SOL    HW2 8632   6.611   5.023   0.068 -1.4552 -1.0527 -0.2088
 2160SOL     OW 8633   8.858   3.836   0.434  0.0224 -0.7230 -0.1488
 2160SOL    HW1 8634   8.852   3.922   0.391  0.0268 -0.2413  0.7745
 2160SOL    HW2 8635   8.946   3.805   0.412 -0.2492 -0.8487 -1.1170
 2161SOL     OW 8636   6.763   3.519   8.003 -0.1738 -0.0476 -0.2106
 2161SOL    HW1 8637   6.847   3.564   7.995  0.5831 -1.6175 -2.0425
 2161SOL    HW2 8638   6.785   3.426   7.996 -2.0689 -0.4958 -0.8326
 2162SOL     OW 8639   9.502   3.408   0.715  0.1359 -0.6505 -0.2765
 2162SOL    HW1 8640   9.428   3.422   0.656  1.8500  0.7804 -2.1963
 2162SOL    HW2 8641   9.504   3.486   0.771 -0.1767 -1.0099  0.2527
 2163SOL     OW 8642   6.821   4.343   3.202 -0.2494 -0.0926  0.1982
 2163SOL    HW1 8643   6.884   4.389   3.146 -0.6188 -0.0100 -0.1490
 2163SOL    HW2 8644   6.765   4.412   3.237 -0.7852 -0.2698 -0.2986
 2164SOL     OW 8645   4.756   5.609   0.687  0.2392 -0.0876  0.7556
 2164SOL    HW1 8646   4.801   5.647   0.762 -0.0068 -0.6012  1.1757
 2164SOL    HW2 8647   4.675   5.574   0.724  1.2315 -2.5939  0.7471
 2165SOL     OW 8648   6.420   0.297   8.670 -0.3420  0.0464  0.0408
 2165SOL    HW1 8649   6.404   0.237   8.597 -2.0844 -1.5625  1.6245
 2165SOL    HW2 8650   6.396   0.247   8.747  1.2501  1.7431  1.7553
 2166SOL     OW 8651   0.569   3.935   4.646  0.5511 -0.1981  0.3362
 2166SOL    HW1 8652   0.503   3.899   4.587  0.1063  1.5494 -0.2875
 2166SOL    HW2 8653   0.561   3.884   4.726 -0.0777 -1.4212 -0.4823
 2167SOL     OW 8654   8.969   1.296   3.416  0.2787 -0.0537 -0.2661
 2167SOL    HW1 8655   8.908   1.300   3.490 -0.0244  0.4946 -0.5394
 2167SOL    HW2 8656   9.008   1.209   3.422  0.4148  0.0637  0.6610
 2168SOL     OW 8657   6.314   0.783   1.815 -0.1015 -0.0453  0.3313
 2168SOL    HW1 8658   6.367   0.851   1.772  0.5552 -0.5852  0.2776
 2168SOL    HW2 8659   6.223   0.808   1.796  0.1425 -1.1900 -2.8936
 2169SOL     OW 8660   2.665   2.540   5.948 -0.3082 -0.0823 -0.0443
 2169SOL    HW1 8661   2.584   2.501   5.982  0.6469 -1.8013  0.3515
 2169SOL    HW2 8662   2.710   2.572   6.025  0.4248 -1.1909  0.0068
 2170SOL     OW 8663   8.408   5.556   2.861  0.1791  0.3027  0.3914
 2170SOL    HW1 8664   8.446   5.520   2.941  0.3890 -1.5672 -0.4930
 2170SOL    HW2 8665   8.315   5.567   2.882  0.3849  0.6721  1.1570
 2171SOL     OW 8666   2.644   4.848   7.051 -0.0685 -0.2435 -0.2139
 2171SOL    HW1 8667   2.563   4.809   7.017  0.6647 -1.4539 -0.6626
 2171SOL    HW2 8668   2.652   4.812   7.139  0.7601 -1.4045 -0.7328
 2172SOL     OW 8669   2.016   5.516   8.332 -0.3940 -0.4052 -0.0158
 2172SOL    HW1 8670   1.923   5.514   8.310 -0.6678 -0.3410  1.0656
 2172SOL    HW2 8671   2.041   5.424   8.337 -1.3293 -0.6317  3.2024
 2173SOL     OW 8672   6.873   7.063   3.623 -0.2642  0.3671 -0.5942
 2173SOL    HW1 8673   6.910   6.982   3.658  0.4010  1.6586  1.8673
 2173SOL    HW2 8674   6.813   7.094   3.690 -1.8348  1.0956 -2.2385
 2174SOL     OW 8675   3.490   7.913   3.589  0.7498  0.8496 -0.3695
 2174SOL    HW1 8676   3.429   7.960   3.647  1.0784  1.0946 -0.2170
 2174SOL    HW2 8677   3.476   7.821   3.609  0.8548  0.9345  0.0919
 2175SOL     OW 8678   2.915   2.950   8.165 -0.5903 -0.0943  0.1218
 2175SOL    HW1 8679   3.009   2.951   8.188 -0.4727  1.0987 -0.3708
 2175SOL    HW2 8680   2.878   2.883   8.223  0.5146 -0.3790  0.5338
 2176SOL     OW 8681   5.298   9.072   6.156  0.2392  0.2045 -0.5388
 2176SOL    HW1 8682   5.237   9.145   6.154  0.3703  0.3099 -0.6681
 2176SOL    HW2 8683   5.361   9.094   6.225 -0.7250 -0.5943  0.6367
 2177SOL     OW 8684   8.607   0.475   2.662 -0.3590  0.3080 -0.2827
 2177SOL    HW1 8685   8.686   0.424   2.683 -0.8293 -0.4973 -0.4222
 2177SOL    HW2 8686   8.535   0.412   2.671 -0.7939  0.4819 -2.1335
 2178SOL     OW 8687   1.588   1.109   6.595  0.3413  0.5282 -0.2981
 2178SOL    HW1 8688   1.525   1.070   6.535  0.0083  2.6443 -1.4196
 2178SOL    HW2 8689   1.665   1.052   6.590 -0.6354 -0.7943 -0.6796
 2179SOL     OW 8690   0.999   5.321   2.865  0.3839 -0.6979  0.1868
 2179SOL    HW1 8691   1.022   5.230   2.845 -1.6330 -1.2725  0.2253
 2179SOL    HW2 8692   1.009   5.328   2.960 -3.3226 -2.2270  0.8921
 2180SOL     OW 8693   3.354   2.389   7.543  0.4788  0.0675  0.4281
 2180SOL    HW1 8694   3.364   2.430   7.629 -0.4942 -0.8774  1.0261
 2180SOL    HW2 8695   3.401   2.306   7.551  1.1536  0.3640 -0.2733
 2181SOL     OW 8696   1.860   4.582   9.098 -0.2470 -0.0199 -0.0599
 2181SOL    HW1 8697   1.846   4.552   9.008  2.8569 -0.1578 -0.6322
 2181SOL    HW2 8698   1.951   4.558   9.117  0.0162  2.3081  2.1957
 2182SOL     OW 8699   6.463   4.644   2.036  0.1888  0.4057 -0.6782
 2182SOL    HW1 8700   6.384   4.697   2.045  0.0387  0.2989 -1.3336
 2182SOL    HW2 8701   6.522   4.698   1.984 -0.5188 -0.6194 -2.6898
 2183SOL     OW 8702   9.141   0.540   3.560 -0.4285 -0.4794  0.6863
 2183SOL    HW1 8703   9.138   0.594   3.639  1.1507 -0.3783  0.7222
 2183SOL    HW2 8704   9.225   0.562   3.520 -2.1210  1.2524 -2.3170
 2184SOL     OW 8705   0.129   1.685   0.565 -0.2817 -0.2663  0.0547
 2184SOL    HW1 8706   0.100   1.722   0.482 -0.2830  0.4942  0.3820
 2184SOL    HW2 8707   0.224   1.681   0.558 -0.3709 -1.9211 -0.6739
 2185SOL     OW 8708   6.505   7.650   9.524 -0.5517 -0.4958 -0.9693
 2185SOL    HW1 8709   6.500   7.658   9.619 -2.6917  0.5194 -1.1209
 2185SOL    HW2 8710   6.587   7.604   9.509 -0.7589 -1.8241  1.4275
 2186SOL     OW 8711   6.488   9.206   8.052 -0.2453  0.4361  0.3022
 2186SOL    HW1 8712   6.536   9.271   8.103 -0.3894  2.4254 -1.9057
 2186SOL    HW2 8713   6.499   9.124   8.100  3.1973  1.2877  1.2302
 2187SOL     OW 8714   0.725   6.342   1.427 -0.3367  0.3916  0.2677
 2187SOL    HW1 8715   0.777   6.346   1.347  1.0492  2.8440  1.1824
 2187SOL    HW2 8716   0.658   6.410   1.415 -0.7516  0.0778  0.7783
 2188SOL     OW 8717   2.515   4.122   2.318  0.3419 -0.5604  0.0356
 2188SOL    HW1 8718   2.421   4.105   2.322  0.5373 -1.5210  3.1441
 2188SOL    HW2 8719   2.555   4.036   2.303  0.7817 -0.4005  0.2637
 2189SOL     OW 8720   9.618   6.606   0.715 -0.0803 -0.0292 -0.2079
 2189SOL    HW1 8721   9.596   6.695   0.744 -1.0045 -0.3104 -0.0225
 2189SOL    HW2 8722   9.709   6.613   0.684  0.3562  0.6531  1.1519
 2190SOL     OW 8723   0.513   8.161   0.535  0.5905 -0.1505  0.7105
 2190SOL    HW1 8724   0.577   8.135   0.469 -0.0837 -1.1266  0.4214
 2190SOL    HW2 8725   0.446   8.093   0.532 -1.1478  1.5000  0.0689
 2191SOL     OW 8726   7.941   8.811   3.318  1.1250 -0.1216 -0.6805
 2191SOL    HW1 8727   7.845   8.815   3.322  1.1518  1.2472 -1.0261
 2191SOL    HW2 8728   7.959   8.721   3.291 -0.0204 -0.6511  0.2229
 2192SOL     OW 8729   3.686   2.912   6.070 -0.6611  0.0235 -0.1791
 2192SOL    HW1 8730   3.620   2.847   6.093 -0.6420 -0.5924 -1.7136
 2192SOL    HW2 8731   3.764   2.860   6.049 -0.5696  0.5553 -1.1960
 2193SOL     OW 8732   6.918   9.461   7.148  0.2048 -0.3342 -0.0584
 2193SOL    HW1 8733   7.006   9.436   7.176  0.2630 -1.8461 -1.4436
 2193SOL    HW2 8734   6.860   9.404   7.200  0.1419 -0.5376 -0.3470
 2194SOL     OW 8735   5.385   4.955   4.227 -0.2185  0.3741 -0.2494
 2194SOL    HW1 8736   5.368   4.942   4.134 -0.9224  0.7632 -0.1781
 2194SOL    HW2 8737   5.459   4.896   4.246  0.6604  1.1027 -1.2863
 2195SOL     OW 8738   4.851   4.060   7.471  0.0646  1.1853 -0.1110
 2195SOL    HW1 8739   4.782   4.084   7.533 -0.8281  0.6321 -0.8731
 2195SOL    HW2 8740   4.822   4.096   7.387  0.0090 -0.2170 -0.7226
 2196SOL     OW 8741   6.269   2.986   1.021 -0.0694 -0.7574 -0.0850
 2196SOL    HW1 8742   6.258   2.922   0.952 -2.8924 -0.7832  0.2829
 2196SOL    HW2 8743   6.315   2.939   1.091 -0.4004 -1.8023 -0.5589
 2197SOL     OW 8744   5.524   1.003   8.514  0.0029 -0.7066  0.5065
 2197SOL    HW1 8745   5.523   1.067   8.585  0.2184 -2.5567  2.2485
 2197SOL    HW2 8746   5.554   0.922   8.555 -0.5353 -2.0169 -1.5654
 2198SOL     OW 8747   6.416   8.535   0.880 -0.2293  0.8927 -0.5556
 2198SOL    HW1 8748   6.384   8.510   0.794  0.7802  3.3528 -1.7448
 2198SOL    HW2 8749   6.483   8.470   0.901 -1.3652 -0.4704 -0.9914
 2199SOL     OW 8750   4.823   8.010   1.108  0.3452 -0.5502 -0.0386
 2199SOL    HW1 8751   4.745   7.956   1.103  0.8173 -1.2513 -0.0179
 2199SOL    HW2 8752   4.852   8.021   1.017  0.4377 -0.6168 -0.0179
 2200SOL     OW 8753   8.431   5.313   6.964  0.2154  0.1210  0.1871
 2200SOL    HW1 8754   8.345   5.303   6.923  0.6166  1.4516 -1.0908
 2200SOL    HW2 8755   8.482   5.240   6.929 -0.5842 -1.1481  1.5808
 2201SOL     OW 8756   5.400   4.565   0.229 -0.0821  0.5195  0.1477
 2201SOL    HW1 8757   5.453   4.489   0.251  0.8311  1.2388  0.4917
 2201SOL    HW2 8758   5.387   4.559   0.134 -1.2841 -0.8442  0.3686
 2202SOL     OW 8759   9.276   5.705   6.368 -0.7150  0.0202  0.8149
 2202SOL    HW1 8760   9.273   5.800   6.380 -0.7174  0.1450 -0.0826
 2202SOL    HW2 8761   9.189   5.682   6.334 -0.5010 -0.1996  0.3973
 2203SOL     OW 8762   1.307   2.627   1.114  0.1161 -0.0709 -0.0121
 2203SOL    HW1 8763   1.303   2.718   1.144 -2.4392 -0.2699  0.4480
 2203SOL    HW2 8764   1.399   2.602   1.128  0.1271  1.2712  3.4626
 2204SOL     OW 8765   0.530   1.688   3.412  0.3246 -0.5429 -0.2106
 2204SOL    HW1 8766   0.445   1.668   3.373  0.7924 -0.1947 -1.4751
 2204SOL    HW2 8767   0.593   1.648   3.352  1.0814  0.2669  0.0263
 2205SOL     OW 8768   4.874   7.896   1.366 -0.4390  0.4604 -0.0682
 2205SOL    HW1 8769   4.936   7.823   1.364 -0.1522  0.6880  0.4380
 2205SOL    HW2 8770   4.862   7.918   1.274  1.9955  1.8731 -0.1353
 2206SOL     OW 8771   3.151   4.094   8.743 -0.0048  0.2335  0.2143
 2206SOL    HW1 8772   3.100   4.139   8.810  0.9874 -1.1228  1.9706
 2206SOL    HW2 8773   3.217   4.158   8.715 -1.9164  1.6372 -1.3245
 2207SOL     OW 8774   2.791   3.964   6.528  0.7513 -0.4504 -0.2766
 2207SOL    HW1 8775   2.717   4.015   6.559  0.8937 -0.8821  0.7884
 2207SOL    HW2 8776   2.815   4.006   6.445  1.5081  1.9092  1.0242
 2208SOL     OW 8777   9.093   3.265   3.305  0.2022  0.4228 -0.1984
 2208SOL    HW1 8778   9.044   3.296   3.229 -1.4612  0.4920  0.8598
 2208SOL    HW2 8779   9.106   3.172   3.288  1.2792  0.7447 -1.2962
 2209SOL     OW 8780   7.265   9.620   8.405 -1.0863  0.5544  0.2386
 2209SOL    HW1 8781   7.242   9.713   8.393 -1.3678  0.3246 -1.2466
 2209SOL    HW2 8782   7.183   9.577   8.427 -0.5814  0.9616  3.3760
 2210SOL     OW 8783   0.260   5.110   1.498 -0.2765  0.1047  0.4753
 2210SOL    HW1 8784   0.179   5.127   1.547 -0.3352  0.7331  0.1727
 2210SOL    HW2 8785   0.326   5.094   1.565 -0.8802 -1.5886  0.7190
 2211SOL     OW 8786   6.861   7.377   8.834  0.1928 -0.5261  0.2723
 2211SOL    HW1 8787   6.776   7.412   8.860  0.9204  0.8213  0.9119
 2211SOL    HW2 8788   6.844   7.284   8.819 -1.7265 -0.0250 -1.1233
 2212SOL     OW 8789   0.458   9.113   3.020  1.0901 -0.4402  0.5101
 2212SOL    HW1 8790   0.435   9.079   3.106  1.8316  1.1470  1.3739
 2212SOL    HW2 8791   0.547   9.146   3.030 -0.0830  3.1716  0.2443
 2213SOL     OW 8792   4.884   8.652   1.905  0.0157  0.0445  0.3076
 2213SOL    HW1 8793   4.946   8.614   1.843  0.6549 -0.7022  1.3622
 2213SOL    HW2 8794   4.798   8.640   1.864  0.2000 -2.4148  0.4723
 2214SOL     OW 8795   0.795   1.089   3.769 -0.0257 -0.4482 -0.3293
 2214SOL    HW1 8796   0.734   1.110   3.699  2.1564  2.3778 -1.5784
 2214SOL    HW2 8797   0.872   1.053   3.724  1.8073  2.3103  0.3191
 2215SOL     OW 8798   0.251   5.313   6.112 -0.2625 -0.1092  0.2615
 2215SOL    HW1 8799   0.328   5.267   6.077  0.3624  1.1576 -0.0698
 2215SOL    HW2 8800   0.272   5.327   6.204 -1.1461 -1.8691  0.7669
 2216SOL     OW 8801   4.710   2.077   8.793  0.2037 -0.5103 -0.2460
 2216SOL    HW1 8802   4.723   2.052   8.884 -0.1419  2.2855  0.6867
 2216SOL    HW2 8803   4.614   2.079   8.782  0.1877  1.0237 -0.0271
 2217SOL     OW 8804   1.730   8.307   3.696 -1.3851 -0.1394 -0.0488
 2217SOL    HW1 8805   1.684   8.239   3.745 -2.1331 -0.2030 -0.8173
 2217SOL    HW2 8806   1.671   8.382   3.697  0.1820  1.1894  2.3570
 2218SOL     OW 8807   7.601   2.355   2.122  0.0184 -0.3637  0.4971
 2218SOL    HW1 8808   7.666   2.345   2.052  2.1445 -1.1883  2.4630
 2218SOL    HW2 8809   7.524   2.308   2.089  1.0596 -1.0350 -1.1328
 2219SOL     OW 8810   4.661   2.143   5.491  0.2769 -0.5791  0.4543
 2219SOL    HW1 8811   4.644   2.123   5.399 -0.0394 -0.9458  0.5897
 2219SOL    HW2 8812   4.678   2.058   5.531  3.3723 -0.2172  0.1604
 2220SOL     OW 8813   5.119   5.879   1.977 -0.0575  0.1825  0.0637
 2220SOL    HW1 8814   5.165   5.797   1.997  0.5799  0.8498  1.4578
 2220SOL    HW2 8815   5.153   5.906   1.892  0.4457 -0.4880  0.0474
 2221SOL     OW 8816   5.179   0.575   7.091  0.0513 -0.0125  0.0970
 2221SOL    HW1 8817   5.118   0.648   7.089  0.0672 -0.0137 -1.8586
 2221SOL    HW2 8818   5.264   0.614   7.072  0.7957  0.0305  3.0132
 2222SOL     OW 8819   2.365   3.126   3.329 -0.0094  0.0636  0.0887
 2222SOL    HW1 8820   2.417   3.206   3.333 -1.2349  0.8433  1.2140
 2222SOL    HW2 8821   2.429   3.056   3.320  1.2832  0.9502  1.7948
 2223SOL     OW 8822   6.501   2.923   2.074  0.1673  0.6304 -0.7098
 2223SOL    HW1 8823   6.424   2.958   2.029 -0.1002 -1.4537 -2.0106
 2223SOL    HW2 8824   6.486   2.944   2.166 -1.9988  0.2590 -0.9264
 2224SOL     OW 8825   5.357   6.076   3.276 -0.5886 -0.2146  0.4349
 2224SOL    HW1 8826   5.368   5.983   3.298  1.5357  0.2834  1.7782
 2224SOL    HW2 8827   5.424   6.121   3.328  0.0272  1.8444 -1.9414
 2225SOL     OW 8828   1.828   0.282   4.360 -0.3935 -1.0646 -0.2531
 2225SOL    HW1 8829   1.777   0.263   4.439  0.9427  0.0750  0.9380
 2225SOL    HW2 8830   1.813   0.375   4.343 -1.1117 -1.4090 -1.7228
 2226SOL     OW 8831   4.394   0.830   1.890  0.5307 -0.0557  0.6434
 2226SOL    HW1 8832   4.407   0.875   1.974  1.1466 -2.6124  2.0094
 2226SOL    HW2 8833   4.471   0.855   1.838  0.6570  0.7803  1.2103
 2227SOL     OW 8834   4.790   0.274   5.251  0.1850  0.5523  0.1754
 2227SOL    HW1 8835   4.805   0.359   5.294  0.9557 -0.4587  2.0326
 2227SOL    HW2 8836   4.716   0.236   5.299  0.5560 -0.2719  0.1176
 2228SOL     OW 8837   7.559   7.533   6.442  0.0616  0.3771  0.4113
 2228SOL    HW1 8838   7.464   7.544   6.449  0.0175  0.0606  0.3026
 2228SOL    HW2 8839   7.582   7.574   6.358 -0.0851 -0.2211  0.0723
 2229SOL     OW 8840   0.825   8.147   5.728 -0.5061  0.5967  0.8154
 2229SOL    HW1 8841   0.817   8.113   5.817  0.3139 -0.1133  0.6356
 2229SOL    HW2 8842   0.887   8.219   5.735  0.4756 -0.2038  0.6557
 2230SOL     OW 8843   8.572   2.316   1.140  0.9377  0.1672 -0.1402
 2230SOL    HW1 8844   8.539   2.252   1.203 -0.2072  0.5392 -0.3430
 2230SOL    HW2 8845   8.552   2.279   1.054  2.3133 -0.2422 -0.3126
 2231SOL     OW 8846   5.827   7.035   6.655  0.4336 -0.0715  0.3163
 2231SOL    HW1 8847   5.843   7.002   6.744 -1.0338 -3.1098 -0.4283
 2231SOL    HW2 8848   5.914   7.054   6.620  1.0626  0.7550  2.2022
 2232SOL     OW 8849   0.327   7.993   4.100  0.4589  0.2346  0.0792
 2232SOL    HW1 8850   0.408   7.945   4.114  0.6155  0.7708  1.1260
 2232SOL    HW2 8851   0.355   8.080   4.073  0.1998  0.0766 -0.7321
 2233SOL     OW 8852   2.907   3.913   9.083  0.9556  0.0272  0.0742
 2233SOL    HW1 8853   2.864   3.997   9.096 -0.3570 -0.7599  1.0704
 2233SOL    HW2 8854   2.943   3.891   9.169 -0.7478 -1.4841  0.4473
 2234SOL     OW 8855   6.932   9.020   2.075 -1.0577  0.3681  0.3050
 2234SOL    HW1 8856   6.865   8.962   2.110 -0.8584  0.3885  0.7308
 2234SOL    HW2 8857   6.934   9.093   2.137 -3.9260  2.7623 -2.1139
 2235SOL     OW 8858   0.058   2.034   2.526 -0.3550  0.0113 -0.3720
 2235SOL    HW1 8859   0.052   2.004   2.435  0.1358 -1.7315  0.1325
 2235SOL    HW2 8860  -0.030   2.065   2.546 -0.3433  0.9122 -1.5802
 2236SOL     OW 8861   7.462   9.394   2.477  0.3498 -0.2764  0.1979
 2236SOL    HW1 8862   7.494   9.454   2.410  1.6162 -1.7364 -0.5693
 2236SOL    HW2 8863   7.501   9.426   2.558 -1.0930  1.4295  0.2828
 2237SOL     OW 8864   1.160   3.057   7.797  0.0322  0.2622 -0.0527
 2237SOL    HW1 8865   1.237   3.002   7.816 -0.4316 -1.1491 -1.9750
 2237SOL    HW2 8866   1.091   3.019   7.852  0.3111  0.5596  0.5203
 2238SOL     OW 8867   4.206   8.472   3.538  0.4138 -0.0699 -0.1350
 2238SOL    HW1 8868   4.196   8.481   3.632 -2.1025  0.5565 -0.3938
 2238SOL    HW2 8869   4.261   8.547   3.512  0.5965  0.1058  0.7428
 2239SOL     OW 8870   8.710   6.639   5.874  0.4558  0.4714 -0.3950
 2239SOL    HW1 8871   8.654   6.565   5.899  0.2229  1.0058  0.7579
 2239SOL    HW2 8872   8.763   6.606   5.802 -0.7695 -0.3100 -0.9649
 2240SOL     OW 8873   3.712   4.568   9.175  0.0804  0.1076  0.0645
 2240SOL    HW1 8874   3.641   4.505   9.168  1.1346 -1.0718 -0.3332
 2240SOL    HW2 8875   3.682   4.630   9.242 -1.6982  0.1987 -0.7505
 2241SOL     OW 8876   5.161   5.269   3.337  0.2669  0.1715 -0.3148
 2241SOL    HW1 8877   5.107   5.223   3.401  0.2514 -1.9981 -1.7460
 2241SOL    HW2 8878   5.201   5.198   3.286 -0.6321  1.7526 -3.4387
 2242SOL     OW 8879   2.747   8.440   4.305 -0.1023 -0.3134  0.7569
 2242SOL    HW1 8880   2.835   8.445   4.341 -0.4248 -0.0873  1.5319
 2242SOL    HW2 8881   2.757   8.388   4.224  0.2730 -2.9284  2.3663
 2243SOL     OW 8882   7.259   0.095   6.331  0.1352  0.9393 -0.2559
 2243SOL    HW1 8883   7.223   0.075   6.245  0.8078  1.6009 -0.7037
 2243SOL    HW2 8884   7.334   0.152   6.313  2.8263 -2.0828  0.4303
 2244SOL     OW 8885   0.372   4.929   2.668 -0.2435  0.2187 -0.7197
 2244SOL    HW1 8886   0.405   4.896   2.751 -1.3205  0.2604 -0.2550
 2244SOL    HW2 8887   0.289   4.972   2.690 -1.4187 -1.2471 -2.0283
 2245SOL     OW 8888   1.057   8.301   1.080 -0.4388  0.0786 -0.0928
 2245SOL    HW1 8889   1.009   8.224   1.112 -3.4376  1.8027 -0.0201
 2245SOL    HW2 8890   1.065   8.358   1.156  0.5356  0.4208 -0.4374
 2246SOL     OW 8891   0.068   7.123   2.303  0.0322 -0.4492 -0.1781
 2246SOL    HW1 8892   0.016   7.105   2.225 -0.2872 -0.5031  0.0450
 2246SOL    HW2 8893   0.059   7.045   2.357 -0.2764 -0.1570  0.2016
 2247SOL     OW 8894   0.313   7.973   6.502 -0.3343 -0.1502 -0.0648
 2247SOL    HW1 8895   0.239   7.936   6.454  0.1994 -1.0422 -0.2326
 2247SOL    HW2 8896   0.319   7.921   6.582 -0.9275  1.0220  0.7748
 2248SOL     OW 8897   3.996   9.348   6.531 -0.4890  0.7596 -0.2785
 2248SOL    HW1 8898   3.968   9.314   6.617  0.8525 -1.2269 -0.5557
 2248SOL    HW2 8899   3.924   9.325   6.473 -1.5949  2.4818  0.3214
 2249SOL     OW 8900   3.952   4.167   1.682 -0.3592 -1.2628  0.0843
 2249SOL    HW1 8901   4.008   4.239   1.653 -0.3721 -0.3949  2.0495
 2249SOL    HW2 8902   3.871   4.178   1.632 -0.7211  0.7133  0.9868
 2250SOL     OW 8903   4.738   3.103   0.621  0.1922 -0.3735 -0.3378
 2250SOL    HW1 8904   4.660   3.107   0.567  0.8032 -1.2050 -1.3176
 2250SOL    HW2 8905   4.707   3.068   0.705 -0.8027  1.1649 -0.0236
 2251SOL     OW 8906   8.284   0.324   4.185 -0.0819  0.4614  0.3519
 2251SOL    HW1 8907   8.219   0.254   4.184  1.5460 -1.1037  0.0433
 2251SOL    HW2 8908   8.293   0.347   4.278 -0.5683  0.2121  0.4637
 2252SOL     OW 8909   4.549   1.511   9.122 -0.4931  0.4699  0.3848
 2252SOL    HW1 8910   4.514   1.549   9.042  0.9458 -0.6268 -0.8142
 2252SOL    HW2 8911   4.627   1.563   9.142 -0.4588  0.3100  0.6824
 2253SOL     OW 8912   6.161   5.068   1.240  0.7626  0.2887 -0.2801
 2253SOL    HW1 8913   6.139   5.008   1.311 -0.3123  1.8542  0.7876
 2253SOL    HW2 8914   6.097   5.048   1.171 -0.1247  0.7094  0.3937
 2254SOL     OW 8915   5.789   1.494   0.144  0.0732 -0.4419  0.3736
 2254SOL    HW1 8916   5.695   1.492   0.126  0.0000 -1.1710  0.7880
 2254SOL    HW2 8917   5.827   1.540   0.070 -0.1505 -3.6184 -1.9207
 2255SOL     OW 8918   6.601   3.457   8.803  0.2528  0.3817 -0.6662
 2255SOL    HW1 8919   6.550   3.407   8.866  1.7161 -0.1551  0.1322
 2255SOL    HW2 8920   6.550   3.451   8.722 -0.0800 -1.6534 -0.3736
 2256SOL     OW 8921   4.268   0.400   4.320  0.1405 -0.4352  0.3670
 2256SOL    HW1 8922   4.250   0.455   4.243  2.4491  0.6141  0.4795
 2256SOL    HW2 8923   4.234   0.450   4.393  2.0381  0.8737  0.4441
 2257SOL     OW 8924   7.865   4.558   0.635  0.1296 -0.3846  0.5094
 2257SOL    HW1 8925   7.903   4.509   0.562  1.8826  0.4117  0.8212
 2257SOL    HW2 8926   7.772   4.536   0.633  0.3695 -1.4598 -1.0998
 2258SOL     OW 8927   5.457   3.053   0.661 -0.0417  0.4758 -0.0311
 2258SOL    HW1 8928   5.365   3.080   0.656  0.5598  2.3567 -1.8273
 2258SOL    HW2 8929   5.505   3.134   0.675  1.4570 -0.3465 -0.2769
 2259SOL     OW 8930   7.928   2.109   2.072 -0.4094  0.2146  0.6825
 2259SOL    HW1 8931   8.014   2.112   2.116 -0.2024  0.4779  0.2644
 2259SOL    HW2 8932   7.906   2.200   2.055  0.8524  0.0711 -2.3076
 2260SOL     OW 8933   3.755   4.906   4.670 -0.5798 -0.0867  0.2376
 2260SOL    HW1 8934   3.746   4.815   4.644  1.3527 -0.5308  0.9439
 2260SOL    HW2 8935   3.691   4.953   4.617 -1.2547 -1.7737 -0.5059
 2261SOL     OW 8936   5.334   3.278   0.263  0.0952  0.3626 -0.6387
 2261SOL    HW1 8937   5.292   3.195   0.284 -0.2033  0.9761  1.4735
 2261SOL    HW2 8938   5.359   3.271   0.171  1.1516 -2.5203 -0.2168
 2262SOL     OW 8939   4.012   3.021   7.564  0.4030  0.5145 -0.3687
 2262SOL    HW1 8940   4.012   3.075   7.643  0.1511  2.1964 -1.4632
 2262SOL    HW2 8941   4.044   2.936   7.593 -2.8168  0.0016  2.2334
 2263SOL     OW 8942   6.932   2.092   1.071  0.6699  0.0570 -0.3256
 2263SOL    HW1 8943   6.913   2.165   1.013 -0.7987 -0.7788 -0.9643
 2263SOL    HW2 8944   6.897   2.119   1.156 -2.1353 -0.7699 -1.1020
 2264SOL     OW 8945   0.253   1.354   7.398 -0.1192  0.5725  0.0495
 2264SOL    HW1 8946   0.177   1.303   7.370  1.0767 -0.9904 -0.4166
 2264SOL    HW2 8947   0.271   1.325   7.487 -0.1180  1.0332  0.2067
 2265SOL     OW 8948   6.686   5.281   1.408  0.0721  0.4626 -0.2895
 2265SOL    HW1 8949   6.732   5.278   1.492 -1.1368 -0.8212  0.3960
 2265SOL    HW2 8950   6.599   5.246   1.428 -0.2996  0.2700 -2.0580
 2266SOL     OW 8951   7.442   3.603   8.434 -0.0691 -0.0419  0.1774
 2266SOL    HW1 8952   7.456   3.686   8.480 -1.9779 -0.0434  0.8325
 2266SOL    HW2 8953   7.501   3.542   8.478 -1.1683  0.1786  2.0810
 2267SOL     OW 8954   1.605   2.734   2.429 -0.2559 -0.0773  0.2711
 2267SOL    HW1 8955   1.700   2.723   2.441 -0.2854  1.3685  2.1714
 2267SOL    HW2 8956   1.595   2.743   2.334  1.2650 -2.0731 -0.1484
 2268SOL     OW 8957   6.736   9.520   9.188 -0.0627 -0.2573  0.1570
 2268SOL    HW1 8958   6.729   9.554   9.098  2.3641 -1.7213 -0.6954
 2268SOL    HW2 8959   6.667   9.454   9.194 -0.2390 -0.1631 -0.6406
 2269SOL     OW 8960   4.848   5.455   0.949 -0.3983  0.3877 -0.0778
 2269SOL    HW1 8961   4.884   5.442   1.036  0.9451  0.8645 -0.5383
 2269SOL    HW2 8962   4.868   5.375   0.902 -2.0546 -0.3056  0.3198
 2270SOL     OW 8963   8.300   0.121   6.369  0.1066  0.6331 -0.5077
 2270SOL    HW1 8964   8.223   0.177   6.380 -1.4868 -1.6566  0.9965
 2270SOL    HW2 8965   8.282   0.071   6.289  1.3025  1.8952 -1.5967
 2271SOL     OW 8966   0.157   6.956   0.157  0.3836  0.2573  0.1017
 2271SOL    HW1 8967   0.157   7.044   0.121 -1.3212  0.8632  1.4098
 2271SOL    HW2 8968   0.228   6.955   0.221 -0.3390  1.1292  0.9597
 2272SOL     OW 8969   3.695   8.733   2.702 -0.3781  0.1666 -0.5513
 2272SOL    HW1 8970   3.726   8.644   2.718 -0.4382  0.1928 -0.2874
 2272SOL    HW2 8971   3.773   8.781   2.674 -0.7228 -0.4732 -2.8043
 2273SOL     OW 8972   8.614   0.829   5.714 -0.7060 -0.0303  0.0401
 2273SOL    HW1 8973   8.706   0.830   5.689  0.0008 -2.3606  2.1198
 2273SOL    HW2 8974   8.600   0.911   5.762 -0.1731  1.0366 -1.5732
 2274SOL     OW 8975   7.410   3.369   8.754 -0.0181  0.4210  0.2804
 2274SOL    HW1 8976   7.406   3.464   8.764 -1.0753  0.4301 -0.1235
 2274SOL    HW2 8977   7.321   3.344   8.728  0.2443 -0.6810  0.4128
 2275SOL     OW 8978   8.285   0.676   3.886  0.7404 -0.0045 -0.5835
 2275SOL    HW1 8979   8.248   0.699   3.801 -1.0513  1.2390  0.4748
 2275SOL    HW2 8980   8.213   0.635   3.933  2.2924 -2.7385 -0.3637
 2276SOL     OW 8981   4.976   0.261   0.639  0.2916  0.0124  0.2811
 2276SOL    HW1 8982   5.025   0.193   0.594 -2.6141 -1.0332 -1.6187
 2276SOL    HW2 8983   5.034   0.290   0.709  2.8163 -2.3131 -0.6595
 2277SOL     OW 8984   0.432   0.029   2.920 -0.1778 -0.2647 -0.1336
 2277SOL    HW1 8985   0.359  -0.003   2.973  0.6970 -0.0385  1.2822
 2277SOL    HW2 8986   0.480  -0.050   2.895 -1.4677 -0.5151 -2.0183
 2278SOL     OW 8987   5.346   2.669   5.195  0.0888  0.1755  0.0173
 2278SOL    HW1 8988   5.355   2.595   5.135  0.7098  0.3412 -0.1068
 2278SOL    HW2 8989   5.263   2.710   5.172  0.3098  0.2189 -0.7039
 2279SOL     OW 8990   8.949   6.585   9.097 -0.3365 -0.3819 -0.2122
 2279SOL    HW1 8991   8.862   6.592   9.136 -0.2490 -0.5208  0.0122
 2279SOL    HW2 8992   8.933   6.549   9.010 -0.7347  1.9048 -1.1489
 2280SOL     OW 8993   5.155   9.513   8.724 -0.1320  0.2236  0.2853
 2280SOL    HW1 8994   5.124   9.427   8.751 -0.9763  0.3726 -0.1731
 2280SOL    HW2 8995   5.102   9.574   8.776 -0.8828  0.4897 -0.7777
 2281SOL     OW 8996   8.156   8.035   7.512 -0.0791 -0.6517 -0.3852
 2281SOL    HW1 8997   8.212   7.963   7.483  0.6440  0.3524 -1.5557
 2281SOL    HW2 8998   8.194   8.113   7.473 -0.7539  0.4131  0.9772
 2282SOL     OW 8999   6.719   4.371   6.016 -0.1070 -0.3007  0.0294
 2282SOL    HW1 9000   6.800   4.359   6.066  1.0010 -0.7727 -1.7624
 2282SOL    HW2 9001   6.651   4.329   6.069  0.5684  1.0384  2.1030
 2283SOL     OW 9002   0.296   0.896   5.812 -0.3068 -0.8043  0.2690
 2283SOL    HW1 9003   0.386   0.923   5.828 -1.2416  2.7824  0.3966
 2283SOL    HW2 9004   0.279   0.828   5.879  2.4870 -2.3597 -0.4473
 2284SOL     OW 9005   3.962   0.866   4.418  0.7833 -0.5266 -0.4221
 2284SOL    HW1 9006   3.885   0.848   4.472 -0.0039  1.0951 -0.9474
 2284SOL    HW2 9007   3.935   0.840   4.329 -0.1009  2.2105 -1.0550
 2285SOL     OW 9008   2.723   8.464   0.795  0.1956  0.0611 -0.7815
 2285SOL    HW1 9009   2.723   8.416   0.712  2.0791  0.7350 -1.2290
 2285SOL    HW2 9010   2.747   8.553   0.770  0.1807  0.4155  0.4282
 2286SOL     OW 9011   7.828   9.014   2.941  0.5089  0.3522 -0.4231
 2286SOL    HW1 9012   7.898   9.058   2.989 -2.1631  2.9756  1.4091
 2286SOL    HW2 9013   7.819   8.929   2.985  1.7971  0.4234  0.0161
 2287SOL     OW 9014   3.410   6.786   2.587  0.5202 -0.2997  0.1731
 2287SOL    HW1 9015   3.399   6.710   2.530  1.3578 -0.8236  0.6954
 2287SOL    HW2 9016   3.447   6.751   2.668  1.8041  0.7577  0.0947
 2288SOL     OW 9017   4.388   2.117   4.028 -0.3326  0.7854 -0.4812
 2288SOL    HW1 9018   4.294   2.125   4.010 -0.1420  1.2055 -1.3248
 2288SOL    HW2 9019   4.398   2.148   4.118 -0.9464  1.1381 -0.5298
 2289SOL     OW 9020   5.241   2.018   3.913 -0.4943  0.3208  0.5792
 2289SOL    HW1 9021   5.232   2.114   3.913 -0.9080  0.3513 -1.8051
 2289SOL    HW2 9022   5.209   1.991   3.999  2.2641  2.4763  2.4576
 2290SOL     OW 9023   1.023   4.817   3.433  0.3393 -0.3327  0.7332
 2290SOL    HW1 9024   1.059   4.729   3.421  2.2191  0.7529 -3.9406
 2290SOL    HW2 9025   1.100   4.872   3.453 -0.5477  0.5067  1.9539
 2291SOL     OW 9026   6.258   7.680   1.065 -0.2842 -0.2597 -0.1676
 2291SOL    HW1 9027   6.353   7.685   1.060  0.1069 -4.5035 -2.0303
 2291SOL    HW2 9028   6.227   7.733   0.992  0.7420  0.2254 -0.2634
 2292SOL     OW 9029   4.405   3.297   7.507  0.6280 -0.5983 -0.1140
 2292SOL    HW1 9030   4.483   3.341   7.475  0.0905  1.2675  0.9840
 2292SOL    HW2 9031   4.392   3.333   7.595 -1.1326 -1.2872 -0.0568
 2293SOL     OW 9032   9.014   1.974   0.836 -0.2682  0.1188  0.1255
 2293SOL    HW1 9033   9.065   1.937   0.765 -1.3196  1.9186 -1.6683
 2293SOL    HW2 9034   8.969   1.899   0.876  1.1223 -1.0376 -0.4253
 2294SOL     OW 9035   5.235   3.967   8.782 -0.1332 -0.0564  0.4645
 2294SOL    HW1 9036   5.272   3.994   8.866 -1.4297 -1.4261  1.5255
 2294SOL    HW2 9037   5.310   3.933   8.733  1.0572  2.8244  0.1049
 2295SOL     OW 9038   0.353   6.576   7.974  0.1257  0.6767  0.4237
 2295SOL    HW1 9039   0.332   6.500   8.030 -0.1853 -0.3884 -1.0768
 2295SOL    HW2 9040   0.283   6.577   7.909 -0.4462  2.9169  1.0024
 2296SOL     OW 9041   1.252   2.275   8.616  0.1066  0.0883 -0.1820
 2296SOL    HW1 9042   1.196   2.227   8.677 -1.7322  1.1359 -0.9553
 2296SOL    HW2 9043   1.221   2.250   8.529 -0.9847  2.6081 -0.6092
 2297SOL     OW 9044   3.433   0.383   3.076  0.1350 -0.1520 -0.2045
 2297SOL    HW1 9045   3.415   0.462   3.128 -0.0017 -0.7101  0.6158
 2297SOL    HW2 9046   3.411   0.408   2.986 -0.1561  0.6646  0.0831
 2298SOL     OW 9047   3.053   7.755   6.002 -0.4253  0.3647 -0.5745
 2298SOL    HW1 9048   3.129   7.721   6.049 -0.3978 -1.7557 -2.0423
 2298SOL    HW2 9049   3.090   7.800   5.926 -0.6140 -0.8766 -1.4192
 2299SOL     OW 9050   6.166   4.457   0.742  0.1097 -0.5272 -0.1567
 2299SOL    HW1 9051   6.089   4.464   0.687  0.7386 -1.4755 -1.2060
 2299SOL    HW2 9052   6.212   4.540   0.729  0.4856 -0.9082 -1.4656
 2300SOL     OW 9053   1.398   8.739   7.759 -0.0432 -0.7121 -0.1016
 2300SOL    HW1 9054   1.326   8.714   7.818 -0.5963  0.4588 -0.2375
 2300SOL    HW2 9055   1.385   8.685   7.681 -0.5923 -0.7582  0.0141
 2301SOL     OW 9056   8.085   2.041   0.943  0.3667  0.2601 -0.0688
 2301SOL    HW1 9057   8.098   2.104   0.873 -2.6703 -0.2184 -1.2078
 2301SOL    HW2 9058   8.013   2.076   0.994  1.1247 -0.4780  1.5855
 2302SOL     OW 9059   5.439   1.962   7.829  0.4715  0.4483  0.6690
 2302SOL    HW1 9060   5.475   1.876   7.850 -0.4403 -0.7244 -2.1045
 2302SOL    HW2 9061   5.347   1.957   7.852  0.4500  0.7510  0.6585
 2303SOL     OW 9062   9.542   5.408   7.391 -0.2449 -0.1507  0.5435
 2303SOL    HW1 9063   9.483   5.415   7.316 -1.5929  1.6827  1.6980
 2303SOL    HW2 9064   9.518   5.327   7.434 -0.8313 -0.2070  0.1194
 2304SOL     OW 9065   7.236   0.273   1.005  0.4540  0.2961 -0.1399
 2304SOL    HW1 9066   7.237   0.185   0.967  0.3932  0.3407 -0.2472
 2304SOL    HW2 9067   7.163   0.272   1.067 -0.3087  0.6256 -1.0060
 2305SOL     OW 9068   3.350   2.571   2.082 -0.3978  0.0422 -0.1070
 2305SOL    HW1 9069   3.336   2.477   2.074  1.1398 -0.2070 -0.1879
 2305SOL    HW2 9070   3.441   2.584   2.057 -1.1867  1.8729 -2.3546
 2306SOL     OW 9071   7.022   8.509   0.768 -0.0164 -0.1820  0.3309
 2306SOL    HW1 9072   7.080   8.526   0.842 -0.7890  0.6307  0.7722
 2306SOL    HW2 9073   6.976   8.428   0.791 -0.2947  0.1002  0.7569
 2307SOL     OW 9074   6.007   6.507   5.494  0.3462 -0.3196 -0.1077
 2307SOL    HW1 9075   6.018   6.412   5.497  1.5638 -0.1666  1.3580
 2307SOL    HW2 9076   6.059   6.534   5.417 -0.0101 -0.8230 -0.5358
 2308SOL     OW 9077   0.822   1.322   2.930 -0.3790  0.3805  0.8344
 2308SOL    HW1 9078   0.882   1.281   2.867 -1.2712 -0.6445  0.6244
 2308SOL    HW2 9079   0.790   1.400   2.884  0.8233  0.9840  0.9792
 2309SOL     OW 9080   5.896   7.831   9.498  0.2384 -0.1674 -0.2389
 2309SOL    HW1 9081   5.979   7.850   9.542 -0.5932 -3.2729  3.1395
 2309SOL    HW2 9082   5.913   7.752   9.447 -0.3265 -0.0344 -0.6415
 2310SOL     OW 9083   5.942   8.290   3.232  0.4191  0.4936  0.6558
 2310SOL    HW1 9084   5.848   8.283   3.251  0.2397 -1.7995 -0.6789
 2310SOL    HW2 9085   5.945   8.313   3.139  1.1793  0.2976  0.6318
 2311SOL     OW 9086   7.546   1.017   6.764  0.5622  0.4091 -0.1591
 2311SOL    HW1 9087   7.572   1.023   6.856  0.3808  0.8052 -0.1296
 2311SOL    HW2 9088   7.600   1.083   6.720 -0.6135  1.4868 -0.0438
 2312SOL     OW 9089   7.756   6.915   4.029  0.0113 -0.2922 -0.5451
 2312SOL    HW1 9090   7.685   6.920   4.093  0.4174 -1.9687  0.0949
 2312SOL    HW2 9091   7.712   6.916   3.944 -0.5543  1.6257 -0.2640
 2313SOL     OW 9092   4.923   6.040   8.346 -0.4459  0.2676  0.3537
 2313SOL    HW1 9093   4.841   6.090   8.342 -1.1024 -0.7728  0.2859
 2313SOL    HW2 9094   4.979   6.080   8.280 -1.8984 -0.6665 -1.5607
 2314SOL     OW 9095   0.410   8.073   3.099 -0.2373  0.2081  0.5452
 2314SOL    HW1 9096   0.473   8.099   3.167 -0.5939  1.8464  0.3007
 2314SOL    HW2 9097   0.445   8.112   3.019 -0.7026 -0.2803  0.1032
 2315SOL     OW 9098   4.260   0.147   6.346 -0.0793 -0.7495 -0.0002
 2315SOL    HW1 9099   4.341   0.171   6.302 -0.4072  1.5958  0.5492
 2315SOL    HW2 9100   4.288   0.120   6.434  0.3371 -3.0381 -0.7690
 2316SOL     OW 9101   6.061   6.616   7.100  0.1765 -0.1003  0.3403
 2316SOL    HW1 9102   6.115   6.554   7.150  0.1675 -0.6407 -0.3000
 2316SOL    HW2 9103   6.056   6.694   7.155 -0.6763 -1.0391  1.6480
 2317SOL     OW 9104   8.747   2.762   2.596  0.1422 -0.1965  0.2777
 2317SOL    HW1 9105   8.697   2.720   2.526  0.4710  2.4271 -1.6907
 2317SOL    HW2 9106   8.818   2.701   2.615 -0.5220 -1.4140 -0.9812
 2318SOL     OW 9107   5.719   3.082   5.304  0.0996 -0.3323  0.0935
 2318SOL    HW1 9108   5.794   3.048   5.353 -0.3346 -2.8695 -0.8270
 2318SOL    HW2 9109   5.647   3.025   5.328 -2.0672  2.9098  2.0869
 2319SOL     OW 9110   0.225   5.740   1.306 -0.3725  0.2710  0.2497
 2319SOL    HW1 9111   0.298   5.687   1.272 -1.7809 -1.4349 -0.3183
 2319SOL    HW2 9112   0.226   5.819   1.252  0.7694  0.0777 -0.0438
 2320SOL     OW 9113   6.120   1.166   2.433  0.0381  0.6533  0.0960
 2320SOL    HW1 9114   6.057   1.183   2.363  1.3280  1.5692 -0.8722
 2320SOL    HW2 9115   6.131   1.071   2.433  0.1259  0.6511 -1.0438
 2321SOL     OW 9116   3.340   2.272   0.122 -0.3669  0.1519  0.8730
 2321SOL    HW1 9117   3.360   2.235   0.208  1.0357  2.7418  1.7642
 2321SOL    HW2 9118   3.414   2.246   0.067 -1.0476 -1.1333  0.5343
 2322SOL     OW 9119   9.006   4.246   7.302 -0.1559 -0.0311  0.5056
 2322SOL    HW1 9120   9.068   4.257   7.230  0.2393  0.0409  0.8457
 2322SOL    HW2 9121   8.923   4.223   7.261 -0.1724  0.9468 -0.0343
 2323SOL     OW 9122   7.168   4.959   6.997  0.5469 -0.4241  0.0648
 2323SOL    HW1 9123   7.094   4.903   7.019  0.0745  0.0870 -0.2159
 2323SOL    HW2 9124   7.184   4.942   6.904  0.3693 -0.0581 -0.0343
 2324SOL     OW 9125   0.061   8.889   7.483  0.0591  0.2853 -0.1639
 2324SOL    HW1 9126   0.112   8.870   7.405 -0.3950 -1.6296 -0.0532
 2324SOL    HW2 9127   0.003   8.813   7.493 -0.6408  0.9749  1.4282
 2325SOL     OW 9128   8.281   8.579   4.859 -0.4873 -0.2294 -0.7150
 2325SOL    HW1 9129   8.261   8.562   4.951 -1.1061 -1.2889 -1.0197
 2325SOL    HW2 9130   8.370   8.615   4.859 -0.9013  0.8456  0.3735
 2326SOL     OW 9131   7.324   4.163   2.763 -0.1231  0.7399  0.1094
 2326SOL    HW1 9132   7.378   4.086   2.780 -0.1275  0.9373  1.0423
 2326SOL    HW2 9133   7.376   4.236   2.797 -0.4765  1.0595 -0.0378
 2327SOL     OW 9134   8.540   6.374   5.356  0.2982  0.9335  0.2605
 2327SOL    HW1 9135   8.483   6.445   5.330 -0.3071  0.6866  0.8832
 2327SOL    HW2 9136   8.486   6.318   5.412  0.2978 -0.8125 -1.3562
 2328SOL     OW 9137   4.381   3.708   1.224  0.3045  0.4418  0.0311
 2328SOL    HW1 9138   4.288   3.723   1.243  0.1984 -1.4101  1.1978
 2328SOL    HW2 9139   4.426   3.780   1.267 -0.4331 -0.1149  1.8406
 2329SOL     OW 9140   2.975   9.007   1.017 -0.6781 -0.2747  0.1922
 2329SOL    HW1 9141   3.038   9.050   1.074 -2.0717  0.2563  1.4153
 2329SOL    HW2 9142   3.000   9.034   0.929 -0.0539  1.0859  0.7503
 2330SOL     OW 9143   1.375   6.681   2.436  0.0301 -0.1754  0.6055
 2330SOL    HW1 9144   1.389   6.630   2.357  0.3327 -0.0190  0.5544
 2330SOL    HW2 9145   1.349   6.768   2.404  2.9737  0.8043  0.5420
 2331SOL     OW 9146   2.045   1.716   3.724 -0.6212 -0.2109  0.7671
 2331SOL    HW1 9147   2.108   1.665   3.776 -0.2955 -0.9977 -0.3659
 2331SOL    HW2 9148   2.008   1.779   3.787 -0.5018 -1.3536  2.0400
 2332SOL     OW 9149   8.855   1.169   9.004  0.0955 -0.2393  0.3020
 2332SOL    HW1 9150   8.821   1.099   9.059 -0.7189  0.8613  1.2507
 2332SOL    HW2 9151   8.900   1.228   9.065  1.9680 -0.5906 -0.6492
 2333SOL     OW 9152   5.412   1.179   2.079 -0.4029 -0.1769 -0.3557
 2333SOL    HW1 9153   5.507   1.170   2.067 -0.2982 -0.8952  0.8095
 2333SOL    HW2 9154   5.394   1.130   2.160 -1.8929 -0.7903 -1.0317
 2334SOL     OW 9155   7.711   4.661   2.034  0.1611  0.3005  0.2300
 2334SOL    HW1 9156   7.732   4.587   2.090  1.1922  0.4476  0.0483
 2334SOL    HW2 9157   7.795   4.693   2.002 -0.2836  1.3441  0.0365
 2335SOL     OW 9158   7.175   6.108   6.124  0.2744  0.1534 -0.6397
 2335SOL    HW1 9159   7.124   6.030   6.146 -1.6489  0.5670 -3.2464
 2335SOL    HW2 9160   7.246   6.108   6.188 -2.2347 -1.1550  2.4358
 2336SOL     OW 9161   5.075   4.440   8.601  0.0751  0.2901  0.3349
 2336SOL    HW1 9162   5.077   4.525   8.645  1.1534 -0.6625  2.2590
 2336SOL    HW2 9163   5.161   4.433   8.559 -0.1552  0.3022 -0.1441
 2337SOL     OW 9164   8.902   5.619   7.211  0.0777 -0.1666 -0.2225
 2337SOL    HW1 9165   8.827   5.568   7.241 -0.3333 -0.2773 -1.3804
 2337SOL    HW2 9166   8.966   5.554   7.182 -0.1024 -0.0573 -0.8918
 2338SOL     OW 9167   9.086   2.419   1.086  0.6222 -0.7205  0.0794
 2338SOL    HW1 9168   9.095   2.325   1.078  1.0252 -0.7044  0.2924
 2338SOL    HW2 9169   9.009   2.432   1.141  0.7353 -0.9348  0.2886
 2339SOL     OW 9170   0.941   2.353   4.272  0.5777 -0.1938  0.1477
 2339SOL    HW1 9171   0.931   2.335   4.365  0.3682 -0.0418  0.1552
 2339SOL    HW2 9172   0.987   2.276   4.237  2.2601  0.5298  0.6939
 2340SOL     OW 9173   5.772   5.399   6.564 -0.3479  0.6593  0.5889
 2340SOL    HW1 9174   5.690   5.437   6.594 -1.0041 -0.2499  0.0153
 2340SOL    HW2 9175   5.833   5.413   6.636 -1.3893  0.0995  1.6095
 2341SOL     OW 9176   3.199   4.392   6.263  0.3538 -0.1530  0.1531
 2341SOL    HW1 9177   3.210   4.329   6.334  0.7834  1.2112  1.3480
 2341SOL    HW2 9178   3.288   4.419   6.240  0.1625  0.2145 -0.1718
 2342SOL     OW 9179   1.144   8.089   6.398 -0.0974  0.4894  0.3288
 2342SOL    HW1 9180   1.108   8.004   6.372  0.1488  0.9677 -1.7361
 2342SOL    HW2 9181   1.232   8.091   6.360  0.0110  1.5445  0.5877
 2343SOL     OW 9182   1.860   5.335   7.066 -0.1976 -0.3557  0.0490
 2343SOL    HW1 9183   1.927   5.374   7.010 -0.1264 -0.8718 -0.2340
 2343SOL    HW2 9184   1.909   5.275   7.123 -0.3042 -0.0341  0.4835
 2344SOL     OW 9185   5.250   9.086   8.836  0.0027  0.3505  0.1325
 2344SOL    HW1 9186   5.306   9.049   8.768 -0.9079 -0.6248 -0.1113
 2344SOL    HW2 9187   5.185   9.137   8.789  1.0174  2.0082  0.4489
 2345SOL     OW 9188   9.404   4.719   4.702 -0.5704  0.6264 -0.2677
 2345SOL    HW1 9189   9.368   4.807   4.700  1.4320  1.4948 -0.7289
 2345SOL    HW2 9190   9.431   4.701   4.612  1.9287  0.8834  0.3496
 2346SOL     OW 9191   8.784   0.887   4.225  0.2103 -0.3517  0.1064
 2346SOL    HW1 9192   8.771   0.854   4.136  0.4700 -0.8772  0.2601
 2346SOL    HW2 9193   8.728   0.832   4.280 -1.2224  1.0096  0.0930
 2347SOL     OW 9194   3.363   3.955   7.269 -0.1143 -0.2113 -0.6099
 2347SOL    HW1 9195   3.402   4.010   7.337  0.1291 -0.4419 -0.5644
 2347SOL    HW2 9196   3.432   3.894   7.243  0.1140  0.4928 -1.7493
 2348SOL     OW 9197   5.458   3.751   0.496  0.2706  0.0958  0.0762
 2348SOL    HW1 9198   5.444   3.831   0.547 -0.3104 -0.4970  0.8727
 2348SOL    HW2 9199   5.373   3.707   0.497  0.4745 -0.3289 -0.7080
 2349SOL     OW 9200   8.118   8.847   7.062 -0.4833  0.7859 -0.3984
 2349SOL    HW1 9201   8.085   8.913   7.001 -0.9478  0.8487 -0.0806
 2349SOL    HW2 9202   8.114   8.889   7.148 -0.7365  0.3616 -0.2016
 2350SOL     OW 9203   0.488   5.681   4.953 -0.1419  0.8243  0.5956
 2350SOL    HW1 9204   0.407   5.643   4.918  0.3246 -0.7961  1.1828
 2350SOL    HW2 9205   0.558   5.638   4.904  0.4245  0.7583  1.4470
 2351SOL     OW 9206   1.928   1.640   5.708  0.1180 -0.1407 -0.4672
 2351SOL    HW1 9207   1.873   1.714   5.685 -1.1530 -1.4250 -1.8129
 2351SOL    HW2 9208   1.995   1.676   5.766 -1.0368  1.8324 -0.2894
 2352SOL     OW 9209   3.438   0.096   8.627 -0.3493 -0.1131 -0.1850
 2352SOL    HW1 9210   3.459   0.145   8.707  1.5715  0.2965 -0.8962
 2352SOL    HW2 9211   3.423   0.163   8.561  0.5677 -0.4666 -0.7559
 2353SOL     OW 9212   9.149   3.089   9.530  0.1829 -0.4874 -0.1392
 2353SOL    HW1 9213   9.080   3.108   9.466  0.7856  1.2953 -0.3098
 2353SOL    HW2 9214   9.230   3.112   9.486  1.0970 -3.5008 -0.3009
 2354SOL     OW 9215   7.381   0.479   4.275  0.2734  0.2086  0.4076
 2354SOL    HW1 9216   7.428   0.396   4.265  1.3699  0.9732 -1.4697
 2354SOL    HW2 9217   7.447   0.540   4.309  0.4039  1.0310 -1.2178
 2355SOL     OW 9218   0.583   4.798   0.946 -0.4379  0.7947 -0.8289
 2355SOL    HW1 9219   0.677   4.783   0.938 -0.4806 -0.6274  0.7636
 2355SOL    HW2 9220   0.544   4.746   0.876 -0.0449  1.5515 -1.6211
 2356SOL     OW 9221   9.617   7.156   8.556 -0.1374  0.1795  0.0664
 2356SOL    HW1 9222   9.545   7.218   8.565  0.0779  0.3617  0.5713
 2356SOL    HW2 9223   9.640   7.131   8.646 -0.9783 -1.5303 -0.1424
 2357SOL     OW 9224   6.399   6.042   5.714  0.2328  0.5069  0.0128
 2357SOL    HW1 9225   6.400   6.099   5.791  1.8608  2.2721 -1.2217
 2357SOL    HW2 9226   6.364   5.958   5.746 -1.2755  1.8601  2.1239
 2358SOL     OW 9227   4.056   6.041   8.525 -0.0186  0.3056 -0.0626
 2358SOL    HW1 9228   4.091   6.120   8.566 -1.6610  0.8703  0.2909
 2358SOL    HW2 9229   4.066   6.056   8.431  2.3241 -0.3376  0.0177
 2359SOL     OW 9230   3.726   8.103   1.953  0.0168  0.0559  0.5328
 2359SOL    HW1 9231   3.673   8.176   1.923  0.6146 -0.0654 -0.8617
 2359SOL    HW2 9232   3.678   8.025   1.928  1.0474 -0.0652 -1.2033
 2360SOL     OW 9233   1.641   9.193   2.939 -0.4952  0.2752  0.3780
 2360SOL    HW1 9234   1.603   9.109   2.912  0.5251 -0.3202  0.7427
 2360SOL    HW2 9235   1.643   9.188   3.035  0.6629  0.2031  0.3623
 2361SOL     OW 9236   6.965   0.476   4.599  0.2453  0.3345  0.3247
 2361SOL    HW1 9237   6.972   0.571   4.592 -0.3692  0.2673 -2.8227
 2361SOL    HW2 9238   7.054   0.447   4.620  0.3716  1.5927  1.6594
 2362SOL     OW 9239   9.275   0.548   4.642 -0.1394 -0.5502  0.2553
 2362SOL    HW1 9240   9.250   0.508   4.558  1.3032  1.2236 -1.0888
 2362SOL    HW2 9241   9.195   0.592   4.671 -0.7397 -1.4228 -0.0084
 2363SOL     OW 9242   0.145   4.198   1.258  0.4230 -0.9015 -0.1922
 2363SOL    HW1 9243   0.057   4.185   1.293 -0.6381  2.9186 -0.9969
 2363SOL    HW2 9244   0.196   4.226   1.334  0.0481  0.0474 -0.2706
 2364SOL     OW 9245   2.226   1.953   1.420 -0.1249  0.1008  0.4342
 2364SOL    HW1 9246   2.306   1.993   1.455  0.4383 -1.2187  0.7088
 2364SOL    HW2 9247   2.189   2.020   1.363 -0.3831  1.8521  2.5052
 2365SOL     OW 9248   5.964   2.052   4.166  0.3231  0.2934 -0.1570
 2365SOL    HW1 9249   5.952   2.133   4.216 -0.4826  0.1730 -0.1371
 2365SOL    HW2 9250   6.006   2.079   4.085  1.2734  0.5500  0.4077
 2366SOL     OW 9251   4.783   4.318   6.783 -0.2196  0.2023 -0.3003
 2366SOL    HW1 9252   4.804   4.303   6.875 -0.0394 -0.0817 -0.3866
 2366SOL    HW2 9253   4.786   4.231   6.743 -1.9511  0.0901 -0.2464
 2367SOL     OW 9254   7.332   3.129   0.355  0.3073 -0.4370 -0.2275
 2367SOL    HW1 9255   7.267   3.175   0.408  0.4950  0.3091 -0.6249
 2367SOL    HW2 9256   7.351   3.048   0.404 -0.6688 -0.5068  0.0510
 2368SOL     OW 9257   6.049   0.912   3.402  0.0356 -0.5896 -0.1697
 2368SOL    HW1 9258   5.993   0.921   3.479 -0.1792 -0.1344 -0.3833
 2368SOL    HW2 9259   6.026   0.826   3.366 -1.0627 -0.0947 -0.6878
 2369SOL     OW 9260   8.571   7.964   7.503 -0.0711  0.7560 -0.1997
 2369SOL    HW1 9261   8.664   7.981   7.483  0.5786 -1.4741  0.6187
 2369SOL    HW2 9262   8.529   7.961   7.417  1.5689 -2.8093 -1.0912
 2370SOL     OW 9263   7.540   3.895   4.922  0.3872 -0.1762  0.0130
 2370SOL    HW1 9264   7.513   3.844   4.999  1.4460 -0.5083  0.1895
 2370SOL    HW2 9265   7.635   3.882   4.917  0.3896  0.1582 -1.1313
 2371SOL     OW 9266   4.341   2.922   5.596  0.2531  0.0845  0.5141
 2371SOL    HW1 9267   4.279   2.905   5.666 -0.5293  1.0287  0.0789
 2371SOL    HW2 9268   4.358   2.837   5.557 -2.4040  0.0310 -0.6949
 2372SOL     OW 9269   5.183   5.848   7.847 -0.5506 -0.0590  0.4855
 2372SOL    HW1 9270   5.142   5.927   7.883 -0.7811 -0.1378  0.3953
 2372SOL    HW2 9271   5.192   5.790   7.922  3.1183  1.4517  1.4511
 2373SOL     OW 9272   2.260   8.140   7.713 -0.1231 -0.3651  0.0505
 2373SOL    HW1 9273   2.295   8.156   7.800 -0.6057 -0.4693  0.2690
 2373SOL    HW2 9274   2.243   8.227   7.677  2.1726 -0.2236 -0.8353
 2374SOL     OW 9275   7.460   2.586   6.189 -0.1165 -0.3991  0.0030
 2374SOL    HW1 9276   7.476   2.559   6.280 -1.4996 -0.8029  0.1552
 2374SOL    HW2 9277   7.453   2.681   6.193  0.7198 -0.3395  0.1639
 2375SOL     OW 9278   4.761   6.148   3.724  0.1315  0.1182  0.4914
 2375SOL    HW1 9279   4.841   6.200   3.732  0.1941 -0.1107  1.4202
 2375SOL    HW2 9280   4.786   6.075   3.668  0.9854 -0.7155  1.8966
 2376SOL     OW 9281   3.265   8.617   6.210 -0.0509  0.3652 -0.1186
 2376SOL    HW1 9282   3.276   8.679   6.282 -1.4160  0.5941 -0.0764
 2376SOL    HW2 9283   3.173   8.591   6.216  0.4710 -1.6491 -0.1421
 2377SOL     OW 9284   0.092   4.845   4.061 -0.4206  0.5304  0.0992
 2377SOL    HW1 9285   0.156   4.888   4.004 -0.4413  0.5034  0.0555
 2377SOL    HW2 9286   0.045   4.785   4.003 -0.0168  0.0389  0.2641
 2378SOL     OW 9287   6.327   8.271   1.061 -0.5014 -0.0738  0.1158
 2378SOL    HW1 9288   6.267   8.236   0.995 -2.0522  0.8945  0.9378
 2378SOL    HW2 9289   6.269   8.303   1.131  0.8749  2.1871  0.3398
 2379SOL     OW 9290   1.644   5.522   2.376 -0.0784 -0.4648 -0.1004
 2379SOL    HW1 9291   1.693   5.562   2.303 -0.1871 -1.3606 -0.6892
 2379SOL    HW2 9292   1.701   5.450   2.405  0.2584  0.2864  1.1458
 2380SOL     OW 9293   1.058   6.656   8.843  0.0816 -0.0560 -0.5784
 2380SOL    HW1 9294   1.148   6.672   8.872 -1.1827  2.2216  2.6469
 2380SOL    HW2 9295   1.023   6.592   8.905 -1.0610  0.5115 -0.6028
 2381SOL     OW 9296   4.168   7.354   2.801 -0.1788 -0.0301 -0.2389
 2381SOL    HW1 9297   4.102   7.395   2.857 -0.3673  0.2635 -0.6813
 2381SOL    HW2 9298   4.212   7.426   2.757  0.9365 -0.1743  0.5924
 2382SOL     OW 9299   4.232   4.299   3.664  0.1190 -0.3845 -0.1554
 2382SOL    HW1 9300   4.222   4.335   3.576  0.4311 -0.2282 -0.1289
 2382SOL    HW2 9301   4.302   4.234   3.655  0.0195 -0.5031 -0.0631
 2383SOL     OW 9302   8.361   0.112   8.127  0.1506  0.2542 -0.0439
 2383SOL    HW1 9303   8.371   0.037   8.186  1.2660  0.2363 -0.2385
 2383SOL    HW2 9304   8.378   0.075   8.040  0.8912  0.7688 -0.1220
 2384SOL     OW 9305   8.953   3.621   6.515  0.6401 -0.2909 -0.0271
 2384SOL    HW1 9306   8.907   3.559   6.458 -1.5347  0.6571  0.5630
 2384SOL    HW2 9307   8.992   3.684   6.455 -0.9935  0.2785 -0.5590
 2385SOL     OW 9308   8.448   8.782   0.131 -0.0652  0.3411  1.1233
 2385SOL    HW1 9309   8.486   8.799   0.045 -1.1424  2.6740  1.0154
 2385SOL    HW2 9310   8.404   8.864   0.154 -1.8790 -0.9984  2.8204
 2386SOL     OW 9311   4.786   6.917   6.945 -0.1569 -0.4763  0.2878
 2386SOL    HW1 9312   4.828   6.985   6.894 -1.2015  0.4725  0.6671
 2386SOL    HW2 9313   4.743   6.861   6.880  0.1033 -0.3613  0.0168
 2387SOL     OW 9314   7.988   3.505   4.608  0.1642 -0.4452 -0.3259
 2387SOL    HW1 9315   8.064   3.483   4.555  0.6411  1.6689 -0.6188
 2387SOL    HW2 9316   8.015   3.488   4.698  1.5710  1.6563 -0.2876
 2388SOL     OW 9317   8.053   7.551   3.501  0.1514 -0.5465 -0.6444
 2388SOL    HW1 9318   7.994   7.557   3.426 -2.7480 -0.4487  1.4972
 2388SOL    HW2 9319   8.071   7.457   3.510 -0.2792 -0.6539 -0.8680
 2389SOL     OW 9320   5.318   2.715   7.330  0.3161 -0.0063  0.7301
 2389SOL    HW1 9321   5.295   2.729   7.422  1.9320  2.3325  0.8576
 2389SOL    HW2 9322   5.361   2.796   7.303  1.4588 -1.2796 -1.5974
 2390SOL     OW 9323   7.877   7.676   7.830  0.3293  0.2918  0.3495
 2390SOL    HW1 9324   7.788   7.709   7.836 -0.0849 -0.8255  0.5485
 2390SOL    HW2 9325   7.899   7.683   7.737  0.1507  0.8439  0.3464
 2391SOL     OW 9326   2.726   1.896   7.323  0.3181 -0.0080 -0.3401
 2391SOL    HW1 9327   2.676   1.914   7.403 -0.9210  2.7396 -1.6028
 2391SOL    HW2 9328   2.814   1.929   7.341 -0.2556  1.6451 -0.4480
 2392SOL     OW 9329   8.271   4.629   5.511  0.2685 -0.4870 -0.1531
 2392SOL    HW1 9330   8.314   4.577   5.442  0.9806  2.1257 -1.8412
 2392SOL    HW2 9331   8.343   4.655   5.569  0.1657 -0.0932 -0.2058
 2393SOL     OW 9332   7.346   5.647   1.551  0.4918  0.5252  0.5032
 2393SOL    HW1 9333   7.335   5.618   1.461  1.0309 -0.2909  0.6865
 2393SOL    HW2 9334   7.353   5.566   1.601 -0.0209  0.9606  1.3136
 2394SOL     OW 9335   3.278   7.588   2.509 -0.0846  0.4844 -0.2077
 2394SOL    HW1 9336   3.195   7.592   2.556  0.9603 -0.2149  1.8423
 2394SOL    HW2 9337   3.257   7.549   2.425 -1.7893  0.0426  0.3887
 2395SOL     OW 9338   8.525   0.535   3.879  0.5278 -0.1948  0.8368
 2395SOL    HW1 9339   8.514   0.526   3.974  0.2466  0.1951  0.8474
 2395SOL    HW2 9340   8.448   0.584   3.851  0.7026 -0.1476  0.4325
 2396SOL     OW 9341   6.751   5.109   3.236  0.6690 -0.2209 -0.1148
 2396SOL    HW1 9342   6.752   5.154   3.152  0.3824 -0.7514 -0.4101
 2396SOL    HW2 9343   6.802   5.029   3.222  0.0375 -0.6585  0.0076
 2397SOL     OW 9344   6.953   3.426   7.701  0.8234 -0.6873 -0.3097
 2397SOL    HW1 9345   6.947   3.365   7.628  0.0125 -1.0154  0.0154
 2397SOL    HW2 9346   6.910   3.380   7.774  1.8205 -0.4619  0.4328
 2398SOL     OW 9347   0.788   8.349   2.840 -0.2702  0.4323 -0.2633
 2398SOL    HW1 9348   0.855   8.281   2.852 -1.0981 -0.4997 -0.7234
 2398SOL    HW2 9349   0.815   8.395   2.761  1.5273  2.1707  1.2621
 2399SOL     OW 9350   9.558   5.914   7.177  0.2255 -0.3597  0.1263
 2399SOL    HW1 9351   9.653   5.918   7.172  0.2531  1.0242  1.3021
 2399SOL    HW2 9352   9.527   5.981   7.117 -0.0343 -1.0144 -0.4878
 2400SOL     OW 9353   1.271   2.493   6.241 -0.4537  0.3430 -0.6907
 2400SOL    HW1 9354   1.293   2.579   6.205  0.2575  0.5176  0.1411
 2400SOL    HW2 9355   1.347   2.468   6.292 -0.7689 -0.6687 -0.6979
 2401SOL     OW 9356   1.801   3.733   2.700 -0.3975  0.1998 -0.0734
 2401SOL    HW1 9357   1.875   3.772   2.654  0.0035 -1.6322 -1.0783
 2401SOL    HW2 9358   1.827   3.734   2.792  1.2706 -1.1705 -0.5004
 2402SOL     OW 9359   9.374   7.477   4.307 -0.6880 -0.2578 -0.3725
 2402SOL    HW1 9360   9.310   7.440   4.247  1.6871 -1.2299 -2.4988
 2402SOL    HW2 9361   9.365   7.572   4.297 -1.9302 -0.3744 -0.4359
 2403SOL     OW 9362   1.287   3.893   0.755 -0.1957 -0.0732  0.2328
 2403SOL    HW1 9363   1.367   3.842   0.745  0.0232 -0.0753  1.7478
 2403SOL    HW2 9364   1.242   3.883   0.671  0.4331 -1.7434  0.0424
 2404SOL     OW 9365   1.397   5.487   0.085 -0.4699  0.3533  0.0822
 2404SOL    HW1 9366   1.459   5.482   0.158 -1.1229 -0.1813  0.6165
 2404SOL    HW2 9367   1.432   5.428   0.019 -0.3007  0.2209  0.2890
 2405SOL     OW 9368   2.549   7.765   7.767 -0.1345 -0.2192  0.6637
 2405SOL    HW1 9369   2.525   7.853   7.735  0.4562 -0.3976 -0.2926
 2405SOL    HW2 9370   2.625   7.740   7.714  0.1054 -1.0415  1.3855
 2406SOL     OW 9371   6.449   4.968   2.219  0.3572 -0.4320  0.2087
 2406SOL    HW1 9372   6.540   4.964   2.190  0.6090 -0.3064  0.9611
 2406SOL    HW2 9373   6.411   4.885   2.191  0.3468  0.0281 -1.2358
 2407SOL     OW 9374   4.234   3.754   3.600 -0.0685 -0.0467 -0.1711
 2407SOL    HW1 9375   4.315   3.759   3.549 -0.5085  1.3766 -0.7842
 2407SOL    HW2 9376   4.179   3.824   3.565 -0.6504  0.5800  1.8269
 2408SOL     OW 9377   2.552   8.205   3.977 -0.0751  0.1455 -0.1887
 2408SOL    HW1 9378   2.463   8.213   3.943  0.2731  0.2642 -1.0924
 2408SOL    HW2 9379   2.605   8.181   3.901  0.7317  0.4538  0.2634
 2409SOL     OW 9380   4.797   6.935   9.429 -0.1768 -0.0056 -0.2816
 2409SOL    HW1 9381   4.855   7.010   9.440 -1.0015  0.6804 -0.4729
 2409SOL    HW2 9382   4.831   6.889   9.352 -0.2383  0.7262 -0.7552
 2410SOL     OW 9383   0.406   6.831   7.753  0.1666  0.5111  0.6970
 2410SOL    HW1 9384   0.380   6.890   7.683  0.5884 -1.2374 -1.0105
 2410SOL    HW2 9385   0.329   6.777   7.769  1.0158 -1.2153 -0.7274
 2411SOL     OW 9386   7.068   1.713   3.175 -0.4220 -0.8617 -0.1990
 2411SOL    HW1 9387   7.000   1.649   3.155  0.1054 -1.7951  0.9064
 2411SOL    HW2 9388   7.078   1.709   3.270  2.6110 -2.2808 -0.4472
 2412SOL     OW 9389   6.572   6.388   1.050  0.2868  0.0534 -0.0995
 2412SOL    HW1 9390   6.647   6.417   0.998 -0.9740  0.6499 -1.6834
 2412SOL    HW2 9391   6.589   6.422   1.138  1.3754  1.0622 -0.6703
 2413SOL     OW 9392   2.960   8.445   6.565 -0.7248 -0.1165  0.2756
 2413SOL    HW1 9393   3.018   8.377   6.598  0.4531  0.1080 -1.2145
 2413SOL    HW2 9394   2.875   8.403   6.557 -0.5404 -0.7545  1.5040
 2414SOL     OW 9395   6.585   9.315   9.629 -0.5766 -0.0102  0.1661
 2414SOL    HW1 9396   6.606   9.407   9.615  1.1458 -0.3056  0.6391
 2414SOL    HW2 9397   6.601   9.300   9.722  0.5425 -1.1116 -0.1882
 2415SOL     OW 9398   6.625   2.351   9.359  0.0251 -0.1800  0.2119
 2415SOL    HW1 9399   6.607   2.372   9.267 -0.5019 -0.9601  0.1227
 2415SOL    HW2 9400   6.605   2.432   9.406  1.1071  0.4995 -0.4345
 2416SOL     OW 9401   1.987   3.897   3.913  0.3564 -0.7160 -0.4474
 2416SOL    HW1 9402   1.912   3.883   3.855  1.3115 -1.7094 -1.4970
 2416SOL    HW2 9403   1.958   3.865   3.998 -0.5602 -0.6572 -0.7240
 2417SOL     OW 9404   3.155   2.942   8.655  0.1105  0.5896 -0.0092
 2417SOL    HW1 9405   3.061   2.950   8.672 -0.0624  1.5697 -1.2807
 2417SOL    HW2 9406   3.197   2.999   8.719 -0.2459  0.9843 -0.1215
 2418SOL     OW 9407   4.194   4.812   7.440  0.1551 -0.0179 -0.0922
 2418SOL    HW1 9408   4.172   4.826   7.532 -0.8037  1.3345 -0.4938
 2418SOL    HW2 9409   4.210   4.900   7.406 -0.1626 -0.4397 -1.3706
 2419SOL     OW 9410   0.830   2.975   7.072 -0.2888 -0.4630  0.0888
 2419SOL    HW1 9411   0.826   2.890   7.116  1.0238 -0.1095  0.9661
 2419SOL    HW2 9412   0.913   2.973   7.023 -1.6980 -0.8337 -2.4571
 2420SOL     OW 9413   1.284   0.796   4.371  0.4411  0.2596 -0.0273
 2420SOL    HW1 9414   1.258   0.706   4.389 -0.2225  0.2752 -0.8530
 2420SOL    HW2 9415   1.335   0.791   4.290 -0.7421  0.7787 -0.8295
 2421SOL     OW 9416   3.294   1.313   0.225  0.1393 -0.0205  0.0439
 2421SOL    HW1 9417   3.257   1.397   0.254  0.3525  0.9016 -2.1547
 2421SOL    HW2 9418   3.382   1.312   0.262  0.1325  0.7153  0.0990
 2422SOL     OW 9419   3.114   0.138   3.335  0.2336 -0.4927  0.3848
 2422SOL    HW1 9420   3.051   0.205   3.310 -0.0319 -0.9188 -0.1174
 2422SOL    HW2 9421   3.063   0.075   3.385  0.7371  0.2994  1.9767
 2423SOL     OW 9422   6.990   0.943   1.815  0.6593  0.1853  0.3741
 2423SOL    HW1 9423   7.013   0.910   1.728 -0.7216 -1.7698  0.6818
 2423SOL    HW2 9424   7.021   0.875   1.875 -0.4196  0.3999  1.2132
 2424SOL     OW 9425   4.180   8.499   6.667 -0.5033 -0.0148 -0.0876
 2424SOL    HW1 9426   4.157   8.500   6.760  0.2501 -0.0480  0.1052
 2424SOL    HW2 9427   4.247   8.431   6.659 -0.4573  0.0880 -0.6243
 2425SOL     OW 9428   3.615   5.506   1.060  0.0309  0.0069  0.1809
 2425SOL    HW1 9429   3.698   5.497   1.107  1.1965 -0.2639 -1.7889
 2425SOL    HW2 9430   3.566   5.573   1.108  2.4047  1.9539  0.0808
 2426SOL     OW 9431   3.500   9.103   0.539 -0.2411  0.4206 -0.2417
 2426SOL    HW1 9432   3.424   9.097   0.482 -1.4802 -2.5350  1.4913
 2426SOL    HW2 9433   3.466   9.140   0.620  0.6726  1.0417 -0.1217
 2427SOL     OW 9434   8.669   3.363   5.642  0.5047  0.1263 -0.3676
 2427SOL    HW1 9435   8.613   3.408   5.705  0.6816 -2.6174  1.9978
 2427SOL    HW2 9436   8.624   3.280   5.626  1.3076  0.0643 -2.6667
 2428SOL     OW 9437   1.769   7.619   6.296  0.2408  0.0968 -0.3118
 2428SOL    HW1 9438   1.829   7.598   6.368 -0.2202 -1.1729 -0.2860
 2428SOL    HW2 9439   1.703   7.550   6.298  0.2555 -0.0063 -2.0001
 2429SOL     OW 9440   6.136   2.330   3.139 -0.3826 -0.0051 -0.2387
 2429SOL    HW1 9441   6.118   2.248   3.187 -2.8313  0.0402 -0.9561
 2429SOL    HW2 9442   6.184   2.384   3.202 -0.2017 -1.3646  0.8435
 2430SOL     OW 9443   4.316   0.989   5.009  0.4891 -0.2424  0.0142
 2430SOL    HW1 9444   4.366   1.045   4.949  1.1842  0.6948  1.4034
 2430SOL    HW2 9445   4.379   0.921   5.035  0.7048  0.2693  0.8720
 2431SOL     OW 9446   2.389   7.369   2.021 -0.0931 -0.0870  0.1683
 2431SOL    HW1 9447   2.428   7.330   2.099  0.3018 -0.9521 -0.4581
 2431SOL    HW2 9448   2.437   7.332   1.948 -3.6574 -3.2979 -0.8516
 2432SOL     OW 9449   5.910   6.496   2.804 -0.2509  0.4008 -0.2405
 2432SOL    HW1 9450   5.829   6.451   2.829 -0.8356  1.5312 -0.0401
 2432SOL    HW2 9451   5.966   6.490   2.881 -0.4356  0.2809 -0.1140
 2433SOL     OW 9452   6.584   8.697   3.015 -0.3952 -0.3772 -0.0576
 2433SOL    HW1 9453   6.607   8.680   3.107 -2.3394 -3.2918  0.0210
 2433SOL    HW2 9454   6.547   8.785   3.015 -2.1003 -0.9977  2.3755
 2434SOL     OW 9455   3.316   7.277   0.670 -0.7781 -0.5042 -0.1855
 2434SOL    HW1 9456   3.253   7.250   0.603 -1.0355 -0.4761  0.0442
 2434SOL    HW2 9457   3.396   7.294   0.621 -1.1882  0.2914 -0.5888
 2435SOL     OW 9458   9.430   8.670   2.078  0.0637 -0.1323  0.1814
 2435SOL    HW1 9459   9.376   8.593   2.092  0.5811 -0.4944  0.2021
 2435SOL    HW2 9460   9.495   8.668   2.148 -1.7139  1.9549  2.0425
 2436SOL     OW 9461   3.393   6.222   4.441 -0.0619 -0.4049 -0.3896
 2436SOL    HW1 9462   3.304   6.241   4.413 -0.2457 -1.0471 -0.2641
 2436SOL    HW2 9463   3.432   6.174   4.368 -0.1464 -1.0043 -0.0471
 2437SOL     OW 9464   7.994   0.861   1.417  0.2334  0.1195  0.1345
 2437SOL    HW1 9465   7.955   0.807   1.348 -0.8154  1.2134 -0.1742
 2437SOL    HW2 9466   7.938   0.848   1.493  1.0447 -0.6246  0.6176
 2438SOL     OW 9467   9.107   9.002   0.376  0.0636  0.4540 -0.1157
 2438SOL    HW1 9468   9.053   8.936   0.334  1.9393 -1.0783 -0.2753
 2438SOL    HW2 9469   9.070   9.011   0.464 -0.5214 -0.4573 -0.2500
 2439SOL     OW 9470   8.470   3.318   1.614 -0.0126  0.8666 -0.2252
 2439SOL    HW1 9471   8.456   3.335   1.521  2.1152  0.1242 -0.7395
 2439SOL    HW2 9472   8.483   3.224   1.620 -0.8432  0.7991  0.9683
 2440SOL     OW 9473   1.141   7.166   7.025  0.4448 -0.0735 -0.4680
 2440SOL    HW1 9474   1.201   7.145   6.953  0.1485  1.8997 -1.3442
 2440SOL    HW2 9475   1.171   7.250   7.058 -0.3902 -0.2035  0.6749
 2441SOL     OW 9476   8.215   5.331   9.148  0.1579 -0.2309 -0.4422
 2441SOL    HW1 9477   8.182   5.248   9.181 -0.6453  0.0155 -0.6078
 2441SOL    HW2 9478   8.203   5.393   9.221 -0.1795 -0.0363 -0.6618
 2442SOL     OW 9479   5.382   5.613   2.672 -0.2827 -0.3340  0.2340
 2442SOL    HW1 9480   5.336   5.662   2.740  1.9907  1.7796  0.3936
 2442SOL    HW2 9481   5.353   5.653   2.590 -1.0548 -1.1433  0.0911
 2443SOL     OW 9482   6.520   2.240   6.599  0.5500  0.4164  0.0636
 2443SOL    HW1 9483   6.467   2.161   6.610  4.2372 -2.2145  1.0364
 2443SOL    HW2 9484   6.556   2.231   6.511  1.8418  0.3798  0.5808
 2444SOL     OW 9485   6.705   8.370   7.155 -0.2071 -0.3876  0.0512
 2444SOL    HW1 9486   6.731   8.438   7.093 -0.8194 -0.2059 -0.0138
 2444SOL    HW2 9487   6.629   8.406   7.201 -0.9733 -1.2801 -0.4672
 2445SOL     OW 9488   4.527   2.517   0.296 -0.4961  0.0013 -0.4224
 2445SOL    HW1 9489   4.532   2.603   0.337  0.0367 -0.0651 -0.3345
 2445SOL    HW2 9490   4.608   2.473   0.322 -0.5541 -0.3613 -0.8290
 2446SOL     OW 9491   6.577   3.351   7.724 -0.2481 -0.5503 -0.5847
 2446SOL    HW1 9492   6.485   3.342   7.749 -0.3646 -0.1722 -0.8699
 2446SOL    HW2 9493   6.600   3.440   7.750 -0.4002 -0.1055 -1.9017
 2447SOL     OW 9494   3.935   2.485   7.047 -0.2224  0.5833  0.3466
 2447SOL    HW1 9495   4.015   2.435   7.060 -0.6789 -0.4909 -0.7184
 2447SOL    HW2 9496   3.955   2.573   7.080  0.8226 -0.1095  1.6564
 2448SOL     OW 9497   2.887   4.328   7.534  0.0983 -0.0431 -0.2912
 2448SOL    HW1 9498   2.930   4.259   7.584  0.9889  1.6199  1.3441
 2448SOL    HW2 9499   2.801   4.338   7.574 -1.8684 -2.9801 -3.2094
 2449SOL     OW 9500   6.455   2.475   2.963  0.0682  0.0541 -0.9608
 2449SOL    HW1 9501   6.549   2.479   2.979 -0.0186  1.6120 -0.6346
 2449SOL    HW2 9502   6.416   2.522   3.037 -0.9659 -0.5140 -1.1230
 2450SOL     OW 9503   9.377   4.215   0.777 -0.2608 -0.4856  0.0658
 2450SOL    HW1 9504   9.358   4.255   0.692 -0.2819  0.5385  0.5323
 2450SOL    HW2 9505   9.296   4.170   0.802 -1.4391  1.9905  1.0238
 2451SOL     OW 9506   5.269   2.213   4.864 -0.0550 -0.3668 -0.9064
 2451SOL    HW1 9507   5.269   2.307   4.848 -0.2447 -0.3591 -0.8645
 2451SOL    HW2 9508   5.334   2.178   4.804  1.5462  0.0405  0.4983
 2452SOL     OW 9509   6.102   9.248   7.678  0.4453  0.1155 -0.7536
 2452SOL    HW1 9510   6.061   9.172   7.719  1.2791 -0.3105 -0.6838
 2452SOL    HW2 9511   6.143   9.213   7.599  0.1007  0.6580 -1.1784
 2453SOL     OW 9512   0.364   7.772   3.904 -0.3188  0.2474  0.7491
 2453SOL    HW1 9513   0.329   7.713   3.970 -0.4741  0.3145  0.7267
 2453SOL    HW2 9514   0.356   7.859   3.942 -2.0640  0.4745 -0.0576
 2454SOL     OW 9515   0.663   1.776   5.652  0.0938  0.1894 -0.7417
 2454SOL    HW1 9516   0.721   1.779   5.728 -0.6723  3.2212 -0.1239
 2454SOL    HW2 9517   0.718   1.799   5.578  0.0075  1.8785 -0.3315
 2455SOL     OW 9518   9.396   6.762   6.156  0.0129  0.3018  0.2019
 2455SOL    HW1 9519   9.374   6.671   6.136  0.3192  0.4972 -1.1512
 2455SOL    HW2 9520   9.420   6.762   6.249  1.3113 -1.2642 -0.0962
 2456SOL     OW 9521   3.213   6.155   0.987  0.0048 -0.3194 -0.3087
 2456SOL    HW1 9522   3.131   6.137   1.032 -0.8248  0.8714 -1.3024
 2456SOL    HW2 9523   3.192   6.152   0.894  0.8209  1.0749 -0.5734
 2457SOL     OW 9524   7.294   6.928   1.789 -0.1987 -0.1323  0.0252
 2457SOL    HW1 9525   7.283   7.006   1.844 -1.4576 -0.7192  0.6253
 2457SOL    HW2 9526   7.383   6.936   1.754 -0.6217  2.0772 -0.7072
 2458SOL     OW 9527   1.426   0.721   9.019 -0.5260 -0.0036 -0.1049
 2458SOL    HW1 9528   1.464   0.651   9.072 -1.9491 -1.4351 -0.9032
 2458SOL    HW2 9529   1.343   0.742   9.063 -0.6150  0.4349 -0.4721
 2459SOL     OW 9530   0.208   6.354   8.316 -0.4065  0.6799 -0.5618
 2459SOL    HW1 9531   0.115   6.332   8.312 -1.0540  2.6933  1.1378
 2459SOL    HW2 9532   0.209   6.448   8.338  2.0268  0.6834 -0.3944
 2460SOL     OW 9533   4.800   2.475   6.122  0.4639  0.3681 -0.8330
 2460SOL    HW1 9534   4.813   2.569   6.106 -1.9337  1.0889  0.8410
 2460SOL    HW2 9535   4.887   2.442   6.143  1.0499  2.8144  1.0940
 2461SOL     OW 9536   1.827   6.903   0.093 -0.1184 -0.0296  0.1650
 2461SOL    HW1 9537   1.808   6.810   0.104 -1.9339  0.1695 -0.8336
 2461SOL    HW2 9538   1.784   6.945   0.168  1.7003 -0.0359  1.2816
 2462SOL     OW 9539   7.111   4.965   7.857 -0.3841  0.0915 -0.1255
 2462SOL    HW1 9540   7.171   4.962   7.932  0.0465 -0.2221 -0.4734
 2462SOL    HW2 9541   7.113   4.877   7.821  0.5364  0.5664 -1.3535
 2463SOL     OW 9542   8.746   6.410   5.158  0.1026  0.6648 -0.5518
 2463SOL    HW1 9543   8.793   6.489   5.185 -1.1611  0.9765  0.8958
 2463SOL    HW2 9544   8.660   6.417   5.201 -0.0717 -1.4567 -0.4306
 2464SOL     OW 9545   7.190   1.760   2.746 -0.1039 -0.5409  0.0242
 2464SOL    HW1 9546   7.233   1.765   2.831 -1.5686  1.0982  0.7329
 2464SOL    HW2 9547   7.102   1.726   2.766 -0.0799 -1.2322 -1.0001
 2465SOL     OW 9548   9.187   8.054   2.890  0.4609 -0.4584  0.1950
 2465SOL    HW1 9549   9.270   8.008   2.901  1.7474  0.5933 -3.7223
 2465SOL    HW2 9550   9.210   8.146   2.881 -0.9576 -0.2155 -1.7388
 2466SOL     OW 9551   1.325   3.147   4.165  0.1213  0.0646 -0.0871
 2466SOL    HW1 9552   1.255   3.100   4.119  0.5327  0.7354 -1.4592
 2466SOL    HW2 9553   1.404   3.125   4.117  0.3695  1.8916 -0.5968
 2467SOL     OW 9554   9.524   6.376   2.109 -0.4598 -0.2660 -0.3273
 2467SOL    HW1 9555   9.528   6.469   2.086 -2.1221 -0.3487 -1.1194
 2467SOL    HW2 9556   9.450   6.370   2.170 -0.0770 -0.9973  0.0732
 2468SOL     OW 9557   4.072   6.066   3.226 -0.0729  0.2339 -0.1580
 2468SOL    HW1 9558   4.165   6.043   3.231 -0.3149 -0.9097 -0.6123
 2468SOL    HW2 9559   4.048   6.088   3.316  0.3116 -0.8354  0.2248
 2469SOL     OW 9560   4.812   3.469   2.935  0.4238 -0.3116  0.2567
 2469SOL    HW1 9561   4.855   3.395   2.891 -0.3105 -1.5976  1.6131
 2469SOL    HW2 9562   4.719   3.457   2.915  0.1729 -0.4695  1.4725
 2470SOL     OW 9563   2.034   1.348   1.132 -0.1144  0.1428 -0.2733
 2470SOL    HW1 9564   2.091   1.276   1.161 -1.1203 -0.4415  0.3156
 2470SOL    HW2 9565   1.946   1.315   1.144 -0.5994  1.0892 -1.0411
 2471SOL     OW 9566   6.307   4.852   1.050 -0.1800  0.6064 -0.3956
 2471SOL    HW1 9567   6.386   4.903   1.069 -0.0224  0.1588  0.1777
 2471SOL    HW2 9568   6.236   4.917   1.053  0.0750  0.8802 -0.1725
 2472SOL     OW 9569   5.523   6.361   9.284  0.7396 -0.5274  0.3961
 2472SOL    HW1 9570   5.510   6.368   9.189  1.6407 -1.9803  0.1401
 2472SOL    HW2 9571   5.615   6.341   9.295  0.3043 -2.1094  1.4689
 2473SOL     OW 9572   1.002   7.775   3.174 -0.6230  0.1787 -0.1352
 2473SOL    HW1 9573   1.079   7.804   3.223 -1.4073  0.6858  0.8315
 2473SOL    HW2 9574   0.934   7.838   3.197 -2.1914 -1.9647  1.3987
 2474SOL     OW 9575   8.727   7.171   1.997 -0.3440  0.2944  0.3676
 2474SOL    HW1 9576   8.690   7.112   2.063  1.1684  0.8321  1.7536
 2474SOL    HW2 9577   8.697   7.258   2.022 -2.5505  0.2246 -1.6579
 2475SOL     OW 9578   2.994   2.004   7.292 -0.2089  0.2173 -0.8616
 2475SOL    HW1 9579   3.028   1.983   7.205  1.1093 -0.2989 -0.2501
 2475SOL    HW2 9580   2.966   2.095   7.285 -1.4632 -0.2258 -2.2071
 2476SOL     OW 9581   3.281   8.172   5.934  0.4427 -0.1682  0.1788
 2476SOL    HW1 9582   3.346   8.235   5.964  0.6567  0.5073 -1.5891
 2476SOL    HW2 9583   3.213   8.174   6.000  1.7581 -0.1879  1.5909
 2477SOL     OW 9584   4.525   2.231   8.504  0.2403 -0.3484 -0.0220
 2477SOL    HW1 9585   4.448   2.176   8.488  0.8682 -1.0259 -0.7633
 2477SOL    HW2 9586   4.586   2.208   8.434  0.5461  1.2374 -0.3180
 2478SOL     OW 9587   3.477   8.165   9.407 -0.3822  0.3221  0.2672
 2478SOL    HW1 9588   3.521   8.235   9.455 -1.8619  1.4302  0.0563
 2478SOL    HW2 9589   3.548   8.107   9.380  0.9871  2.1137 -0.1712
 2479SOL     OW 9590   1.950   9.488   9.117  0.6858  0.9041  0.1677
 2479SOL    HW1 9591   1.989   9.513   9.033  0.7279 -2.1027 -0.8401
 2479SOL    HW2 9592   2.021   9.497   9.180  1.8203 -0.3311 -0.8548
 2480SOL     OW 9593   4.841   2.162   6.164 -0.3206  0.2160 -0.6969
 2480SOL    HW1 9594   4.769   2.219   6.192 -0.0317  0.2375  0.0366
 2480SOL    HW2 9595   4.838   2.164   6.068 -0.6540  1.0400 -0.6784
 2481SOL     OW 9596   8.991   4.588   2.113  0.0794  0.2425 -0.0743
 2481SOL    HW1 9597   8.917   4.603   2.172 -0.5115 -0.4429 -0.6275
 2481SOL    HW2 9598   9.022   4.500   2.134 -0.9936 -0.5625 -1.6699
 2482SOL     OW 9599   5.607   0.262   2.922  0.6753 -0.0755 -0.1098
 2482SOL    HW1 9600   5.556   0.310   2.858  0.3796 -1.9332 -1.3624
 2482SOL    HW2 9601   5.576   0.292   3.007 -3.2945 -1.7707 -0.7568
 2483SOL     OW 9602   7.242   0.866   6.228  0.0448 -0.2863  0.4332
 2483SOL    HW1 9603   7.159   0.899   6.262  0.2448  1.1782 -0.3783
 2483SOL    HW2 9604   7.217   0.798   6.165 -0.6468  0.9633 -0.7022
 2484SOL     OW 9605   4.278   8.505   6.349 -0.9787 -0.5337 -0.1945
 2484SOL    HW1 9606   4.221   8.582   6.355  0.0867  0.1840  1.1480
 2484SOL    HW2 9607   4.219   8.431   6.365 -1.4222  0.2536  2.1690
 2485SOL     OW 9608   2.964   6.183   8.509 -0.0429  1.0215 -0.4352
 2485SOL    HW1 9609   2.896   6.247   8.529 -1.5078 -0.3350 -0.9088
 2485SOL    HW2 9610   3.014   6.175   8.590  0.5156  3.0914 -0.5046
 2486SOL     OW 9611   3.303   6.660   2.177  0.0085  0.5830  0.3376
 2486SOL    HW1 9612   3.215   6.690   2.154 -0.2168  1.0801  1.7632
 2486SOL    HW2 9613   3.329   6.605   2.103 -1.7220 -0.0236  0.1308
 2487SOL     OW 9614   7.059   9.068   9.505 -0.2427 -0.0373  0.4971
 2487SOL    HW1 9615   7.120   9.009   9.549 -0.2250 -0.6634 -0.3369
 2487SOL    HW2 9616   6.976   9.019   9.504 -0.5171  0.4096  0.7603
 2488SOL     OW 9617   2.616   0.709   1.838  0.0540 -0.0519  0.3276
 2488SOL    HW1 9618   2.616   0.688   1.744 -0.2187 -1.4446  0.6148
 2488SOL    HW2 9619   2.682   0.651   1.876 -1.3803 -1.1406  1.2937
 2489SOL     OW 9620   8.648   4.082   4.091 -0.0848 -0.3463  0.2294
 2489SOL    HW1 9621   8.720   4.068   4.153  1.8783  1.2997 -1.5011
 2489SOL    HW2 9622   8.677   4.038   4.011 -1.4348 -0.3936 -0.2504
 2490SOL     OW 9623   7.665   7.167   3.264  0.3903  0.2073  0.4024
 2490SOL    HW1 9624   7.759   7.155   3.269  0.3976  0.4516  1.0943
 2490SOL    HW2 9625   7.648   7.245   3.317  0.0452  1.5607 -1.6063
 2491SOL     OW 9626   8.804   9.065   6.855 -0.5358 -0.0869 -0.0166
 2491SOL    HW1 9627   8.829   8.982   6.894  1.2400  1.3736  2.2169
 2491SOL    HW2 9628   8.887   9.112   6.845 -1.3452  0.9818 -2.3940
 2492SOL     OW 9629   5.239   7.018   3.618  0.0099  0.0503  0.3414
 2492SOL    HW1 9630   5.182   7.094   3.628  1.6383  1.3085  0.6222
 2492SOL    HW2 9631   5.221   6.964   3.694 -0.6726  0.5182  0.5173
 2493SOL     OW 9632   1.701   7.270   7.542 -0.0094  0.3350  0.4936
 2493SOL    HW1 9633   1.762   7.281   7.615 -0.9315 -0.3209  1.3908
 2493SOL    HW2 9634   1.684   7.176   7.539  0.1743  0.3196 -0.7260
 2494SOL     OW 9635   4.766   6.920   6.543  0.3741  0.1884 -0.7100
 2494SOL    HW1 9636   4.801   6.990   6.598  0.5372  0.3764 -1.0516
 2494SOL    HW2 9637   4.841   6.862   6.528 -0.1742 -1.0979  1.1334
 2495SOL     OW 9638   6.345   0.134   4.169  0.1148  0.3729 -0.2305
 2495SOL    HW1 9639   6.277   0.172   4.224  0.3924  0.4983  0.0240
 2495SOL    HW2 9640   6.382   0.209   4.122  1.5156  0.6167  1.1911
 2496SOL     OW 9641   7.483   9.182   2.776 -0.2568  0.7511 -0.0786
 2496SOL    HW1 9642   7.409   9.183   2.714 -0.9740 -0.7335  0.7010
 2496SOL    HW2 9643   7.444   9.207   2.860  0.0645 -0.2522  0.3829
 2497SOL     OW 9644   5.553   8.740   7.938 -0.2294  0.2519  0.3693
 2497SOL    HW1 9645   5.458   8.738   7.924  0.0061 -2.7439 -1.4437
 2497SOL    HW2 9646   5.562   8.773   8.028 -3.0561 -0.6174  1.0969
 2498SOL     OW 9647   7.380   5.527   9.030 -0.1095 -0.2136  0.0759
 2498SOL    HW1 9648   7.301   5.574   9.005  0.6826  0.0151 -2.2828
 2498SOL    HW2 9649   7.436   5.532   8.952  1.3777 -2.1545  0.9477
 2499SOL     OW 9650   7.410   1.106   2.644 -0.3773  0.2075 -0.4531
 2499SOL    HW1 9651   7.323   1.145   2.656 -0.1823 -0.1541  4.1013
 2499SOL    HW2 9652   7.469   1.181   2.640 -0.6740  0.4488 -0.3682
 2500SOL     OW 9653   1.026   7.546   4.898  0.3150  0.4187 -0.1023
 2500SOL    HW1 9654   0.997   7.455   4.890  0.0705  0.5885 -1.2101
 2500SOL    HW2 9655   0.983   7.578   4.978  0.8850 -0.6055  0.6436
 2501SOL     OW 9656   6.499   9.590   6.303 -0.3183  0.2119  0.4475
 2501SOL    HW1 9657   6.433   9.637   6.252  0.6935  0.6535 -0.4868
 2501SOL    HW2 9658   6.540   9.530   6.241 -0.9830 -1.3180  1.4202
 2502SOL     OW 9659   6.131   2.363   4.769 -0.6755 -0.2022 -0.1997
 2502SOL    HW1 9660   6.045   2.325   4.786 -0.4701 -0.9022 -0.6819
 2502SOL    HW2 9661   6.119   2.457   4.782 -1.7562 -0.1814 -1.2263
 2503SOL     OW 9662   4.447   2.211   2.245  0.3511 -0.0323  0.2630
 2503SOL    HW1 9663   4.380   2.147   2.221  0.9793  0.5116 -3.5249
 2503SOL    HW2 9664   4.463   2.195   2.338 -3.0796 -1.9352  0.6849
 2504SOL     OW 9665   2.133   2.391   1.787  0.1815 -0.1897 -0.3016
 2504SOL    HW1 9666   2.224   2.418   1.777  0.0412  0.3944 -0.0382
 2504SOL    HW2 9667   2.094   2.456   1.845 -0.5278 -0.1553 -0.8009
 2505SOL     OW 9668   0.277   7.021   1.003 -0.1971 -0.4061 -0.1057
 2505SOL    HW1 9669   0.188   7.042   1.029 -0.4472 -1.6648  0.1092
 2505SOL    HW2 9670   0.329   7.029   1.083 -0.1536  0.1022 -0.1827
 2506SOL     OW 9671   8.897   5.573   5.990 -0.1347  0.2141 -0.1636
 2506SOL    HW1 9672   8.987   5.602   5.977 -0.3975  0.8165 -0.6682
 2506SOL    HW2 9673   8.859   5.572   5.903 -0.3360 -1.0223 -0.0842
 2507SOL     OW 9674   9.062   5.389   7.112  0.0157  0.4472 -0.2114
 2507SOL    HW1 9675   9.017   5.317   7.157 -1.5795  0.7776 -1.1760
 2507SOL    HW2 9676   9.055   5.366   7.019  0.9951  1.0211 -0.4360
 2508SOL     OW 9677   5.310   2.869   1.978  0.3352  0.4281  0.1254
 2508SOL    HW1 9678   5.303   2.880   2.073  0.6577  1.1586  0.0714
 2508SOL    HW2 9679   5.397   2.901   1.956  0.0464  0.8240 -0.4892
 2509SOL     OW 9680   3.081   8.029   3.580  0.5461 -0.1166  0.0311
 2509SOL    HW1 9681   3.134   8.003   3.655  1.7167  0.3145 -0.6211
 2509SOL    HW2 9682   3.125   7.990   3.505 -2.0952 -2.8372 -0.2832
 2510SOL     OW 9683   4.737   0.641   8.158  0.5430  0.2582 -0.8142
 2510SOL    HW1 9684   4.793   0.597   8.221  0.7705  0.8163 -0.6236
 2510SOL    HW2 9685   4.785   0.720   8.133 -0.6691  1.4140  0.2863
 2511SOL     OW 9686   8.710   0.438   5.075  0.0688  0.0695  0.2717
 2511SOL    HW1 9687   8.761   0.428   5.155 -0.8809  0.7267  0.9836
 2511SOL    HW2 9688   8.623   0.404   5.098  0.0921 -0.7857 -0.8279
 2512SOL     OW 9689   6.662   6.976   9.575 -0.4889 -0.4704 -0.2757
 2512SOL    HW1 9690   6.744   6.989   9.624 -0.4663 -0.5852 -0.2835
 2512SOL    HW2 9691   6.688   6.923   9.500 -0.7202 -1.1972  0.1529
 2513SOL     OW 9692   0.627   8.429   8.707 -0.6211  0.2115 -0.0099
 2513SOL    HW1 9693   0.612   8.336   8.691 -0.4540  0.5368 -2.4375
 2513SOL    HW2 9694   0.717   8.433   8.739 -0.8878 -0.4933  0.8997
 2514SOL     OW 9695   8.351   5.335   6.301 -0.2108  0.4996 -0.4876
 2514SOL    HW1 9696   8.444   5.356   6.289  0.4356 -1.9375 -0.4677
 2514SOL    HW2 9697   8.343   5.317   6.395 -0.3117 -0.7574 -0.7209
 2515SOL     OW 9698   5.289   2.711   0.112  0.5335  0.5606  0.1277
 2515SOL    HW1 9699   5.272   2.803   0.089  1.5710  0.2819 -2.0506
 2515SOL    HW2 9700   5.255   2.661   0.037  0.9250 -0.7573  0.8039
 2516SOL     OW 9701   2.294   1.728   8.497 -0.3843  0.9641  0.0828
 2516SOL    HW1 9702   2.220   1.787   8.482 -0.0870  1.3155 -0.0131
 2516SOL    HW2 9703   2.347   1.771   8.564  1.1501  2.0513 -1.7384
 2517SOL     OW 9704   0.913   0.623   2.877 -0.1566  0.0616  0.1404
 2517SOL    HW1 9705   0.972   0.699   2.874 -0.3593  0.3387  1.9868
 2517SOL    HW2 9706   0.960   0.557   2.928 -0.4653 -0.6223 -0.4406
 2518SOL     OW 9707   5.795   0.063   2.430  0.3822 -0.1934 -0.3384
 2518SOL    HW1 9708   5.825  -0.001   2.494 -0.1526  1.3290  1.5643
 2518SOL    HW2 9709   5.703   0.042   2.415 -0.0264  0.5397  0.9245
 2519SOL     OW 9710   8.062   9.516   3.178 -0.1158 -0.4035  0.0117
 2519SOL    HW1 9711   8.148   9.476   3.186  0.7547  0.4680 -3.3771
 2519SOL    HW2 9712   8.017   9.463   3.113 -1.3148  0.4344  0.1262
 2520SOL     OW 9713   2.587   1.902   0.088  0.2732  0.1713 -0.6568
 2520SOL    HW1 9714   2.536   1.980   0.109  1.1995  1.0590 -1.5505
 2520SOL    HW2 9715   2.551   1.833   0.144 -1.7453  0.8044 -1.0950
 2521SOL     OW 9716   2.660   0.445   2.949  0.0830 -0.0929  0.1366
 2521SOL    HW1 9717   2.617   0.479   3.027  0.5176 -0.4323  0.5285
 2521SOL    HW2 9718   2.588   0.424   2.889 -0.2068  3.1207 -0.8530
 2522SOL     OW 9719   5.922   7.361   2.528  0.2073  0.9256 -0.6308
 2522SOL    HW1 9720   5.927   7.428   2.596 -2.3043  1.2731 -0.7120
 2522SOL    HW2 9721   5.829   7.346   2.514  0.6552 -0.7337 -2.4708
 2523SOL     OW 9722   8.172   6.862   5.517  0.2524 -0.6455 -0.2933
 2523SOL    HW1 9723   8.133   6.917   5.449  0.0128 -1.2614 -0.6635
 2523SOL    HW2 9724   8.122   6.781   5.514 -0.5353 -0.2723  1.4174
 2524SOL     OW 9725   1.748   3.612   9.369  0.2403  0.2210 -0.3663
 2524SOL    HW1 9726   1.705   3.600   9.453  1.3555  1.4142  0.4221
 2524SOL    HW2 9727   1.835   3.574   9.380  1.1812  2.2702 -0.1991
 2525SOL     OW 9728   5.706   7.354   1.681 -0.4089 -0.1286  0.5955
 2525SOL    HW1 9729   5.775   7.311   1.731 -0.0062  0.4807  0.5682
 2525SOL    HW2 9730   5.696   7.440   1.721  1.3033  1.1702 -1.5377
 2526SOL     OW 9731   5.636   1.514   1.034  0.7272 -0.5590 -0.7327
 2526SOL    HW1 9732   5.656   1.506   0.941  1.0362  0.1387 -0.7365
 2526SOL    HW2 9733   5.654   1.428   1.070  0.7423 -0.7970 -1.2956
 2527SOL     OW 9734   5.778   9.036   5.457  0.7084 -0.0819  0.6730
 2527SOL    HW1 9735   5.742   9.116   5.417 -0.3149 -0.1942  1.3434
 2527SOL    HW2 9736   5.872   9.046   5.448  0.5568  0.6861 -0.2542
 2528SOL     OW 9737   1.462   3.232   2.780 -0.4169  0.1403  0.3060
 2528SOL    HW1 9738   1.467   3.308   2.723 -0.4758 -0.1244 -0.0593
 2528SOL    HW2 9739   1.393   3.177   2.741  1.6917 -1.5661 -1.2600
 2529SOL     OW 9740   5.101   5.994   9.202 -0.5284 -0.0666 -0.3450
 2529SOL    HW1 9741   5.054   6.033   9.276 -0.1627 -0.6780  0.2270
 2529SOL    HW2 9742   5.188   6.034   9.205  0.2290 -1.6673  0.9315
 2530SOL     OW 9743   7.425   0.312   3.633  0.0429  0.1900 -0.0253
 2530SOL    HW1 9744   7.365   0.271   3.571 -0.8762  0.6771  0.5195
 2530SOL    HW2 9745   7.404   0.405   3.628 -1.6395  0.0568  2.5808
 2531SOL     OW 9746   4.232   5.559   7.657  0.0962  0.2310 -0.4269
 2531SOL    HW1 9747   4.181   5.615   7.598  0.4481  0.5232 -0.4532
 2531SOL    HW2 9748   4.322   5.567   7.626 -0.0970 -1.9986 -1.7651
 2532SOL     OW 9749   6.458   8.187   3.412 -0.5355  0.0425  0.4234
 2532SOL    HW1 9750   6.427   8.232   3.333  1.2869 -2.3297 -1.8077
 2532SOL    HW2 9751   6.392   8.120   3.429  0.5293 -1.4383 -1.0206
 2533SOL     OW 9752   3.335   7.842   4.321  0.4943 -0.2737  0.3666
 2533SOL    HW1 9753   3.266   7.781   4.297 -0.5546  0.3661  1.6385
 2533SOL    HW2 9754   3.291   7.927   4.328  1.3685  0.1252  1.3369
 2534SOL     OW 9755   2.609   7.177   8.512 -1.1367 -0.1221 -0.3580
 2534SOL    HW1 9756   2.537   7.224   8.554 -0.8750  0.6728 -0.7797
 2534SOL    HW2 9757   2.566   7.116   8.451 -1.4499  1.7534 -2.1090
 2535SOL     OW 9758   5.552   3.347   6.280 -0.0846 -0.0548 -0.2123
 2535SOL    HW1 9759   5.608   3.288   6.331  0.6463 -0.2276 -1.1743
 2535SOL    HW2 9760   5.474   3.295   6.261  0.6045 -0.8087 -1.1636
 2536SOL     OW 9761   2.241   2.917   8.746  0.1353 -0.0510  0.1582
 2536SOL    HW1 9762   2.209   2.894   8.659  2.8913  0.1591 -0.9973
 2536SOL    HW2 9763   2.218   3.009   8.757 -0.5021 -0.1628 -0.2058
 2537SOL     OW 9764   4.159   5.791   8.480  0.2556 -0.3834 -0.1597
 2537SOL    HW1 9765   4.091   5.727   8.503 -0.2256 -0.1318 -0.8414
 2537SOL    HW2 9766   4.124   5.875   8.511 -0.8414  0.1176 -2.5245
 2538SOL     OW 9767   7.493   0.626   3.045  0.1265 -0.1216  0.4148
 2538SOL    HW1 9768   7.434   0.573   3.098  0.3998 -0.3746  0.4664
 2538SOL    HW2 9769   7.436   0.688   2.999 -0.0554  0.7382  1.7300
 2539SOL     OW 9770   3.898   6.538   3.030  0.1341 -0.2982  0.1764
 2539SOL    HW1 9771   3.858   6.569   2.949  3.1782 -0.2962 -1.4946
 2539SOL    HW2 9772   3.924   6.448   3.011  1.6438 -0.0292  0.8136
 2540SOL     OW 9773   4.600   0.113   0.277  0.5866  0.5555 -0.2248
 2540SOL    HW1 9774   4.539   0.149   0.341 -0.5961  2.3701 -2.2289
 2540SOL    HW2 9775   4.681   0.161   0.292  0.4123  0.7381  0.1409
 2541SOL     OW 9776   7.455   2.758   2.800  0.6092 -0.0472 -0.0620
 2541SOL    HW1 9777   7.398   2.822   2.758  0.4622 -0.6709 -0.8302
 2541SOL    HW2 9778   7.537   2.806   2.817  0.6929  0.1974 -1.1074
 2542SOL     OW 9779   7.709   0.291   4.893  0.1242 -0.9923 -0.0060
 2542SOL    HW1 9780   7.651   0.361   4.921  1.7428  0.3409  0.1709
 2542SOL    HW2 9781   7.651   0.220   4.866 -1.5594  0.3970 -0.1484
 2543SOL     OW 9782   6.698   0.618   0.364  0.0204  0.1138  0.1486
 2543SOL    HW1 9783   6.740   0.628   0.450 -2.0370 -0.2056  1.2421
 2543SOL    HW2 9784   6.605   0.631   0.380 -0.4129  0.3241 -2.1112
 2544SOL     OW 9785   6.043   9.592   8.637 -0.2020 -0.4686  0.1328
 2544SOL    HW1 9786   5.954   9.557   8.632 -1.2735  2.1327 -0.5531
 2544SOL    HW2 9787   6.038   9.677   8.592  2.3982  0.1909  0.9406
 2545SOL     OW 9788   4.843   2.085   0.603  0.4133  0.2869 -0.3111
 2545SOL    HW1 9789   4.926   2.121   0.633  0.5493 -1.0421  0.9851
 2545SOL    HW2 9790   4.783   2.160   0.606  1.1341  0.8524  0.4638
 2546SOL     OW 9791   2.376   4.303   8.430  0.1948 -0.6761  0.5002
 2546SOL    HW1 9792   2.367   4.208   8.433 -0.7053 -0.5898  0.9836
 2546SOL    HW2 9793   2.329   4.329   8.351 -0.9084 -0.5185  1.1833
 2547SOL     OW 9794   6.299   4.375   9.300 -0.1384  0.5450 -0.4165
 2547SOL    HW1 9795   6.289   4.468   9.321  1.0182  0.4555  0.6414
 2547SOL    HW2 9796   6.236   4.360   9.229 -0.5764  2.0508 -0.3921
 2548SOL     OW 9797   9.151   6.757   6.410 -0.3636 -0.4394  0.4709
 2548SOL    HW1 9798   9.115   6.846   6.412  0.0040 -0.2842  0.2039
 2548SOL    HW2 9799   9.245   6.769   6.404 -0.2240 -0.8540  1.6035
 2549SOL     OW 9800   5.968   0.443   7.277 -0.1062 -0.1009  0.0828
 2549SOL    HW1 9801   5.976   0.369   7.216 -0.6953 -0.1175  0.0245
 2549SOL    HW2 9802   5.947   0.518   7.222 -2.0501 -0.3735  0.3693
 2550SOL     OW 9803   4.707   2.766   1.358 -0.3235 -0.6579 -0.8034
 2550SOL    HW1 9804   4.626   2.809   1.331  0.1637  0.4533 -0.5308
 2550SOL    HW2 9805   4.692   2.742   1.449 -0.6077 -1.1303 -0.9665
 2551SOL     OW 9806   2.782   1.851   2.130  0.1521 -0.1294 -0.2506
 2551SOL    HW1 9807   2.726   1.894   2.195 -0.5935 -1.0713 -0.2433
 2551SOL    HW2 9808   2.735   1.770   2.108  0.7012 -0.1340 -1.4913
 2552SOL     OW 9809   2.378   3.075   7.323 -0.3155  0.3308  0.2736
 2552SOL    HW1 9810   2.441   3.006   7.301  0.0462  0.1437  1.7619
 2552SOL    HW2 9811   2.393   3.092   7.416  0.6585  3.5017 -0.3412
 2553SOL     OW 9812   4.447   0.242   5.581 -0.3573 -0.2857  0.3932
 2553SOL    HW1 9813   4.543   0.236   5.575 -0.3127  0.1648  0.6537
 2553SOL    HW2 9814   4.430   0.331   5.612 -0.8229 -0.6183  1.1218
 2554SOL     OW 9815   0.302   1.299   5.207  0.1472  0.3929 -0.1921
 2554SOL    HW1 9816   0.377   1.268   5.156 -0.5990 -0.0341 -1.0345
 2554SOL    HW2 9817   0.236   1.232   5.197 -0.2068  0.5479  0.9286
 2555SOL     OW 9818   4.299   2.253   9.352  0.4568 -0.3846 -0.0474
 2555SOL    HW1 9819   4.298   2.341   9.314  2.2314  0.6111  1.9890
 2555SOL    HW2 9820   4.338   2.198   9.284 -1.2205  0.2257 -1.5836
 2556SOL     OW 9821   5.317   5.666   7.449 -0.1547 -0.2018 -0.3894
 2556SOL    HW1 9822   5.227   5.641   7.429 -0.4997  0.1740  0.6014
 2556SOL    HW2 9823   5.311   5.710   7.535  0.8757  0.3840 -0.5971
 2557SOL     OW 9824   7.339   2.673   9.298  0.3270 -0.4942  0.5628
 2557SOL    HW1 9825   7.359   2.730   9.224  2.1417 -1.1439  0.4821
 2557SOL    HW2 9826   7.244   2.674   9.305  0.1209 -0.2176 -1.6215
 2558SOL     OW 9827   1.222   1.194   3.706 -0.1055 -0.2088  0.2607
 2558SOL    HW1 9828   1.241   1.250   3.632 -1.4398 -1.6454 -1.2369
 2558SOL    HW2 9829   1.164   1.245   3.762 -0.1479  0.4032 -0.3459
 2559SOL     OW 9830   3.370   3.791   5.854 -0.2452  0.1051  0.5151
 2559SOL    HW1 9831   3.326   3.868   5.890 -1.8019 -1.4524  2.1155
 2559SOL    HW2 9832   3.303   3.748   5.801  0.8751  0.2808 -1.0939
 2560SOL     OW 9833   6.759   3.949   6.235 -0.2621 -0.4226 -1.2458
 2560SOL    HW1 9834   6.727   4.035   6.261 -0.9895 -0.8043 -0.8553
 2560SOL    HW2 9835   6.844   3.941   6.278 -0.6011 -0.2685 -0.5377
 2561SOL     OW 9836   7.779   2.929   8.113 -0.0713 -0.1684 -0.1380
 2561SOL    HW1 9837   7.729   2.958   8.038 -1.1147 -2.6078 -0.4817
 2561SOL    HW2 9838   7.716   2.929   8.186  0.5880  0.8857  0.4672
 2562SOL     OW 9839   4.952   7.291   0.306  0.0891  0.2182 -0.2297
 2562SOL    HW1 9840   4.873   7.239   0.294 -0.1598  0.1319  1.5196
 2562SOL    HW2 9841   4.962   7.298   0.401  0.3519  3.0060 -0.3701
 2563SOL     OW 9842   2.564   7.609   0.819  0.5612  0.1271 -0.5599
 2563SOL    HW1 9843   2.648   7.572   0.793 -0.4285 -1.2592 -2.0159
 2563SOL    HW2 9844   2.540   7.667   0.747  0.5694  1.0818  0.1817
 2564SOL     OW 9845   3.744   2.002   7.065  0.0717  0.4673 -0.3765
 2564SOL    HW1 9846   3.796   2.080   7.046  0.8338 -0.1867 -1.0831
 2564SOL    HW2 9847   3.661   2.016   7.021  0.6287  0.3929 -1.4837
 2565SOL     OW 9848   6.373   8.715   2.349  0.1359 -0.0788 -0.4038
 2565SOL    HW1 9849   6.287   8.744   2.319 -0.1032  0.2389  0.5549
 2565SOL    HW2 9850   6.416   8.794   2.379 -0.3333 -0.5756  1.7720
 2566SOL     OW 9851   7.097   8.411   6.915 -0.7518  0.0340  0.1875
 2566SOL    HW1 9852   7.011   8.443   6.887 -0.7911  0.0561  0.3341
 2566SOL    HW2 9853   7.143   8.489   6.946  0.0472  0.3643 -1.6970
 2567SOL     OW 9854   9.364   1.425   0.310 -0.7122  0.2832 -0.1570
 2567SOL    HW1 9855   9.404   1.390   0.390 -0.6272  0.7039 -0.0130
 2567SOL    HW2 9856   9.417   1.501   0.288  1.1381 -1.4755 -2.3011
 2568SOL     OW 9857   8.830   4.113   4.834 -0.2194 -0.1887 -0.0300
 2568SOL    HW1 9858   8.844   4.018   4.834  1.0212 -0.0244 -0.9365
 2568SOL    HW2 9859   8.849   4.140   4.924 -2.3150 -0.9942  0.7232
 2569SOL     OW 9860   2.002   6.714   3.716 -0.3781 -0.2613  0.0117
 2569SOL    HW1 9861   2.052   6.761   3.650 -1.2576 -1.8626 -1.8979
 2569SOL    HW2 9862   1.915   6.703   3.677 -1.1297 -0.7103  1.7184
 2570SOL     OW 9863   3.288   2.035   3.881 -0.0322  0.0178 -0.2398
 2570SOL    HW1 9864   3.284   1.995   3.794 -0.4578  0.0024 -0.2141
 2570SOL    HW2 9865   3.342   2.114   3.868  1.9602 -1.2411 -0.0130
 2571SOL     OW 9866   7.587   2.237   9.084 -0.1841 -0.0175 -0.4998
 2571SOL    HW1 9867   7.670   2.192   9.067 -0.9524 -2.0295  0.6931
 2571SOL    HW2 9868   7.540   2.178   9.143 -2.2404  1.3393 -0.7026
 2572SOL     OW 9869   0.259   7.099   3.744  0.1895  0.1102  0.0082
 2572SOL    HW1 9870   0.210   7.044   3.805 -1.5873  0.9630 -0.5926
 2572SOL    HW2 9871   0.196   7.121   3.675  1.1663  1.9649 -0.3436
 2573SOL     OW 9872   7.910   4.614   8.151  0.0103  0.1559  0.4009
 2573SOL    HW1 9873   7.886   4.523   8.135  0.4908  0.1947 -0.6165
 2573SOL    HW2 9874   7.830   4.663   8.133  0.0878  0.0434 -0.2459
 2574SOL     OW 9875   9.380   5.572   0.671  0.5969  0.3200 -0.1692
 2574SOL    HW1 9876   9.438   5.600   0.599 -0.1106  0.4554 -0.6956
 2574SOL    HW2 9877   9.435   5.576   0.749  0.7172  2.5386 -0.3178
 2575SOL     OW 9878   1.137   2.919   7.028 -0.1128  0.2485 -0.3034
 2575SOL    HW1 9879   1.160   2.963   7.110 -0.6009 -0.1746  0.0672
 2575SOL    HW2 9880   1.221   2.906   6.984  0.1320  0.6735  0.0317
 2576SOL     OW 9881   5.395   2.521   1.414  0.3578  0.3990  0.3475
 2576SOL    HW1 9882   5.419   2.446   1.469 -0.6413 -0.1508  0.0495
 2576SOL    HW2 9883   5.352   2.483   1.338  1.6922  1.1568 -0.8356
 2577SOL     OW 9884   9.122   4.863   4.433  0.2452  0.4647  0.0254
 2577SOL    HW1 9885   9.053   4.922   4.402  0.2490  0.1698 -0.5577
 2577SOL    HW2 9886   9.078   4.779   4.446  0.3479  0.4602  0.3485
 2578SOL     OW 9887   7.545   6.874   7.855  0.8113 -0.6426 -0.2151
 2578SOL    HW1 9888   7.567   6.967   7.849  1.3767 -0.3697  3.5804
 2578SOL    HW2 9889   7.542   6.856   7.949 -0.0168 -4.3268 -0.7906
 2579SOL     OW 9890   3.935   2.994   0.528  0.1526  0.4768  0.4193
 2579SOL    HW1 9891   3.914   3.069   0.584  0.0816  1.3913 -0.7873
 2579SOL    HW2 9892   3.886   2.921   0.565 -0.5224  1.2496  1.0672
 2580SOL     OW 9893   5.602   3.508   3.696 -0.6228 -0.4765 -0.3286
 2580SOL    HW1 9894   5.693   3.534   3.680 -0.5997  0.3885  1.0961
 2580SOL    HW2 9895   5.601   3.413   3.681  0.0798 -0.2418 -2.1561
 2581SOL     OW 9896   9.165   1.500   5.278  0.5937 -0.6037  0.2594
 2581SOL    HW1 9897   9.166   1.585   5.322  1.8381  1.5063 -3.3847
 2581SOL    HW2 9898   9.246   1.457   5.306  1.3271  0.6415  0.1363
 2582SOL     OW 9899   5.262   9.126   4.366 -0.6153 -0.3814  0.3868
 2582SOL    HW1 9900   5.346   9.158   4.397  1.7884 -2.9780 -2.6215
 2582SOL    HW2 9901   5.236   9.059   4.430 -0.2432  0.2258  1.1813
 2583SOL     OW 9902   9.265   0.656   9.321  0.4328  0.2350  0.1084
 2583SOL    HW1 9903   9.309   0.609   9.392 -0.8031 -0.5755  0.3707
 2583SOL    HW2 9904   9.250   0.744   9.356 -1.7460 -0.6445  1.5990
 2584SOL     OW 9905   3.554   8.168   0.910  0.0913 -0.1443  0.7461
 2584SOL    HW1 9906   3.508   8.151   0.828  1.3077 -2.6088  0.4631
 2584SOL    HW2 9907   3.612   8.242   0.890  0.0505 -0.4182 -0.4978
 2585SOL     OW 9908   4.220   7.300   2.074 -0.3140  0.1147 -0.1127
 2585SOL    HW1 9909   4.199   7.348   2.155 -0.2471 -0.7376  0.4181
 2585SOL    HW2 9910   4.235   7.210   2.103 -2.1455 -0.6265 -1.3169
 2586SOL     OW 9911   2.747   9.219   7.755  0.3848 -0.0884 -0.0602
 2586SOL    HW1 9912   2.709   9.212   7.668  0.0289 -1.3250  0.1748
 2586SOL    HW2 9913   2.822   9.278   7.744 -1.5435  2.4290 -0.5099
 2587SOL     OW 9914   7.555   4.205   7.059  0.9782 -0.2439  0.0801
 2587SOL    HW1 9915   7.527   4.117   7.086  2.4610 -1.3960 -1.8456
 2587SOL    HW2 9916   7.624   4.227   7.122  0.2288 -0.1858  0.9091
 2588SOL     OW 9917   7.463   4.199   7.743 -0.1636  0.7856 -0.0066
 2588SOL    HW1 9918   7.478   4.108   7.717 -0.4904  0.2398  1.6195
 2588SOL    HW2 9919   7.518   4.213   7.819 -0.3319  1.8760 -0.0570
 2589SOL     OW 9920   3.305   6.016   2.660  0.6361  0.5175  0.0416
 2589SOL    HW1 9921   3.234   6.077   2.680 -0.3018 -0.3259 -0.6286
 2589SOL    HW2 9922   3.267   5.929   2.673  1.2286  0.0295 -1.2705
 2590SOL     OW 9923   8.852   1.996   1.901  0.4525 -0.3476 -0.2150
 2590SOL    HW1 9924   8.905   1.934   1.951 -0.0533  0.4687  1.3791
 2590SOL    HW2 9925   8.915   2.057   1.864  0.7333 -0.1658  0.5545
 2591SOL     OW 9926   2.086   3.785   7.865  0.7855  0.0730  0.1843
 2591SOL    HW1 9927   2.138   3.813   7.791 -1.3671  2.2835 -0.6260
 2591SOL    HW2 9928   1.997   3.778   7.831 -0.5289  2.3895  2.6988
 2592SOL     OW 9929   4.109   3.439   4.988 -0.0002 -0.4056  0.0231
 2592SOL    HW1 9930   4.200   3.408   4.993  0.0791 -0.1653  0.0648
 2592SOL    HW2 9931   4.105   3.512   5.049  0.2923  0.8359 -1.3840
 2593SOL     OW 9932   0.559   2.359   8.359  0.1199 -0.3453  0.3119
 2593SOL    HW1 9933   0.610   2.280   8.342  0.2420  0.0455 -1.3785
 2593SOL    HW2 9934   0.608   2.406   8.426  2.5745  0.4647 -1.8896
 2594SOL     OW 9935   6.441   6.139   3.309  0.1731  0.6575 -0.0850
 2594SOL    HW1 9936   6.497   6.176   3.240  0.8085 -1.0611 -0.5398
 2594SOL    HW2 9937   6.495   6.142   3.388 -0.1847  1.6729  0.1442
 2595SOL     OW 9938   1.794   2.803   6.134  0.0519  0.1623  0.1315
 2595SOL    HW1 9939   1.883   2.794   6.099 -0.3496 -0.4237 -0.7756
 2595SOL    HW2 9940   1.779   2.721   6.182  0.1900  0.4956  0.7622
 2596SOL     OW 9941   1.722   0.670   1.153 -0.1812  0.3777 -0.2896
 2596SOL    HW1 9942   1.706   0.588   1.200 -1.0424 -0.2585 -1.6480
 2596SOL    HW2 9943   1.653   0.674   1.087 -0.7100  2.6483  0.3136
 2597SOL     OW 9944   2.976   8.280   7.208  0.0477  0.1997 -0.0518
 2597SOL    HW1 9945   3.016   8.356   7.251 -0.6994 -0.9684  2.9553
 2597SOL    HW2 9946   2.889   8.274   7.245 -0.2786 -1.5483 -0.9965
 2598SOL     OW 9947   0.723   6.075   9.277 -0.2292 -0.1512 -0.1209
 2598SOL    HW1 9948   0.682   6.118   9.202 -0.3889 -1.5957 -0.8926
 2598SOL    HW2 9949   0.693   6.126   9.352 -1.1173  0.5543 -0.9224
 2599SOL     OW 9950   1.371   0.305   0.198  0.4664 -0.1927  0.0191
 2599SOL    HW1 9951   1.442   0.260   0.243  0.7906  0.6572  0.3647
 2599SOL    HW2 9952   1.414   0.371   0.144 -0.0995  1.1646  1.1671
 2600SOL     OW 9953   7.865   6.697   8.845  0.2829  0.2179 -0.3651
 2600SOL    HW1 9954   7.950   6.724   8.879  0.4120 -0.9514  0.3002
 2600SOL    HW2 9955   7.885   6.648   8.765  0.6648 -3.4406  1.7452
 2601SOL     OW 9956   2.059   4.827   1.833  0.0757  0.2701  0.0746
 2601SOL    HW1 9957   2.109   4.850   1.755  0.5479 -0.5022  0.1418
 2601SOL    HW2 9958   1.968   4.822   1.802  0.2059  0.3783 -0.3353
 2602SOL     OW 9959   0.555   7.599   2.566 -0.1019 -0.0944  0.0378
 2602SOL    HW1 9960   0.547   7.605   2.661  1.2864 -1.1678  0.2444
 2602SOL    HW2 9961   0.490   7.534   2.540  0.4138 -0.7834  0.4285
 2603SOL     OW 9962   1.357   4.411   6.921 -0.3045  0.1835  0.3966
 2603SOL    HW1 9963   1.266   4.417   6.951 -0.6757 -2.2360 -0.0163
 2603SOL    HW2 9964   1.360   4.329   6.871  2.0670  0.3193  0.2083
 2604SOL     OW 9965   4.841   6.482   5.980  0.5042 -0.1292  0.5206
 2604SOL    HW1 9966   4.866   6.467   5.889 -1.5897 -0.1448 -0.1020
 2604SOL    HW2 9967   4.823   6.395   6.015 -1.0232  0.0215  0.1895
 2605SOL     OW 9968   7.361   5.901   7.981 -0.4412  0.5381  0.0928
 2605SOL    HW1 9969   7.279   5.941   7.950 -2.0444 -2.1689  0.5356
 2605SOL    HW2 9970   7.342   5.807   7.982  1.6563  0.0410  3.2131
 2606SOL     OW 9971   6.132   2.009   5.575  0.1907  0.4445 -0.2093
 2606SOL    HW1 9972   6.145   2.061   5.654  0.6123  0.5109 -0.3189
 2606SOL    HW2 9973   6.139   2.072   5.503  1.4361  0.1383 -0.3844
 2607SOL     OW 9974   6.474   0.074   1.571  0.3994 -0.3227 -0.8528
 2607SOL    HW1 9975   6.475   0.168   1.551 -0.0088 -0.0580  0.2934
 2607SOL    HW2 9976   6.525   0.034   1.501  3.3534  1.1027  0.3356
 2608SOL     OW 9977   9.101   2.111   8.067 -0.0040 -0.5638 -0.0166
 2608SOL    HW1 9978   9.182   2.066   8.092 -1.3326 -2.9564  0.2088
 2608SOL    HW2 9979   9.087   2.088   7.975  0.6105  1.5973 -0.7273
 2609SOL     OW 9980   4.946   3.223   1.522 -0.0896 -0.2773  0.1231
 2609SOL    HW1 9981   4.980   3.143   1.482 -1.6732 -1.7127  1.4778
 2609SOL    HW2 9982   4.926   3.280   1.448  1.0979 -1.0978 -0.8758
 2610SOL     OW 9983   1.169   8.011   6.729  0.3596 -0.1233 -0.0638
 2610SOL    HW1 9984   1.129   8.048   6.650 -0.1470 -1.9465 -0.7082
 2610SOL    HW2 9985   1.173   7.917   6.712  1.4750 -0.4089  1.5558
 2611SOL     OW 9986   5.758   6.033   4.861 -0.1467  0.4171 -0.2127
 2611SOL    HW1 9987   5.708   6.019   4.941  0.0802  0.7194 -0.0159
 2611SOL    HW2 9988   5.696   6.075   4.801 -0.2472  0.4161 -0.1091
 2612SOL     OW 9989   0.359   2.744   0.338 -0.1867  0.2034  0.5098
 2612SOL    HW1 9990   0.284   2.802   0.327  0.9264  1.6262  0.1017
 2612SOL    HW2 9991   0.320   2.658   0.356 -1.8908  0.9583  0.6682
 2613SOL     OW 9992   7.716   7.930   1.284  0.0514 -0.0519  0.1791
 2613SOL    HW1 9993   7.773   7.986   1.232  0.3840 -0.9703 -0.4731
 2613SOL    HW2 9994   7.667   7.990   1.340  2.1238  0.7236  1.2498
 2614SOL     OW 9995   5.139   3.360   5.651 -0.3858  0.5724 -0.2360
 2614SOL    HW1 9996   5.182   3.381   5.734 -0.0662  1.2141 -0.5629
 2614SOL    HW2 9997   5.064   3.306   5.677  0.3118 -0.1313  0.3784
 2615SOL     OW 9998   0.025   1.098   2.067  0.3000 -0.0157 -0.2954
 2615SOL    HW1 9999   0.015   1.005   2.088  0.1525  0.1203  0.2408
 2615SOL    HW210000   0.032   1.142   2.152  0.1304  0.4922 -0.5383
 2616SOL     OW10001   2.367   7.561   5.258 -0.2811 -0.0591  0.6199
 2616SOL    HW110002   2.381   7.568   5.164 -1.1304 -0.5174  0.4467
 2616SOL    HW210003   2.276   7.532   5.267 -0.9662  2.1755  1.6397
 2617SOL     OW10004   4.603   4.900   1.042 -0.2705  0.0236 -0.1039
 2617SOL    HW110005   4.633   4.961   1.109 -0.2394  2.2772 -2.0558
 2617SOL    HW210006   4.658   4.919   0.966  0.4903 -3.2225 -0.5214
 2618SOL     OW10007   5.124   7.439   3.354 -0.3026 -0.0647 -0.3277
 2618SOL    HW110008   5.145   7.364   3.408 -2.6114 -1.4225 -1.1529
 2618SOL    HW210009   5.097   7.507   3.416 -0.5397 -0.7633  0.3482
 2619SOL     OW10010   7.527   7.677   8.442 -0.0804 -0.6330  0.3299
 2619SOL    HW110011   7.587   7.733   8.491 -0.5812  0.3698 -0.1753
 2619SOL    HW210012   7.462   7.650   8.507 -1.2247  1.3763  0.0940
 2620SOL     OW10013   1.412   1.433   7.796 -0.3587  0.1412  0.1342
 2620SOL    HW110014   1.454   1.358   7.838 -1.0913  0.1455  0.8963
 2620SOL    HW210015   1.319   1.422   7.816 -0.6171  0.6235 -0.7523
 2621SOL     OW10016   8.019   0.192   6.936 -0.2106  0.2549  0.8095
 2621SOL    HW110017   7.956   0.222   7.002 -0.7927 -1.1699  0.9305
 2621SOL    HW210018   7.988   0.105   6.912 -1.0285  1.3291 -2.5711
 2622SOL     OW10019   7.844   7.430   7.120 -0.4280 -0.0713  0.1249
 2622SOL    HW110020   7.889   7.471   7.046 -0.1540 -0.5043  0.0498
 2622SOL    HW210021   7.753   7.421   7.091 -0.4507  0.2998  0.0693
 2623SOL     OW10022   8.132   3.570   0.022  0.3642  0.4072 -0.0164
 2623SOL    HW110023   8.043   3.541   0.002 -0.3758  0.9965  2.0948
 2623SOL    HW210024   8.166   3.503   0.081  0.8778  0.7821  0.1209
 2624SOL     OW10025   8.791   7.933   3.219  0.2612  0.2421  0.2994
 2624SOL    HW110026   8.783   7.850   3.172 -2.0009  0.1540  0.6889
 2624SOL    HW210027   8.813   7.908   3.308 -1.3967 -0.0835  0.6608
 2625SOL     OW10028   9.535   5.069   3.341 -0.7284 -0.4201  0.7020
 2625SOL    HW110029   9.535   5.008   3.414 -0.5060  1.0640  1.9962
 2625SOL    HW210030   9.566   5.152   3.378  1.6230 -0.1484 -1.5375
 2626SOL     OW10031   0.990   3.302   4.188  0.2800 -0.3716 -0.3053
 2626SOL    HW110032   1.049   3.374   4.162  0.0296 -0.2686 -0.5967
 2626SOL    HW210033   0.961   3.325   4.276  1.3586 -0.8586  0.1990
 2627SOL     OW10034   6.492   4.982   4.102 -0.1855 -0.5305  0.6484
 2627SOL    HW110035   6.496   5.058   4.044  1.8244 -1.6984 -0.8262
 2627SOL    HW210036   6.400   4.955   4.099 -0.1080 -0.8057 -2.4070
 2628SOL     OW10037   2.802   5.385   1.732  0.3515 -0.2085 -0.6701
 2628SOL    HW110038   2.794   5.360   1.640  0.4943  0.4543 -0.8722
 2628SOL    HW210039   2.712   5.391   1.763  0.2616  0.5066 -1.0405
 2629SOL     OW10040   3.474   3.993   6.793  0.1317 -0.0774 -0.3679
 2629SOL    HW110041   3.469   3.901   6.817  0.5217  0.3303  1.3913
 2629SOL    HW210042   3.413   4.037   6.853  1.3569  1.0227  0.1086
 2630SOL     OW10043   4.150   8.869   2.145 -0.0955  0.2034  0.1595
 2630SOL    HW110044   4.063   8.847   2.111  0.8176 -1.8680 -1.0651
 2630SOL    HW210045   4.151   8.830   2.233 -0.2106 -0.3127 -0.0622
 2631SOL     OW10046   1.954   3.418   9.382  0.2474  0.5469 -0.2497
 2631SOL    HW110047   1.932   3.401   9.291 -0.2364 -2.6697  0.3223
 2631SOL    HW210048   2.045   3.388   9.391  0.1556  0.4512  0.4113
 2632SOL     OW10049   3.348   2.098   3.145  0.4884  0.2657 -0.6250
 2632SOL    HW110050   3.278   2.158   3.171 -1.2355 -1.8358 -0.2028
 2632SOL    HW210051   3.425   2.128   3.194 -1.1727  0.0448  2.3298
 2633SOL     OW10052   8.091   3.103   5.699 -0.0602 -0.0714  0.1442
 2633SOL    HW110053   8.030   3.067   5.764  2.0856 -1.0570  1.7220
 2633SOL    HW210054   8.081   3.045   5.623 -2.0221  0.6146 -0.1935
 2634SOL     OW10055   1.268   0.289   1.747  0.0819  0.0886  0.1671
 2634SOL    HW110056   1.223   0.227   1.689 -1.7598  0.8167  0.7274
 2634SOL    HW210057   1.339   0.325   1.693  0.4089 -1.5622 -0.5618
 2635SOL     OW10058   7.520   7.900   6.726 -0.3441  0.6365 -0.0833
 2635SOL    HW110059   7.479   7.816   6.705 -1.1924  1.2304 -0.8452
 2635SOL    HW210060   7.447   7.961   6.736  0.2953  1.4792 -0.4078
 2636SOL     OW10061   1.440   3.706   2.428 -0.2099  0.9039  0.0048
 2636SOL    HW110062   1.356   3.714   2.383  0.2665  0.6412 -0.9617
 2636SOL    HW210063   1.502   3.682   2.359  0.4907  0.2016  0.8518
 2637SOL     OW10064   0.888   8.905   3.471  0.3383  0.0010 -0.2076
 2637SOL    HW110065   0.915   8.848   3.400 -0.5263 -0.4719 -0.1699
 2637SOL    HW210066   0.834   8.849   3.527 -1.4982  1.1338 -0.7792
 2638SOL     OW10067   0.131   1.389   6.537 -0.0854  0.1330 -0.2806
 2638SOL    HW110068   0.226   1.400   6.529  0.0263 -1.4589 -1.6838
 2638SOL    HW210069   0.101   1.471   6.576  1.6072  1.5852 -1.8285
 2639SOL     OW10070   3.962   8.339   0.304 -0.4376 -0.2430 -0.6932
 2639SOL    HW110071   3.898   8.410   0.307 -0.5108 -0.3199 -0.2690
 2639SOL    HW210072   4.006   8.349   0.220  2.2993  2.7518  0.8621
 2640SOL     OW10073   5.227   7.672   0.469 -0.3113  0.8159 -0.1844
 2640SOL    HW110074   5.268   7.587   0.457  1.1996  1.6812 -1.4542
 2640SOL    HW210075   5.190   7.668   0.557  1.3077 -0.5206  0.4950
 2641SOL     OW10076   6.949   7.605   2.891  0.0312  0.0788  0.3904
 2641SOL    HW110077   6.947   7.575   2.800 -0.6955  2.2735 -0.3930
 2641SOL    HW210078   7.019   7.671   2.893 -0.3890  0.5195  1.2301
 2642SOL     OW10079   2.483   3.893   0.526 -0.0834  0.6005 -0.0199
 2642SOL    HW110080   2.557   3.946   0.498  0.4173  0.0947  0.3295
 2642SOL    HW210081   2.522   3.815   0.565 -0.7965  0.3839  0.2877
 2643SOL     OW10082   1.074   8.318   8.684  0.3659  0.2009 -0.1088
 2643SOL    HW110083   0.998   8.261   8.673  0.9000 -0.5837  0.2422
 2643SOL    HW210084   1.046   8.402   8.646 -1.1730  0.3647  1.2404
 2644SOL     OW10085   2.985   6.927   1.079 -0.0512  0.4865 -0.2518
 2644SOL    HW110086   2.926   6.852   1.079  0.0862  0.3646 -1.2801
 2644SOL    HW210087   3.054   6.904   1.017  0.2248  1.2898 -0.2638
 2645SOL     OW10088   4.364   7.324   9.241 -0.6021  0.3527 -0.1622
 2645SOL    HW110089   4.407   7.343   9.324  0.2613  0.2266 -0.5800
 2645SOL    HW210090   4.284   7.278   9.267 -0.2355  0.1121  0.5882
 2646SOL     OW10091   3.722   3.777   0.992 -0.3797 -0.3305  0.0253
 2646SOL    HW110092   3.717   3.684   1.014  0.8603 -0.2821  0.6147
 2646SOL    HW210093   3.722   3.779   0.896 -1.0558 -0.8855  0.0073
 2647SOL     OW10094   7.882   3.857   9.152  0.1125 -0.1570  1.3774
 2647SOL    HW110095   7.856   3.949   9.159  1.0432  0.0631  2.1836
 2647SOL    HW210096   7.800   3.810   9.136 -0.1839  0.9690 -0.9096
 2648SOL     OW10097   5.556   2.834   5.208 -0.5296 -0.0043  0.4506
 2648SOL    HW110098   5.505   2.887   5.146 -0.0708 -0.3202 -0.2066
 2648SOL    HW210099   5.495   2.766   5.237 -0.1363 -1.1502 -1.3037
 2649SOL     OW10100   6.597   6.535   0.113 -0.5329  0.3426  0.6539
 2649SOL    HW110101   6.691   6.551   0.109 -0.0408 -2.3345 -0.6469
 2649SOL    HW210102   6.566   6.549   0.024 -1.5941  2.0413  1.2372
 2650SOL     OW10103   8.863   5.288   7.870  0.1864 -0.0554 -0.0641
 2650SOL    HW110104   8.850   5.381   7.855  2.2402  0.5789  1.6410
 2650SOL    HW210105   8.928   5.283   7.940 -1.9652 -2.7509  2.0040
 2651SOL     OW10106   0.587   8.004   2.671  0.2237 -0.2277  0.7651
 2651SOL    HW110107   0.571   8.048   2.587  2.0671  1.1522  1.0657
 2651SOL    HW210108   0.646   7.932   2.649  0.1151 -0.3212  0.7792
 2652SOL     OW10109   4.029   6.594   5.018 -0.2064 -0.0663  0.0438
 2652SOL    HW110110   3.961   6.528   5.000 -1.7937  1.5422 -0.1468
 2652SOL    HW210111   3.986   6.659   5.073  0.3162  2.3726 -2.2076
 2653SOL     OW10112   0.122   1.730   7.762  0.3694 -0.2336 -0.2613
 2653SOL    HW110113   0.121   1.714   7.857  0.1387 -0.7344 -0.3448
 2653SOL    HW210114   0.043   1.686   7.730 -0.4199  1.2967 -0.4684
 2654SOL     OW10115   9.393   0.427   3.164 -0.6283 -0.4328  0.0593
 2654SOL    HW110116   9.390   0.333   3.148 -0.0268 -0.2586 -1.2029
 2654SOL    HW210117   9.303   0.449   3.189 -0.6412 -1.4219  0.9787
 2655SOL     OW10118   2.751   4.532   3.745  0.3546 -0.0672  0.1372
 2655SOL    HW110119   2.830   4.577   3.776  1.0065  0.8623 -2.5772
 2655SOL    HW210120   2.685   4.601   3.740 -0.9446 -0.9592  3.0213
 2656SOL     OW10121   0.003   6.279   8.580 -0.1709  0.2544  0.3067
 2656SOL    HW110122   0.026   6.218   8.510  1.3102 -0.0809  1.0653
 2656SOL    HW210123  -0.090   6.300   8.563 -0.3834 -1.2947 -0.6250
 2657SOL     OW10124   2.589   6.993   3.798  0.0582 -0.1696 -0.1895
 2657SOL    HW110125   2.496   7.014   3.804 -0.0499 -0.9534  1.1827
 2657SOL    HW210126   2.595   6.930   3.726 -0.3136  0.6170 -0.9324
 2658SOL     OW10127   8.823   8.754   3.127  0.2921 -0.1934 -0.7725
 2658SOL    HW110128   8.768   8.685   3.165  0.7656  0.3236  0.8867
 2658SOL    HW210129   8.911   8.715   3.123  1.2167  1.1633  2.8812
 2659SOL     OW10130   7.463   4.760   5.448  0.1994  0.0691  0.5467
 2659SOL    HW110131   7.522   4.687   5.468 -1.5233 -1.4764  0.2135
 2659SOL    HW210132   7.436   4.793   5.534  1.3810  0.7168  0.7035
 2660SOL     OW10133   5.615   5.211   0.808 -0.1327 -0.3959 -0.1175
 2660SOL    HW110134   5.667   5.240   0.733 -0.2431 -1.6617 -0.7057
 2660SOL    HW210135   5.566   5.288   0.834 -0.0984  0.0656 -1.3531
 2661SOL     OW10136   4.266   6.516   2.570 -0.2930  0.0403  0.0386
 2661SOL    HW110137   4.200   6.449   2.588 -0.7845  0.5208  0.0874
 2661SOL    HW210138   4.218   6.583   2.521  0.3449  0.0563 -0.5804
 2662SOL     OW10139   4.863   7.373   4.872 -0.3398 -0.4998  0.1429
 2662SOL    HW110140   4.798   7.412   4.931 -0.3346 -1.0410  0.5063
 2662SOL    HW210141   4.889   7.446   4.815  0.9764  0.4939  1.9246
 2663SOL     OW10142   2.745   3.991   5.868 -0.2750 -0.1883 -0.1074
 2663SOL    HW110143   2.771   4.021   5.781  0.7337 -2.9356 -0.8502
 2663SOL    HW210144   2.816   4.019   5.926 -0.3571  0.5832 -0.3689
 2664SOL     OW10145   3.235   6.141   1.266  0.1725 -0.2875 -0.3036
 2664SOL    HW110146   3.156   6.172   1.310 -0.0318 -0.9459 -0.1994
 2664SOL    HW210147   3.229   6.180   1.178 -0.2804 -0.3509 -0.3061
 2665SOL     OW10148   2.692   4.116   9.073 -0.2602  0.0281  0.3237
 2665SOL    HW110149   2.643   4.197   9.057 -0.7458 -0.5403 -1.1871
 2665SOL    HW210150   2.649   4.050   9.018  1.2401 -0.8429  0.1469
 2666SOL     OW10151   9.201   4.174   7.503 -0.2748 -0.4052  0.0192
 2666SOL    HW110152   9.219   4.262   7.537  0.5421 -1.1187  1.5296
 2666SOL    HW210153   9.121   4.184   7.452 -0.8366  1.0062  1.1059
 2667SOL     OW10154   3.975   9.215   9.199  1.2102 -0.1007 -0.0853
 2667SOL    HW110155   4.022   9.151   9.146  2.0320  0.5304 -0.1414
 2667SOL    HW210156   3.930   9.271   9.137 -0.5942 -1.4026 -0.0005
 2668SOL     OW10157   6.567   9.041   4.682  0.1784  0.2402 -0.3662
 2668SOL    HW110158   6.623   9.032   4.758  0.2972 -0.4104 -0.5221
 2668SOL    HW210159   6.620   9.009   4.609 -0.5114 -0.7349 -0.4577
 2669SOL     OW10160   1.222   0.095   6.619  0.7301  0.5220 -0.2437
 2669SOL    HW110161   1.247   0.011   6.580  3.3508  0.3112  1.6191
 2669SOL    HW210162   1.146   0.075   6.673  0.6291 -0.4036 -0.7083
 2670SOL     OW10163   9.614   1.912   4.800 -0.2200 -0.0288 -0.1327
 2670SOL    HW110164   9.654   1.829   4.775 -0.7701 -0.9635  1.8645
 2670SOL    HW210165   9.605   1.906   4.895  2.1025  3.4211  0.4750
 2671SOL     OW10166   0.939   8.728   3.268  0.0230  0.6675 -0.2571
 2671SOL    HW110167   0.912   8.708   3.178 -0.1039  2.9349 -0.7914
 2671SOL    HW210168   1.035   8.734   3.263  0.0209  0.7309 -0.2209
 2672SOL     OW10169   3.060   6.330   8.293 -0.3737 -0.2769 -0.3390
 2672SOL    HW110170   3.155   6.323   8.299 -0.4990 -3.1491 -0.2848
 2672SOL    HW210171   3.027   6.257   8.346 -2.6595  1.1757  0.3888
 2673SOL     OW10172   7.057   4.130   1.180  0.3249 -0.2826 -0.5201
 2673SOL    HW110173   6.962   4.122   1.176  0.2781 -1.5629  1.6677
 2673SOL    HW210174   7.089   4.058   1.126  0.0179 -0.9395  0.1528
 2674SOL     OW10175   9.332   0.889   3.492 -0.6269  0.5552 -0.3224
 2674SOL    HW110176   9.348   0.868   3.400  0.9892 -0.9067  0.2515
 2674SOL    HW210177   9.308   0.982   3.491 -0.2734  0.6755 -2.1679
 2675SOL     OW10178   6.528   5.572   5.270 -0.1102  0.2994 -0.0161
 2675SOL    HW110179   6.534   5.559   5.364  0.9670 -0.6999 -0.1926
 2675SOL    HW210180   6.519   5.483   5.235  1.2786  0.4902 -0.9458
 2676SOL     OW10181   6.948   5.762   4.506  0.8682  0.0207  0.4373
 2676SOL    HW110182   6.887   5.823   4.546 -2.2863 -0.5148 -3.0130
 2676SOL    HW210183   6.999   5.816   4.445 -1.7227 -0.4188 -2.3964
 2677SOL     OW10184   3.457   9.364   5.639  0.0897 -0.0207 -0.0559
 2677SOL    HW110185   3.364   9.367   5.618  0.0283  0.1876  0.2372
 2677SOL    HW210186   3.486   9.278   5.608 -0.0811  0.1223 -0.6226
 2678SOL     OW10187   7.032   7.809   2.278  0.7886  0.4066 -0.3912
 2678SOL    HW110188   6.983   7.884   2.310 -0.3909  0.0564 -1.2759
 2678SOL    HW210189   7.099   7.793   2.344  0.9912  2.1480 -0.1313
 2679SOL     OW10190   1.643   5.593   4.534  0.7837  0.0727  0.1331
 2679SOL    HW110191   1.714   5.631   4.587  0.5640 -2.1779  2.1708
 2679SOL    HW210192   1.684   5.520   4.488 -0.0105 -0.7106  0.6540
 2680SOL     OW10193   6.442   7.534   6.012 -0.5155  0.1261 -0.4397
 2680SOL    HW110194   6.519   7.492   5.973  0.2148  2.0708 -1.2305
 2680SOL    HW210195   6.398   7.576   5.938 -0.3884  1.9570  0.4743
 2681SOL     OW10196   6.062   8.343   7.906  0.4233  0.6007 -0.3024
 2681SOL    HW110197   5.976   8.335   7.863  1.4531 -0.1575 -2.3660
 2681SOL    HW210198   6.120   8.291   7.851  2.2915  1.4241  0.8316
 2682SOL     OW10199   1.209   2.020   4.432 -0.0798 -0.1707 -0.1500
 2682SOL    HW110200   1.255   2.042   4.513  0.3900 -0.9433 -0.1955
 2682SOL    HW210201   1.117   2.038   4.450  0.2149  1.3993 -0.0504
 2683SOL     OW10202   7.819   4.852   5.492  0.6519 -0.6912 -0.0265
 2683SOL    HW110203   7.910   4.876   5.510  0.2391  0.5352  0.5429
 2683SOL    HW210204   7.819   4.825   5.401  1.5451 -0.4279 -0.1174
 2684SOL     OW10205   3.038   2.776   1.108  0.2195  0.8091  0.1884
 2684SOL    HW110206   3.046   2.684   1.083 -0.0980  0.7821  0.1829
 2684SOL    HW210207   3.015   2.821   1.026  0.7480  0.9469  0.1156
 2685SOL     OW10208   3.337   2.371   3.000  0.0497 -1.0289 -0.2025
 2685SOL    HW110209   3.322   2.464   2.985  2.3517 -0.7184 -1.0935
 2685SOL    HW210210   3.269   2.344   3.061 -0.3500  1.3566  0.4854
 2686SOL     OW10211   6.928   1.379   0.088  0.3611 -0.3019 -0.0111
 2686SOL    HW110212   6.858   1.321   0.118  0.1058  0.8499  1.7862
 2686SOL    HW210213   6.911   1.391  -0.005 -0.2791 -2.1158 -0.1681
 2687SOL     OW10214   6.377   0.020   0.106  0.1533 -0.0066 -0.0171
 2687SOL    HW110215   6.318   0.062   0.044 -0.1266  1.0806  0.9590
 2687SOL    HW210216   6.455  -0.002   0.055 -1.1796 -1.8219 -1.4344
 2688SOL     OW10217   8.699   8.540   8.637 -0.8605  0.3033  0.1005
 2688SOL    HW110218   8.731   8.450   8.642 -1.8602 -0.0690  0.1237
 2688SOL    HW210219   8.721   8.578   8.722 -2.0197 -0.4918  0.7882
 2689SOL     OW10220   1.510   8.737   9.491 -0.4368 -0.8413  1.0202
 2689SOL    HW110221   1.429   8.727   9.441 -0.8924 -0.3361  1.6359
 2689SOL    HW210222   1.561   8.801   9.441 -0.2562 -1.4212  0.4453
 2690SOL     OW10223   6.510   6.495   5.960  1.1289  0.1181 -0.2728
 2690SOL    HW110224   6.513   6.472   5.867 -0.0483 -2.0738  0.1588
 2690SOL    HW210225   6.596   6.471   5.994  2.0589  2.2220 -1.0155
 2691SOL     OW10226   0.312   0.948   2.205 -0.4369  0.6789  0.3606
 2691SOL    HW110227   0.373   1.008   2.163  0.0312  1.5526  2.2128
 2691SOL    HW210228   0.247   0.929   2.137  1.7387 -0.1893 -1.6343
 2692SOL     OW10229   5.383   7.485   4.147  0.0861  0.4694  0.9855
 2692SOL    HW110230   5.308   7.431   4.171  1.9169 -1.5569  2.5950
 2692SOL    HW210231   5.386   7.553   4.213 -0.2127  0.4364  1.0332
 2693SOL     OW10232   5.494   0.543   6.845  0.1549 -0.0864  0.3052
 2693SOL    HW110233   5.568   0.554   6.785 -0.7416  0.1605 -0.7938
 2693SOL    HW210234   5.480   0.448   6.849 -2.0030 -0.0603 -2.8040
 2694SOL     OW10235   2.793   8.390   7.844  0.1742  0.0079 -0.0248
 2694SOL    HW110236   2.731   8.463   7.836 -0.0796 -0.3153 -1.3000
 2694SOL    HW210237   2.745   8.322   7.890 -0.4504 -0.2452 -1.0150
 2695SOL     OW10238   8.576   2.482   4.260  0.7847 -0.1644 -0.0456
 2695SOL    HW110239   8.538   2.499   4.174  0.0993 -2.1805 -0.1895
 2695SOL    HW210240   8.631   2.404   4.248  0.6782 -0.4848  1.3220
 2696SOL     OW10241   7.276   7.846   7.147  0.0138  0.8701 -0.3293
 2696SOL    HW110242   7.213   7.908   7.111 -1.6284 -0.3039  0.3615
 2696SOL    HW210243   7.275   7.863   7.242 -0.7914 -0.4243 -0.0711
 2697SOL     OW10244   3.648   1.616   4.259  0.2403 -0.0776  0.3544
 2697SOL    HW110245   3.733   1.642   4.222  0.4376 -1.3896 -0.1412
 2697SOL    HW210246   3.671   1.565   4.337 -0.0804 -0.8394 -0.0492
 2698SOL     OW10247   8.161   0.561   8.199 -0.1898 -0.5318  0.1592
 2698SOL    HW110248   8.110   0.485   8.172 -0.8241  0.6800 -2.3391
 2698SOL    HW210249   8.235   0.563   8.138  0.4698  0.2102  0.9500
 2699SOL     OW10250   4.526   4.732   7.354  0.2764 -0.1019  0.5320
 2699SOL    HW110251   4.447   4.723   7.301 -0.4864 -0.5659  1.7087
 2699SOL    HW210252   4.494   4.744   7.443  1.5258  0.9299  0.8684
 2700SOL     OW10253   7.026   6.674   5.586 -0.0766 -0.3030 -0.4821
 2700SOL    HW110254   6.966   6.634   5.649  0.3064  0.1057  0.1592
 2700SOL    HW210255   7.100   6.703   5.639 -0.5493  1.6981 -0.8312
 2701SOL     OW10256   8.736   6.770   2.113 -0.1066 -0.3922  0.1841
 2701SOL    HW110257   8.778   6.759   2.027  0.1174  1.2084  0.0613
 2701SOL    HW210258   8.808   6.768   2.175 -0.0212  0.5896  0.1298
 2702SOL     OW10259   5.851   8.505   5.179 -0.0534 -0.3611  0.6712
 2702SOL    HW110260   5.762   8.529   5.203  0.5474 -0.3404  3.1683
 2702SOL    HW210261   5.842   8.427   5.124 -1.5512 -0.9951  1.7666
 2703SOL     OW10262   8.529   8.708   8.524  0.4040  0.5221  0.2345
 2703SOL    HW110263   8.594   8.642   8.548  0.3402  0.2831 -0.2494
 2703SOL    HW210264   8.546   8.780   8.585 -0.6667 -0.6024  1.9483
 2704SOL     OW10265   8.679   5.139   5.015 -0.8025 -0.0320  0.3581
 2704SOL    HW110266   8.634   5.139   4.931 -0.7754 -0.0457  0.3438
 2704SOL    HW210267   8.699   5.231   5.032  0.2752 -0.1431 -0.2269
 2705SOL     OW10268   8.904   2.122   3.971 -0.2498  0.0362 -0.1134
 2705SOL    HW110269   8.962   2.116   4.046  0.4095  1.7035 -0.4495
 2705SOL    HW210270   8.935   2.198   3.922  0.4673 -1.9823 -3.0646
 2706SOL     OW10271   2.500   6.132   7.491 -0.8997 -0.0288 -0.9323
 2706SOL    HW110272   2.498   6.124   7.586 -1.6715 -0.2585 -0.9575
 2706SOL    HW210273   2.409   6.153   7.467 -0.6348  0.4171 -1.5834
 2707SOL     OW10274   5.307   8.473   3.790 -0.3869 -0.5640  0.3188
 2707SOL    HW110275   5.271   8.481   3.701  0.5656 -0.4560 -0.0656
 2707SOL    HW210276   5.319   8.379   3.803 -1.3576 -0.6504  0.6845
 2708SOL     OW10277   2.377   9.450   1.959  0.3511 -0.5267  0.2661
 2708SOL    HW110278   2.372   9.413   1.871  0.2107 -1.9836  0.8471
 2708SOL    HW210279   2.341   9.538   1.951 -1.5384 -1.3424 -0.7659
 2709SOL     OW10280   5.142   3.286   3.708 -1.0577 -0.0777 -0.0041
 2709SOL    HW110281   5.182   3.304   3.793 -0.0216 -2.4043  0.0851
 2709SOL    HW210282   5.204   3.322   3.645 -0.1804 -1.1607  0.2008
 2710SOL     OW10283   2.979   2.446   5.679 -0.4903 -0.8336  0.0005
 2710SOL    HW110284   2.926   2.429   5.601 -1.4964 -0.2243  0.5338
 2710SOL    HW210285   2.923   2.422   5.752  0.9660 -2.8261  0.5549
 2711SOL     OW10286   6.715   3.669   7.730  0.8732  0.3370  0.0681
 2711SOL    HW110287   6.769   3.614   7.786  1.9307  1.1475 -0.1277
 2711SOL    HW210288   6.763   3.674   7.647 -0.4448 -0.4765 -0.7906
 2712SOL     OW10289   2.386   4.439   1.959 -0.2768 -0.3965  0.6327
 2712SOL    HW110290   2.394   4.533   1.973  1.1775 -0.3978 -0.0741
 2712SOL    HW210291   2.317   4.431   1.894  0.8533  0.3196 -0.6937
 2713SOL     OW10292   9.078   7.841   4.467  0.0618 -0.7488  0.2193
 2713SOL    HW110293   9.140   7.879   4.406 -0.1659 -0.3055  0.2615
 2713SOL    HW210294   8.995   7.885   4.449  0.3312  0.5459  1.8914
 2714SOL     OW10295   0.141   1.302   2.248  0.2505 -0.2710 -0.3699
 2714SOL    HW110296   0.067   1.362   2.255  1.1401  1.0313 -1.5733
 2714SOL    HW210297   0.181   1.304   2.335  0.6062  1.4139 -0.5235
 2715SOL     OW10298   3.367   7.810   5.394  0.0142 -0.3570 -0.3284
 2715SOL    HW110299   3.385   7.904   5.385  0.8288 -0.6425 -2.0766
 2715SOL    HW210300   3.281   7.798   5.353  0.2823 -0.4958 -0.8536
 2716SOL     OW10301   7.848   3.624   0.967 -0.1196 -0.0233 -0.0319
 2716SOL    HW110302   7.845   3.711   0.928 -0.1071 -0.0185 -0.0219
 2716SOL    HW210303   7.814   3.566   0.899 -1.0182  0.1100  0.2962
 2717SOL     OW10304   8.196   7.971   6.616 -0.0236 -0.2061 -0.4566
 2717SOL    HW110305   8.142   8.023   6.557 -1.9524 -0.2727  1.1528
 2717SOL    HW210306   8.138   7.902   6.647  1.1503 -0.6124  0.9350
 2718SOL     OW10307   2.775   5.110   7.515 -0.5228  0.3400 -0.0627
 2718SOL    HW110308   2.790   5.047   7.445 -1.6071  0.1721 -0.1602
 2718SOL    HW210309   2.827   5.187   7.489 -0.8303  0.2478 -1.0060
 2719SOL     OW10310   8.265   5.725   8.972  0.2397  0.7343  0.3238
 2719SOL    HW110311   8.342   5.781   8.975  0.3354  0.6300 -0.0997
 2719SOL    HW210312   8.284   5.661   8.903  1.4685 -1.7989  2.8224
 2720SOL     OW10313   7.709   5.361   6.375  0.0930  0.3953 -0.1558
 2720SOL    HW110314   7.673   5.289   6.324  0.1115  0.9857 -1.0323
 2720SOL    HW210315   7.637   5.389   6.432 -0.5011  0.8605 -1.1153
 2721SOL     OW10316   4.123   3.694   6.389  0.0267 -0.2995  0.3633
 2721SOL    HW110317   4.137   3.784   6.358  0.2531 -0.2243  0.6740
 2721SOL    HW210318   4.192   3.643   6.347 -0.8622 -0.5832 -0.8353
 2722SOL     OW10319   4.540   0.281   7.864  0.1517  0.3913  0.0473
 2722SOL    HW110320   4.552   0.208   7.925  1.0814  0.3399 -0.1762
 2722SOL    HW210321   4.453   0.315   7.884 -0.3756 -0.8918  0.0302
 2723SOL     OW10322   0.869   7.320   1.147 -0.0326  0.3060  0.2119
 2723SOL    HW110323   0.855   7.335   1.054 -0.4799  1.2156  0.4080
 2723SOL    HW210324   0.963   7.308   1.156  0.2505  1.9749 -0.1462
 2724SOL     OW10325   9.544   5.586   0.918 -0.1633 -0.0202  0.0484
 2724SOL    HW110326   9.633   5.552   0.926  0.8002  1.9509 -1.3572
 2724SOL    HW210327   9.549   5.675   0.955 -0.7781  1.1734 -2.5028
 2725SOL     OW10328   9.187   0.931   9.323 -0.2583 -0.2286  0.0025
 2725SOL    HW110329   9.096   0.959   9.316 -0.7934 -0.7800  3.1075
 2725SOL    HW210330   9.206   0.935   9.417  2.2831 -2.0271 -0.3230
 2726SOL     OW10331   8.110   4.849   5.567  1.3135  0.1328  0.1721
 2726SOL    HW110332   8.171   4.787   5.527  0.1419 -1.5933  0.9577
 2726SOL    HW210333   8.160   4.889   5.638  2.4671  1.0583 -1.1005
 2727SOL     OW10334   9.195   4.517   4.381  0.3144  0.0105  0.5024
 2727SOL    HW110335   9.225   4.499   4.470 -2.8737 -0.6270  1.5709
 2727SOL    HW210336   9.101   4.534   4.391 -0.1195  0.0085 -2.7501
 2728SOL     OW10337   1.004   4.095   8.274  0.0329  0.3777  0.6521
 2728SOL    HW110338   1.062   4.119   8.202 -0.0281 -0.9812  0.1225
 2728SOL    HW210339   0.929   4.054   8.231 -0.3898  0.2932  1.4513
 2729SOL     OW10340   7.363   8.045   4.990 -0.3158 -0.5793  0.5693
 2729SOL    HW110341   7.430   8.082   4.932 -0.2577  1.0078  1.5793
 2729SOL    HW210342   7.406   7.970   5.031  0.6337  0.0172  0.6959
 2730SOL     OW10343   3.071   6.211   5.844 -0.5542 -0.5968  0.1267
 2730SOL    HW110344   3.124   6.136   5.872 -0.5479 -1.3445 -1.7918
 2730SOL    HW210345   3.053   6.196   5.752 -0.8048  1.6338 -0.2599
 2731SOL     OW10346   9.370   7.325   2.756  0.5930 -0.4768  0.3419
 2731SOL    HW110347   9.447   7.376   2.729  1.5006 -0.4485  2.6968
 2731SOL    HW210348   9.326   7.381   2.820  0.2663 -1.6802  1.1989
 2732SOL     OW10349   4.472   1.070   4.809  0.5958  0.3019 -0.5786
 2732SOL    HW110350   4.404   1.115   4.758  0.0189 -0.4117 -0.4684
 2732SOL    HW210351   4.542   1.054   4.747  0.0902 -0.1537 -1.0455
 2733SOL     OW10352   4.428   0.608   2.250 -0.6642 -0.3030  0.5235
 2733SOL    HW110353   4.438   0.678   2.315 -1.8669 -0.3065  0.7318
 2733SOL    HW210354   4.392   0.651   2.173 -3.0548 -0.9284  1.2221
 2734SOL     OW10355   4.810   0.951   7.282 -0.1048  0.2538  0.0131
 2734SOL    HW110356   4.724   0.965   7.242  0.3502 -1.6631 -1.8611
 2734SOL    HW210357   4.867   1.016   7.241 -0.3717  0.5862  0.1719
 2735SOL     OW10358   6.052   2.088   3.269  0.2471 -0.7157  0.3031
 2735SOL    HW110359   6.094   2.014   3.314 -2.2333 -1.8577  0.8842
 2735SOL    HW210360   5.989   2.121   3.333  0.7161  1.4372 -0.2646
 2736SOL     OW10361   4.424   6.254   6.652 -0.1289 -0.1837 -0.2274
 2736SOL    HW110362   4.408   6.165   6.621  0.3164  0.1958 -1.6478
 2736SOL    HW210363   4.458   6.300   6.575  0.5217  0.9797  0.7201
 2737SOL     OW10364   5.377   9.114   7.979  0.5967  0.4909  0.2347
 2737SOL    HW110365   5.297   9.138   8.025  0.0595 -1.2957  0.3140
 2737SOL    HW210366   5.352   9.114   7.886  0.4281 -0.2403  0.2707
 2738SOL     OW10367   0.866   7.003   4.256 -0.2124  0.4963 -0.3530
 2738SOL    HW110368   0.807   7.026   4.184 -0.6580  1.6721  0.3730
 2738SOL    HW210369   0.953   7.026   4.223 -0.0607 -1.3789 -1.4830
 2739SOL     OW10370   2.742   5.772   2.377 -0.5034 -0.0068  0.0837
 2739SOL    HW110371   2.804   5.730   2.319 -1.6474 -0.7980 -0.6070
 2739SOL    HW210372   2.711   5.702   2.434 -1.1957  0.2380  0.0224
 2740SOL     OW10373   3.944   2.501   8.194 -0.4969  0.3252 -0.3856
 2740SOL    HW110374   3.909   2.545   8.116  1.3944  0.2977 -1.3083
 2740SOL    HW210375   3.989   2.424   8.160  1.5499  1.0281  0.5306
 2741SOL     OW10376   5.452   5.612   6.174 -0.7830  0.3248  0.1871
 2741SOL    HW110377   5.400   5.688   6.200 -0.0478  0.2247  2.0819
 2741SOL    HW210378   5.406   5.537   6.212 -0.5650 -0.0152 -0.2038
 2742SOL     OW10379   8.199   2.789   8.116  0.0906  0.3105  0.0767
 2742SOL    HW110380   8.254   2.712   8.128  1.5795  1.2833 -0.2324
 2742SOL    HW210381   8.138   2.787   8.190  0.5164 -0.8093  0.4160
 2743SOL     OW10382   2.893   6.516   1.407  0.5612 -0.5441 -0.1023
 2743SOL    HW110383   2.842   6.503   1.328 -1.1134  2.6843  0.2839
 2743SOL    HW210384   2.829   6.510   1.478  1.7140 -1.5808  0.9023
 2744SOL     OW10385   1.622   4.625   3.260 -0.3442 -0.4387 -0.4113
 2744SOL    HW110386   1.597   4.705   3.306  0.4786 -0.4787  0.1335
 2744SOL    HW210387   1.714   4.612   3.282  0.1024 -0.4485 -2.1138
 2745SOL     OW10388   0.110   7.524   5.000  0.8458 -0.0111  0.1874
 2745SOL    HW110389   0.043   7.583   5.034  1.0944  1.0273 -1.0728
 2745SOL    HW210390   0.125   7.554   4.910  3.6450  0.3556  0.7077
 2746SOL     OW10391   4.085   7.869   6.101 -0.3947  0.2571  0.7630
 2746SOL    HW110392   4.035   7.811   6.158 -2.1628  1.3519  0.4216
 2746SOL    HW210393   4.114   7.813   6.029 -0.0246 -0.6701  1.6042
 2747SOL     OW10394   0.233   7.270   9.493 -0.3278  0.5590 -0.7587
 2747SOL    HW110395   0.162   7.315   9.449  0.4812  1.2299 -1.4149
 2747SOL    HW210396   0.230   7.302   9.583 -2.3393 -1.2453 -0.1077
 2748SOL     OW10397   6.207   7.420   6.439  0.0234 -0.0319 -0.0403
 2748SOL    HW110398   6.279   7.443   6.498 -0.3551  0.6448  0.1678
 2748SOL    HW210399   6.250   7.388   6.360  0.5494 -1.8399  0.9151
 2749SOL     OW10400   8.462   1.671   7.121 -0.6071  0.4073 -0.1125
 2749SOL    HW110401   8.504   1.753   7.146 -0.5483  0.5859 -0.7758
 2749SOL    HW210402   8.368   1.688   7.128 -0.5971  0.5633 -0.3309
 2750SOL     OW10403   2.351   6.431   8.327  0.1074  0.5297  0.6135
 2750SOL    HW110404   2.429   6.476   8.358  1.8589 -0.3881 -2.0809
 2750SOL    HW210405   2.351   6.347   8.372  0.6719  0.5603  0.6707
 2751SOL     OW10406   5.570   7.567   8.621 -0.4663 -0.3115 -0.2226
 2751SOL    HW110407   5.594   7.649   8.579  0.8712 -0.8962 -0.6794
 2751SOL    HW210408   5.624   7.564   8.700 -1.9492  0.1407  0.8290
 2752SOL     OW10409   0.488   0.535   7.228  0.3843  0.2769 -0.0602
 2752SOL    HW110410   0.465   0.516   7.319 -2.0739  2.2282 -0.1671
 2752SOL    HW210411   0.412   0.505   7.178  1.4276 -0.1637 -1.4154
 2753SOL     OW10412   6.737   2.118   4.612 -0.0218  0.0738  0.9563
 2753SOL    HW110413   6.672   2.130   4.681 -1.1040 -1.7144  0.3143
 2753SOL    HW210414   6.687   2.126   4.531  0.9763  0.7469  0.3914
 2754SOL     OW10415   6.178   3.246   9.461 -0.5629  0.0622 -0.1000
 2754SOL    HW110416   6.243   3.310   9.432 -0.1492 -0.9874 -1.6445
 2754SOL    HW210417   6.139   3.284   9.539  0.8345  1.4217 -0.0247
 2755SOL     OW10418   8.693   6.659   0.139 -0.1539 -0.6112  0.2954
 2755SOL    HW110419   8.684   6.600   0.214 -0.0832 -0.8654  0.1052
 2755SOL    HW210420   8.781   6.644   0.106 -0.0631 -0.2460  0.3725
 2756SOL     OW10421   5.614   7.775   4.265  0.6150  0.2243  0.4464
 2756SOL    HW110422   5.539   7.828   4.241  0.3092 -0.3724  0.0784
 2756SOL    HW210423   5.644   7.735   4.184  0.5866 -0.4973  0.7802
 2757SOL     OW10424   0.169   8.759   9.515 -0.3606  0.1388  0.1576
 2757SOL    HW110425   0.169   8.759   9.420  0.3028 -2.4253  0.0823
 2757SOL    HW210426   0.151   8.850   9.539 -2.0746  0.5854 -2.3727
 2758SOL     OW10427   8.818   0.896   8.212 -0.2843  0.0995 -0.4416
 2758SOL    HW110428   8.881   0.874   8.281 -0.2690  0.0632 -0.4671
 2758SOL    HW210429   8.831   0.828   8.145  0.6803  0.9330 -1.1317
 2759SOL     OW10430   6.759   7.479   9.164 -0.2270  0.5461 -0.2143
 2759SOL    HW110431   6.745   7.395   9.120 -0.6081  1.1789 -1.3330
 2759SOL    HW210432   6.702   7.476   9.241  1.4168 -1.1125  1.0330
 2760SOL     OW10433   5.313   1.022   7.906  0.2550  0.8708 -0.4431
 2760SOL    HW110434   5.314   0.928   7.926 -0.3030  1.0476  0.4607
 2760SOL    HW210435   5.351   1.028   7.818 -2.8223 -0.5768 -2.0644
 2761SOL     OW10436   8.889   6.654   0.477 -0.9091 -0.0404  0.1029
 2761SOL    HW110437   8.879   6.726   0.540  0.1057  1.3658 -1.2503
 2761SOL    HW210438   8.801   6.618   0.468 -1.6361  1.6137  0.1910
 2762SOL     OW10439   2.653   8.704   4.980 -0.1874  0.2197  0.8848
 2762SOL    HW110440   2.666   8.629   5.038 -3.3316 -0.7871  0.4418
 2762SOL    HW210441   2.687   8.674   4.895  0.9806  0.3305  1.2851
 2763SOL     OW10442   8.383   8.569   7.811  0.1704 -0.2353 -0.3324
 2763SOL    HW110443   8.425   8.617   7.883 -0.8241  1.9653 -1.1308
 2763SOL    HW210444   8.446   8.573   7.739  0.7926 -1.6755  0.0914
 2764SOL     OW10445   8.854   8.982   2.580 -0.7194 -0.0510 -0.1578
 2764SOL    HW110446   8.759   8.984   2.593 -0.7281  1.7531 -0.2728
 2764SOL    HW210447   8.886   8.924   2.649 -1.9953 -1.8125 -0.9628
 2765SOL     OW10448   4.868   8.964   0.513  0.1669  0.6498  0.0128
 2765SOL    HW110449   4.945   9.008   0.550  1.2907 -0.7768 -0.5249
 2765SOL    HW210450   4.850   9.010   0.432  0.1081  1.3276  0.4012
 2766SOL     OW10451   7.226   6.444   4.880 -0.0522 -0.3770 -0.0553
 2766SOL    HW110452   7.257   6.531   4.903 -0.1251 -0.2585 -0.4057
 2766SOL    HW210453   7.275   6.385   4.938  1.6976 -0.2982 -1.3695
 2767SOL     OW10454   4.814   1.261   8.424 -0.3192  0.2732  0.0521
 2767SOL    HW110455   4.817   1.167   8.411 -1.2298  0.0166  1.5134
 2767SOL    HW210456   4.728   1.278   8.462 -0.7984  1.8993 -1.6070
 2768SOL     OW10457   2.841   7.699   9.309 -0.2022 -0.4065  0.0657
 2768SOL    HW110458   2.894   7.775   9.284  2.7690 -2.6651 -1.1713
 2768SOL    HW210459   2.810   7.663   9.225 -1.0881 -0.8951  0.5868
 2769SOL     OW10460   6.603   4.878   5.812  0.3227  0.2365  0.5177
 2769SOL    HW110461   6.574   4.807   5.870 -1.3149 -0.5203 -1.1485
 2769SOL    HW210462   6.655   4.834   5.745  4.2284  1.3556  2.4579
 2770SOL     OW10463   5.915   8.463   1.930 -0.8031 -0.1460  0.0470
 2770SOL    HW110464   5.974   8.454   2.005 -1.1120 -2.4150  0.0964
 2770SOL    HW210465   5.908   8.557   1.917  1.3162  0.2593  1.2244
 2771SOL     OW10466   7.570   7.511   7.850 -0.0813 -1.0025 -0.0549
 2771SOL    HW110467   7.610   7.438   7.804 -1.5768 -1.0500 -1.3594
 2771SOL    HW210468   7.583   7.491   7.943  0.4493 -2.3742 -0.4014
 2772SOL     OW10469   8.751   4.128   9.255  0.0342 -0.1039  0.5122
 2772SOL    HW110470   8.819   4.084   9.204 -1.8429 -0.9629 -1.3565
 2772SOL    HW210471   8.770   4.221   9.245  0.2297 -0.2877 -1.0269
 2773SOL     OW10472   7.902   8.926   1.797  0.4738  0.1346  0.1262
 2773SOL    HW110473   7.987   8.892   1.821  0.2241 -0.8816 -0.3900
 2773SOL    HW210474   7.841   8.855   1.817 -0.0911  0.3845 -0.6745
 2774SOL     OW10475   0.025   8.965   0.041  0.1833 -0.3485 -0.3635
 2774SOL    HW110476  -0.033   8.899   0.078  0.1722  0.4072  1.0118
 2774SOL    HW210477  -0.031   9.019  -0.015  0.1012 -1.1738 -1.1120
 2775SOL     OW10478   9.232   9.385   2.773 -0.1044  0.1466  0.3837
 2775SOL    HW110479   9.272   9.450   2.716  1.4618  0.1820  1.4691
 2775SOL    HW210480   9.294   9.312   2.773  0.5423  0.6029  2.8913
 2776SOL     OW10481   8.016   8.955   5.293 -0.3107 -0.9614 -0.0854
 2776SOL    HW110482   8.042   8.864   5.307  1.1493 -0.5349  0.0452
 2776SOL    HW210483   7.920   8.953   5.298 -0.2110 -1.9480  3.2269
 2777SOL     OW10484   5.039   1.254   8.118  0.3919  0.0778 -0.8244
 2777SOL    HW110485   5.041   1.159   8.127 -0.5044  0.0409 -0.9304
 2777SOL    HW210486   5.128   1.282   8.139  0.5710 -0.7533 -0.4430
 2778SOL     OW10487   0.880   5.775   5.780  0.4158  0.5752 -0.5335
 2778SOL    HW110488   0.901   5.753   5.871  0.0279 -0.3766 -0.6575
 2778SOL    HW210489   0.931   5.853   5.761  0.8203  0.5384  0.3764
 2779SOL     OW10490   9.430   8.704   4.577  0.2973  0.2034 -0.8783
 2779SOL    HW110491   9.379   8.632   4.614 -0.5417  1.4300  0.4366
 2779SOL    HW210492   9.471   8.666   4.500 -0.3449 -1.6073 -0.3881
 2780SOL     OW10493   4.781   1.260   5.240  0.0105 -0.2064 -0.3852
 2780SOL    HW110494   4.828   1.177   5.231  0.3345 -0.0387 -0.2415
 2780SOL    HW210495   4.718   1.259   5.168 -0.8372 -1.1330  0.3454
 2781SOL     OW10496   2.626   0.709   2.332 -1.0206  0.3588  0.0466
 2781SOL    HW110497   2.559   0.772   2.358 -0.4595  0.5501  1.1148
 2781SOL    HW210498   2.618   0.703   2.237 -2.4649  0.4522  0.1415
 2782SOL     OW10499   6.254   4.432   4.389  0.1570  0.1761  0.0908
 2782SOL    HW110500   6.336   4.388   4.414  0.4925  0.9972  0.4492
 2782SOL    HW210501   6.190   4.401   4.453  0.8184  1.6141  1.5100
 2783SOL     OW10502   2.047   1.406   0.235 -0.2870 -0.4338  0.3509
 2783SOL    HW110503   2.006   1.327   0.270 -1.0309  0.1722  0.8899
 2783SOL    HW210504   2.069   1.384   0.144 -1.0808 -1.0420  0.2965
 2784SOL     OW10505   2.506   2.407   0.933  0.0596 -0.1764  0.0853
 2784SOL    HW110506   2.578   2.415   0.871  1.3049 -0.5298  1.4363
 2784SOL    HW210507   2.528   2.468   1.004 -0.6685 -0.6900  0.7785
 2785SOL     OW10508   4.188   2.111   5.064 -0.2934 -0.4414 -0.1081
 2785SOL    HW110509   4.237   2.192   5.073 -0.0041 -0.7183  0.9817
 2785SOL    HW210510   4.255   2.044   5.050 -0.4654 -0.6257 -0.0532
 2786SOL     OW10511   8.563   8.736   4.929 -0.3530 -0.2293  0.0840
 2786SOL    HW110512   8.609   8.755   4.847  2.0243 -2.3378  0.8009
 2786SOL    HW210513   8.609   8.787   4.995  0.0340 -1.1903  0.5814
 2787SOL     OW10514   6.271   9.519   3.688  0.0076  0.4336  0.5806
 2787SOL    HW110515   6.316   9.495   3.768  1.6604  3.0012  0.5389
 2787SOL    HW210516   6.198   9.574   3.716  0.2548  0.8695  0.3945
 2788SOL     OW10517   5.123   8.061   7.693  0.8449 -0.1936 -0.5157
 2788SOL    HW110518   5.123   8.144   7.741  2.0992  0.7767 -2.1074
 2788SOL    HW210519   5.203   8.063   7.641 -0.8805 -0.7466 -3.3909
 2789SOL     OW10520   1.161   8.163   3.975  0.5341  0.4352  0.2092
 2789SOL    HW110521   1.217   8.227   4.020  0.5471 -0.8284  2.1247
 2789SOL    HW210522   1.210   8.080   3.981  0.0404  0.0101 -1.2542
 2790SOL     OW10523   6.127   9.583   2.448  0.5922 -0.0577 -0.2555
 2790SOL    HW110524   6.165   9.564   2.534 -0.7308 -1.0237  0.1352
 2790SOL    HW210525   6.168   9.666   2.422 -0.1427  1.0884  2.0048
 2791SOL     OW10526   2.394   8.605   6.952 -0.0003 -0.5204  0.3620
 2791SOL    HW110527   2.310   8.629   6.991 -0.6032 -1.3419 -0.4074
 2791SOL    HW210528   2.458   8.626   7.020 -0.8741 -0.4390  1.1898
 2792SOL     OW10529   4.956   1.123   1.435  0.0446 -0.2916  0.0842
 2792SOL    HW110530   5.047   1.103   1.455 -0.2572 -2.3623 -0.3634
 2792SOL    HW210531   4.906   1.075   1.501 -0.7437  1.4637  0.8216
 2793SOL     OW10532   3.282   2.757   2.702 -0.1586  0.5078 -0.3960
 2793SOL    HW110533   3.283   2.850   2.679 -0.6269  0.6523  0.1527
 2793SOL    HW210534   3.228   2.717   2.634 -1.6105  0.9495  0.4571
 2794SOL     OW10535   5.765   1.419   7.824 -0.2199  0.0137 -0.4759
 2794SOL    HW110536   5.819   1.495   7.844 -1.4490  0.9350 -0.4956
 2794SOL    HW210537   5.814   1.344   7.857  0.5360  0.9206  0.5003
 2795SOL     OW10538   7.979   7.119   9.204  0.4923 -0.0887  0.6245
 2795SOL    HW110539   7.919   7.049   9.179  1.3019 -0.4964 -0.2579
 2795SOL    HW210540   7.925   7.181   9.253 -0.7044 -0.3038 -0.3730
 2796SOL     OW10541   7.813   5.807   6.277 -0.3589  1.0073  0.0420
 2796SOL    HW110542   7.779   5.895   6.260 -0.3581  1.3238  1.5290
 2796SOL    HW210543   7.761   5.774   6.350 -1.4403 -0.9030 -1.4794
 2797SOL     OW10544   4.229   7.254   5.383  0.3718  0.0018  0.0249
 2797SOL    HW110545   4.240   7.348   5.366  0.6441  0.1078  0.7594
 2797SOL    HW210546   4.134   7.240   5.377  0.4047  0.1441 -0.9724
 2798SOL     OW10547   1.070   8.630   4.712 -0.5905  0.3610  0.3336
 2798SOL    HW110548   1.120   8.675   4.645 -0.7529 -2.2585 -1.6953
 2798SOL    HW210549   1.109   8.659   4.795  1.2587  1.8008 -0.9641
 2799SOL     OW10550   0.981   3.031   0.021 -0.2150 -0.2694 -0.0125
 2799SOL    HW110551   0.982   2.937   0.034 -0.3411 -0.1349  1.0386
 2799SOL    HW210552   1.072   3.058   0.033 -0.2529 -0.2025  0.1265
 2800SOL     OW10553   8.944   4.660   4.122  0.9796 -0.3238 -0.1299
 2800SOL    HW110554   8.946   4.749   4.087 -0.1774 -0.0437  0.4854
 2800SOL    HW210555   8.908   4.607   4.051 -0.5540  0.1033  0.2873
 2801SOL     OW10556   4.346   3.559   4.612 -0.0912  0.0172 -0.6699
 2801SOL    HW110557   4.393   3.618   4.552  0.0589 -0.3913 -0.9599
 2801SOL    HW210558   4.359   3.597   4.699  0.7030 -0.0419 -0.7599
 2802SOL     OW10559   0.942   8.098   5.337 -0.4978  0.1906  0.2140
 2802SOL    HW110560   0.872   8.071   5.396 -0.0905  0.3323  0.7669
 2802SOL    HW210561   0.962   8.020   5.286 -1.0342  0.1410  0.0765
 2803SOL     OW10562   6.897   9.286   8.500  0.7447 -0.5943 -0.1677
 2803SOL    HW110563   6.895   9.276   8.595 -2.8327  0.2761  0.0234
 2803SOL    HW210564   6.939   9.371   8.485 -0.9210  0.4652  0.9001
 2804SOL     OW10565   2.552   2.576   8.461 -0.0948  0.3536  0.3911
 2804SOL    HW110566   2.595   2.528   8.390 -0.4246  0.8430 -0.1512
 2804SOL    HW210567   2.494   2.512   8.502  0.3902 -0.0388  0.4759
 2805SOL     OW10568   0.505   0.433   4.320 -0.6970  0.3155 -0.0832
 2805SOL    HW110569   0.460   0.377   4.384  0.9517 -1.5665 -0.4895
 2805SOL    HW210570   0.486   0.393   4.235  0.9112  0.0154 -0.3386
 2806SOL     OW10571   0.361   1.136   9.268 -0.1165 -0.3860 -0.4998
 2806SOL    HW110572   0.416   1.090   9.205 -0.0753 -0.3950 -0.4579
 2806SOL    HW210573   0.383   1.097   9.352  1.0811  0.7735 -0.2404
 2807SOL     OW10574   8.912   9.560   7.205 -0.1985 -0.3729  0.1065
 2807SOL    HW110575   8.920   9.475   7.248 -2.4563 -0.2557  0.8981
 2807SOL    HW210576   8.890   9.540   7.114  2.0738 -0.5943 -0.4626
 2808SOL     OW10577   7.075   5.743   2.186 -0.4382  0.4468  0.1627
 2808SOL    HW110578   7.021   5.678   2.231  0.2537  0.0280  0.4146
 2808SOL    HW210579   7.163   5.728   2.220  0.6831 -1.6349 -3.1738
 2809SOL     OW10580   2.598   5.656   2.018  0.1497  0.0208 -0.5070
 2809SOL    HW110581   2.619   5.562   2.010 -0.2473 -0.2537  1.2868
 2809SOL    HW210582   2.654   5.686   2.090 -2.0819  0.3709  1.1742
 2810SOL     OW10583   3.486   8.909   1.835  0.0663 -0.5670  0.5289
 2810SOL    HW110584   3.541   8.969   1.784 -0.3314 -1.6137 -1.2133
 2810SOL    HW210585   3.481   8.949   1.922  0.7515  1.3153 -0.2502
 2811SOL     OW10586   4.567   3.778   7.276  0.0434 -0.5299 -0.6715
 2811SOL    HW110587   4.478   3.743   7.266 -0.3642 -0.0636  1.0286
 2811SOL    HW210588   4.572   3.848   7.211 -0.0862 -1.8744 -2.1958
 2812SOL     OW10589   8.114   5.987   6.475 -0.0812 -0.4703  0.2158
 2812SOL    HW110590   8.188   5.961   6.530  0.6146 -1.0397 -0.9534
 2812SOL    HW210591   8.037   5.968   6.528  0.5823  1.7953  2.1969
 2813SOL     OW10592   2.761   4.470   7.283  0.6834 -0.0529  0.1204
 2813SOL    HW110593   2.819   4.515   7.345  0.2634 -1.1554  1.3729
 2813SOL    HW210594   2.767   4.378   7.308 -0.9060 -0.2993 -0.3012
 2814SOL     OW10595   7.378   4.548   8.427 -0.5977 -0.3094 -0.3177
 2814SOL    HW110596   7.390   4.538   8.332 -1.8557  0.4136 -0.5674
 2814SOL    HW210597   7.393   4.460   8.462  1.6354 -0.2521 -0.9557
 2815SOL     OW10598   2.665   7.684   9.523  0.2779 -0.5796  0.4076
 2815SOL    HW110599   2.681   7.764   9.574 -1.5267 -0.6678  1.1875
 2815SOL    HW210600   2.691   7.706   9.434 -0.2227  0.9136  0.6057
 2816SOL     OW10601   0.043   5.378   5.901 -0.1409  0.2925 -0.3085
 2816SOL    HW110602   0.125   5.347   5.939 -0.8296  0.1454  1.1507
 2816SOL    HW210603   0.049   5.473   5.906  0.7160  0.3633 -2.0009
 2817SOL     OW10604   2.422   9.323   4.668  0.1681  0.3156 -0.2320
 2817SOL    HW110605   2.422   9.403   4.719 -1.6939  1.7776 -2.3665
 2817SOL    HW210606   2.349   9.272   4.703 -0.9384  1.1980 -1.1756
 2818SOL     OW10607   0.379   2.292   9.054 -0.1039  0.6056  0.0038
 2818SOL    HW110608   0.411   2.350   8.986 -1.4007 -0.0358 -1.2156
 2818SOL    HW210609   0.293   2.262   9.022 -0.7414  0.2470  1.8913
 2819SOL     OW10610   7.392   6.365   9.277  0.3869  0.3049 -1.0121
 2819SOL    HW110611   7.331   6.433   9.251  0.8649  1.3033  0.3614
 2819SOL    HW210612   7.477   6.409   9.282  1.3290 -1.1000 -3.1202
 2820SOL     OW10613   6.508   4.818   6.885 -0.3136  0.1248 -0.1811
 2820SOL    HW110614   6.427   4.859   6.853 -0.3152  0.1874 -0.0979
 2820SOL    HW210615   6.479   4.750   6.945 -0.2890  0.5656  0.3354
 2821SOL     OW10616   8.179   9.425   5.485  0.1201 -0.5967  0.2019
 2821SOL    HW110617   8.164   9.445   5.392  1.0618  3.2977  0.7467
 2821SOL    HW210618   8.092   9.400   5.518 -1.4289  2.9285 -0.7376
 2822SOL     OW10619   3.647   4.144   1.261  0.6102 -0.4683  0.2413
 2822SOL    HW110620   3.668   4.102   1.177  0.7796  1.8848 -0.9850
 2822SOL    HW210621   3.570   4.197   1.243  0.9088  0.4269  1.4401
 2823SOL     OW10622   7.349   4.303   3.331 -0.4727  0.1617 -0.5059
 2823SOL    HW110623   7.432   4.258   3.314  1.1574  2.7859 -0.2452
 2823SOL    HW210624   7.295   4.239   3.376  1.7745 -1.4011  0.1471
 2824SOL     OW10625   6.726   7.372   2.164  0.4869  0.1167  0.4734
 2824SOL    HW110626   6.778   7.452   2.164  3.2986 -1.5578  1.0601
 2824SOL    HW210627   6.650   7.392   2.219  0.9063  2.4563  0.2950
 2825SOL     OW10628   0.915   7.334   6.403 -0.2345 -0.2152  0.1536
 2825SOL    HW110629   0.938   7.366   6.316  3.4933 -0.1043  1.0362
 2825SOL    HW210630   0.902   7.240   6.392  0.7442 -0.2857 -0.4425
 2826SOL     OW10631   7.329   1.407   3.471  0.0047 -0.2067  0.1253
 2826SOL    HW110632   7.308   1.482   3.415 -1.6809 -0.8959 -0.2302
 2826SOL    HW210633   7.323   1.331   3.413  0.9995 -0.7019  0.6398
 2827SOL     OW10634   5.298   2.523   0.645  0.3246  0.3967  0.4486
 2827SOL    HW110635   5.275   2.571   0.566 -0.3680 -0.7008 -0.0286
 2827SOL    HW210636   5.215   2.494   0.682  0.7289 -0.4952  0.6907
 2828SOL     OW10637   0.592   8.640   9.178 -0.3007  0.3516 -0.0526
 2828SOL    HW110638   0.655   8.672   9.113  1.0181 -1.1429  0.4239
 2828SOL    HW210639   0.571   8.717   9.230 -0.0060  1.1908 -1.1213
 2829SOL     OW10640   5.616   3.363   1.726  0.1781  0.1926  0.3587
 2829SOL    HW110641   5.549   3.431   1.730 -0.0705  0.0283 -0.6993
 2829SOL    HW210642   5.699   3.410   1.734 -0.0009  0.5899 -0.1183
 2830SOL     OW10643   5.024   4.650   0.790  0.1759 -0.2129  0.4069
 2830SOL    HW110644   4.934   4.635   0.761  0.1066  0.1104  0.4530
 2830SOL    HW210645   5.040   4.580   0.854 -0.6775  0.7929  1.7866
 2831SOL     OW10646   3.528   8.848   6.983  0.1764 -0.0675 -0.6959
 2831SOL    HW110647   3.530   8.794   6.904 -0.6881  0.2864 -0.9647
 2831SOL    HW210648   3.448   8.820   7.029  0.6133 -0.1962  0.0005
 2832SOL     OW10649   8.549   1.730   4.117 -0.0160  0.0415  0.1895
 2832SOL    HW110650   8.559   1.777   4.034  0.8429 -1.8565 -0.8429
 2832SOL    HW210651   8.622   1.760   4.171  1.9601 -1.7341 -1.3376
 2833SOL     OW10652   9.435   7.049   9.544  0.3148  0.1774  0.4556
 2833SOL    HW110653   9.442   6.965   9.498 -0.6758  0.6426 -0.5788
 2833SOL    HW210654   9.436   7.024   9.637 -0.9326 -1.0955  0.1739
 2834SOL     OW10655   4.482   8.472   0.503  0.2173  0.7817 -0.3120
 2834SOL    HW110656   4.534   8.528   0.561  0.5195  0.7186 -0.5175
 2834SOL    HW210657   4.494   8.511   0.416  1.4393 -0.3138 -0.6601
 2835SOL     OW10658   0.437   0.199   1.821  0.0988  0.3238  0.2616
 2835SOL    HW110659   0.502   0.260   1.855  0.9386  0.5285 -1.6041
 2835SOL    HW210660   0.456   0.192   1.728 -2.5354  0.3606 -0.3627
 2836SOL     OW10661   0.686   5.725   2.202 -0.3203  0.5495 -0.0304
 2836SOL    HW110662   0.743   5.772   2.263  0.5349  1.6432 -1.5891
 2836SOL    HW210663   0.668   5.789   2.133  1.6157 -1.5549 -2.7297
 2837SOL     OW10664   1.426   4.860   0.352  0.2968 -0.0954  0.1263
 2837SOL    HW110665   1.521   4.874   0.346  0.3794 -0.6814 -0.0022
 2837SOL    HW210666   1.390   4.907   0.277  0.6401 -1.1839 -0.7488
 2838SOL     OW10667   5.985   4.282   8.433 -0.0863  0.0309 -0.0592
 2838SOL    HW110668   6.061   4.312   8.482  0.4920 -0.1487 -0.8201
 2838SOL    HW210669   6.018   4.266   8.345 -0.9678 -0.2352 -0.3575
 2839SOL     OW10670   7.528   3.405   2.238  0.1223 -0.3740  0.4214
 2839SOL    HW110671   7.440   3.421   2.205  1.1092  0.8545 -1.8817
 2839SOL    HW210672   7.516   3.347   2.313 -2.4689 -1.9231 -1.0627
 2840SOL     OW10673   4.990   4.706   6.485  0.1138  0.1269 -0.0772
 2840SOL    HW110674   4.909   4.656   6.498  0.8703 -1.4847 -1.1789
 2840SOL    HW210675   5.041   4.690   6.564  0.8447 -1.9545 -0.8814
 2841SOL     OW10676   0.452   8.562   7.007 -0.6682  0.6187  0.0791
 2841SOL    HW110677   0.472   8.479   7.050  0.2322  0.5877 -0.3693
 2841SOL    HW210678   0.510   8.625   7.049 -1.8448  1.1783  0.9049
 2842SOL     OW10679   2.451   6.966   6.375 -0.6716 -0.5159  0.6174
 2842SOL    HW110680   2.395   6.943   6.301 -3.0474 -0.1903  2.2185
 2842SOL    HW210681   2.482   7.055   6.355 -0.9939 -0.5649 -0.1356
 2843SOL     OW10682   1.505   5.590   6.288 -0.6017  0.2167 -0.0002
 2843SOL    HW110683   1.426   5.540   6.267 -0.1312 -0.3482 -0.4369
 2843SOL    HW210684   1.481   5.639   6.367 -1.1001 -0.6402  0.3992
 2844SOL     OW10685   1.388   8.798   5.254 -0.9176 -0.1905 -0.4234
 2844SOL    HW110686   1.471   8.800   5.301 -2.4476 -0.5863  2.6138
 2844SOL    HW210687   1.411   8.800   5.162  2.4293 -0.5759  0.2984
 2845SOL     OW10688   4.681   0.707   8.585 -0.0217  0.0281 -0.2952
 2845SOL    HW110689   4.615   0.656   8.538  1.0139 -0.0772 -1.6821
 2845SOL    HW210690   4.762   0.657   8.575  0.3869  0.3991  0.9683
 2846SOL     OW10691   5.341   7.412   3.565 -0.2132 -0.1092 -0.3988
 2846SOL    HW110692   5.301   7.487   3.608 -1.1197  0.1032 -1.5781
 2846SOL    HW210693   5.412   7.449   3.513  1.0802 -0.3996  1.0756
 2847SOL     OW10694   5.005   0.768   6.480 -0.0729  0.2484  0.4137
 2847SOL    HW110695   4.912   0.759   6.457  0.3782  0.3818 -1.6334
 2847SOL    HW210696   5.040   0.827   6.414  1.3617  0.7146  1.5444
 2848SOL     OW10697   8.889   1.825   5.686 -0.4186 -0.0524  0.6950
 2848SOL    HW110698   8.966   1.870   5.722 -1.3922  1.7410  0.6715
 2848SOL    HW210699   8.907   1.732   5.699  2.3002  0.2151 -0.4356
 2849SOL     OW10700   8.235   1.592   3.861 -0.2148 -0.3478  0.1384
 2849SOL    HW110701   8.264   1.680   3.886 -0.8913 -0.0460 -0.1245
 2849SOL    HW210702   8.315   1.549   3.830  0.4224 -0.3377  1.6420
 2850SOL     OW10703   8.381   0.647   4.491 -0.3882 -0.1722 -0.2193
 2850SOL    HW110704   8.333   0.704   4.551 -0.5711  0.3473 -0.8497
 2850SOL    HW210705   8.446   0.704   4.451  0.8197 -0.8877  0.6822
 2851SOL     OW10706   3.393   1.671   7.358  0.1300  0.8162 -0.0118
 2851SOL    HW110707   3.465   1.610   7.373 -1.2032 -0.6209  0.7450
 2851SOL    HW210708   3.396   1.688   7.264  2.0144  1.5364  0.1365
 2852SOL     OW10709   7.967   9.146   5.026 -0.2145 -0.2958 -0.4439
 2852SOL    HW110710   7.954   9.077   5.091  0.0276 -0.9669 -1.0918
 2852SOL    HW210711   7.879   9.178   5.006 -0.1688  1.3430  1.6964
 2853SOL     OW10712   9.467   8.088   6.815 -0.1510  0.3093 -0.0842
 2853SOL    HW110713   9.414   8.167   6.806  0.6591  0.8732 -0.0445
 2853SOL    HW210714   9.548   8.118   6.858 -0.0246 -0.6212  0.3558
 2854SOL     OW10715   2.983   2.421   2.661  0.0528  0.4634  0.1762
 2854SOL    HW110716   3.007   2.487   2.596  1.1745 -0.5397 -0.4648
 2854SOL    HW210717   2.997   2.338   2.617  0.8734 -0.2434  1.6983
 2855SOL     OW10718   7.673   2.251   3.451  0.0962  0.0386  0.0775
 2855SOL    HW110719   7.768   2.249   3.467  0.3942  1.7315 -1.1542
 2855SOL    HW210720   7.640   2.315   3.515 -0.1785 -0.3839  0.3564
 2856SOL     OW10721   9.047   1.018   6.184  0.2244  0.0229 -0.4891
 2856SOL    HW110722   9.123   0.990   6.133  1.4430  0.8022  0.8208
 2856SOL    HW210723   9.068   1.107   6.211 -1.2763  0.3371 -0.2628
 2857SOL     OW10724   4.611   5.733   6.325 -0.2231 -0.7831  0.2964
 2857SOL    HW110725   4.702   5.752   6.303 -0.4394  0.3504  0.3188
 2857SOL    HW210726   4.583   5.669   6.260  0.1737 -0.0498 -0.6202
 2858SOL     OW10727   1.099   3.450   6.213  0.6644  0.3403 -0.3898
 2858SOL    HW110728   1.106   3.502   6.134 -1.2386  0.3345 -0.6013
 2858SOL    HW210729   1.179   3.397   6.214  0.7828  0.4268 -2.2387
 2859SOL     OW10730   6.949   6.038   7.418 -0.3130  0.3713 -0.0837
 2859SOL    HW110731   6.963   6.015   7.326 -1.1955  0.7927 -0.3307
 2859SOL    HW210732   6.974   6.131   7.422 -0.6296  0.4508  0.0221
 2860SOL     OW10733   3.962   3.219   2.157 -0.7830  0.2440 -0.3755
 2860SOL    HW110734   3.936   3.222   2.065  0.8625  2.0648 -0.8547
 2860SOL    HW210735   3.980   3.310   2.180  0.9098 -0.3989  1.1163
 2861SOL     OW10736   8.947   7.098   2.311  0.0419  0.6944 -0.2341
 2861SOL    HW110737   8.951   7.191   2.333  1.5567  0.7239 -0.5585
 2861SOL    HW210738   8.854   7.082   2.291 -0.6966  1.5469  2.1803
 2862SOL     OW10739   4.721   0.282   9.479  0.0862  0.5068  0.1523
 2862SOL    HW110740   4.728   0.374   9.505  0.0415  0.3048  0.8930
 2862SOL    HW210741   4.781   0.236   9.538 -0.5981 -0.0588  0.4126
 2863SOL     OW10742   8.195   7.241   1.981  0.0044 -0.5169 -0.0402
 2863SOL    HW110743   8.243   7.287   1.912  1.0517 -0.9180  0.4019
 2863SOL    HW210744   8.177   7.309   2.046  1.9872 -0.7867  0.8458
 2864SOL     OW10745   8.655   9.350   7.092  0.1881  0.0010  0.0116
 2864SOL    HW110746   8.668   9.255   7.090 -1.4800 -0.2516 -1.4641
 2864SOL    HW210747   8.694   9.381   7.010 -0.3834  0.3990 -0.1145
 2865SOL     OW10748   0.739   8.194   0.988  0.1046  0.2879 -0.5115
 2865SOL    HW110749   0.806   8.182   0.920  1.7849  1.7101  0.8003
 2865SOL    HW210750   0.751   8.120   1.047 -2.1142 -1.5971 -2.2194
 2866SOL     OW10751   7.996   9.136   0.419  0.0227  0.4974 -0.5599
 2866SOL    HW110752   8.079   9.095   0.394 -0.6367 -1.1069 -0.2362
 2866SOL    HW210753   8.019   9.193   0.493  0.5885 -1.2041  0.6309
 2867SOL     OW10754   9.065   2.744   9.103  0.4321  0.4861 -0.0432
 2867SOL    HW110755   9.079   2.649   9.102  1.7559  0.6515 -1.2107
 2867SOL    HW210756   9.142   2.779   9.148  0.5602  1.0676 -0.6985
 2868SOL     OW10757   6.856   3.907   0.179  0.6897  0.0077  0.1627
 2868SOL    HW110758   6.876   4.001   0.173  0.7643 -0.0176  0.0056
 2868SOL    HW210759   6.785   3.894   0.117  0.4578  0.0199  0.4229
 2869SOL     OW10760   0.359   3.982   0.497 -0.2784  0.3520  0.3570
 2869SOL    HW110761   0.376   3.954   0.407 -2.6309  2.0232 -0.7004
 2869SOL    HW210762   0.387   4.073   0.500  1.5587 -0.1952  1.9494
 2870SOL     OW10763   8.911   8.152   2.882 -0.2414 -0.0730 -1.0809
 2870SOL    HW110764   8.906   8.165   2.977  0.2362  2.7298 -1.3430
 2870SOL    HW210765   8.997   8.114   2.867  0.8986  2.0671 -0.5004
 2871SOL     OW10766   3.512   5.839   3.991  0.5360  0.5296 -0.0322
 2871SOL    HW110767   3.445   5.793   3.940 -2.0227  0.9791  2.6507
 2871SOL    HW210768   3.552   5.770   4.044  2.7377  0.1683 -2.0160
 2872SOL     OW10769   5.198   6.697   7.272  0.6210 -1.0760  0.2115
 2872SOL    HW110770   5.120   6.747   7.245  1.4979  0.1047 -0.2140
 2872SOL    HW210771   5.189   6.613   7.227 -0.9864 -1.4180  1.0859
 2873SOL     OW10772   6.119   1.684   4.894 -0.1416  0.3276 -0.1007
 2873SOL    HW110773   6.043   1.642   4.854  0.6819 -0.4957 -0.8305
 2873SOL    HW210774   6.083   1.730   4.970 -1.6833  1.5955 -1.5118
 2874SOL     OW10775   0.858   6.694   2.898  0.0705 -0.4969 -0.0440
 2874SOL    HW110776   0.804   6.651   2.832  1.2056  0.8554 -1.9305
 2874SOL    HW210777   0.948   6.685   2.866  0.5686  0.9985  0.8074
 2875SOL     OW10778   5.909   1.054   1.556 -0.0613 -0.1140 -0.7182
 2875SOL    HW110779   5.961   1.054   1.476  1.4566  1.9274  0.1882
 2875SOL    HW210780   5.901   1.146   1.581 -1.4603 -0.6023  0.8813
 2876SOL     OW10781   9.021   4.196   5.633 -0.0555 -0.7246 -0.8939
 2876SOL    HW110782   9.005   4.288   5.614  1.0704 -0.2934  0.0655
 2876SOL    HW210783   8.971   4.148   5.567 -0.4696  0.5727 -1.5548
 2877SOL     OW10784   1.563   8.388   0.139  0.4538 -0.1494  0.1923
 2877SOL    HW110785   1.558   8.482   0.125 -1.3328 -0.1008  0.9669
 2877SOL    HW210786   1.611   8.379   0.222  0.7691  0.0595  0.0355
 2878SOL     OW10787   1.262   8.134   4.728 -0.0953  0.6362  0.2363
 2878SOL    HW110788   1.346   8.116   4.769  0.5607 -0.8314 -1.6342
 2878SOL    HW210789   1.272   8.221   4.688  0.4854  0.5115  0.1103
 2879SOL     OW10790   6.898   1.853   1.665 -0.0130  0.0095 -0.0878
 2879SOL    HW110791   6.833   1.910   1.706  0.1038  0.3956 -0.4277
 2879SOL    HW210792   6.869   1.846   1.574 -0.5934 -1.2979  0.1740
 2880SOL     OW10793   5.844   9.396   4.514  0.4798 -0.5141 -0.1312
 2880SOL    HW110794   5.894   9.331   4.563  1.1577  1.4066  1.8702
 2880SOL    HW210795   5.907   9.465   4.494 -0.4582  0.0637 -1.2325
 2881SOL     OW10796   1.325   0.248   2.618  0.1535  0.5404 -0.0231
 2881SOL    HW110797   1.238   0.260   2.657 -0.6541  1.2634 -1.9194
 2881SOL    HW210798   1.338   0.154   2.616 -1.5776  0.2876 -1.6940
 2882SOL     OW10799   8.009   0.016   6.187  0.3107 -0.1412  0.1906
 2882SOL    HW110800   8.047  -0.043   6.252 -0.4102 -0.1762  0.5904
 2882SOL    HW210801   8.070   0.013   6.113  0.7014 -0.7504  0.5313
 2883SOL     OW10802   0.138   9.401   7.667  0.1589  0.2003 -0.5884
 2883SOL    HW110803   0.082   9.344   7.719  0.5722 -1.4706 -1.8999
 2883SOL    HW210804   0.083   9.477   7.646 -1.5158 -1.2185 -1.5291
 2884SOL     OW10805   8.083   1.755   5.288 -0.2047 -0.6575 -0.1105
 2884SOL    HW110806   8.058   1.662   5.288 -0.4430 -0.5956  0.3151
 2884SOL    HW210807   8.179   1.754   5.283 -0.2016 -0.9278  0.0025
 2885SOL     OW10808   9.150   7.315   0.727  0.4476 -0.5919 -0.0718
 2885SOL    HW110809   9.099   7.316   0.808  1.1213 -2.2143  0.4316
 2885SOL    HW210810   9.117   7.388   0.676 -0.3056  0.1999  1.4880
 2886SOL     OW10811   5.132   8.438   6.952 -1.0217  0.3182  0.2049
 2886SOL    HW110812   5.059   8.473   6.901 -0.8972 -2.0184 -1.7455
 2886SOL    HW210813   5.093   8.374   7.010 -0.8277  1.1687  1.3198
 2887SOL     OW10814   9.502   2.427   9.077  0.0454 -0.1456  0.5252
 2887SOL    HW110815   9.552   2.408   8.998  0.7197 -2.5621  1.4426
 2887SOL    HW210816   9.463   2.513   9.061  0.6914 -0.2725 -2.1317
 2888SOL     OW10817   9.309   3.613   0.640  0.0964 -0.2654  0.2852
 2888SOL    HW110818   9.350   3.677   0.581  1.2118 -0.1135  1.1790
 2888SOL    HW210819   9.215   3.631   0.633  0.3827  1.6189  0.6355
 2889SOL     OW10820   1.092   2.966   9.164  0.2423  0.4588 -0.4358
 2889SOL    HW110821   1.179   2.961   9.124  0.4883  0.1356  0.1258
 2889SOL    HW210822   1.043   3.025   9.108  0.8836  0.7882 -0.6562
 2890SOL     OW10823   6.759   7.066   0.343 -0.5003  0.5897  0.2343
 2890SOL    HW110824   6.692   6.998   0.348  0.0554 -0.0015 -0.0834
 2890SOL    HW210825   6.781   7.085   0.434  0.7016 -1.0772  0.3543
 2891SOL     OW10826   5.437   7.341   3.306  0.2857 -0.4663 -0.2762
 2891SOL    HW110827   5.458   7.297   3.389  0.0719  0.8544  0.5075
 2891SOL    HW210828   5.344   7.323   3.292  0.4185 -1.0410 -0.4633
 2892SOL     OW10829   0.901   8.943   4.521  0.5701 -0.1932  0.9228
 2892SOL    HW110830   0.869   9.026   4.486  0.5720 -0.4398  0.3290
 2892SOL    HW210831   0.996   8.947   4.511  0.6363  0.0477  1.6005
 2893SOL     OW10832   9.054   4.165   4.571  0.3311 -0.0973 -0.1268
 2893SOL    HW110833   9.086   4.219   4.643  2.9040 -0.6770 -0.7183
 2893SOL    HW210834   9.050   4.076   4.608  1.4319 -0.3565 -0.5859
 2894SOL     OW10835   2.593   4.875   8.745 -0.2278 -0.0592 -0.4020
 2894SOL    HW110836   2.647   4.798   8.726  0.8878 -0.1123  2.3977
 2894SOL    HW210837   2.642   4.948   8.710  0.2689 -0.3578 -0.3378
 2895SOL     OW10838   8.510   7.850   9.591 -0.8138 -0.1829 -0.0422
 2895SOL    HW110839   8.583   7.788   9.584 -2.2078 -1.7905 -1.1829
 2895SOL    HW210840   8.509   7.896   9.508 -0.7335  0.2652  0.2043
 2896SOL     OW10841   0.207   1.046   4.081 -0.3135  0.4724 -0.0776
 2896SOL    HW110842   0.241   1.127   4.118  0.3888 -0.0484  0.4315
 2896SOL    HW210843   0.171   1.072   3.996  2.7152  0.8442 -1.3852
 2897SOL     OW10844   6.441   5.159   1.289 -0.0720  0.0531  0.7554
 2897SOL    HW110845   6.350   5.185   1.273 -1.0085 -2.9723  0.6895
 2897SOL    HW210846   6.444   5.137   1.382  0.8688  0.9412  0.9551
 2898SOL     OW10847   6.545   3.903   0.668  0.2015 -0.1188 -0.3773
 2898SOL    HW110848   6.617   3.967   0.673  2.3773 -2.0203 -3.4706
 2898SOL    HW210849   6.525   3.883   0.760  3.0278  1.1824  0.6647
 2899SOL     OW10850   5.315   0.103   6.396 -0.2557 -0.1316 -0.8258
 2899SOL    HW110851   5.389   0.108   6.335 -0.8493  0.6254 -1.5169
 2899SOL    HW210852   5.257   0.175   6.369 -0.4611  0.3193  0.7559
 2900SOL     OW10853   0.965   2.893   7.920  0.3335 -0.3981 -0.0689
 2900SOL    HW110854   0.906   2.966   7.938  0.6088  0.6704 -2.9337
 2900SOL    HW210855   0.935   2.822   7.978 -1.7558  1.0639  0.7458
 2901SOL     OW10856   3.775   4.378   9.485 -0.9316 -0.1149  0.1481
 2901SOL    HW110857   3.739   4.401   9.400 -1.2142  0.8370  0.5185
 2901SOL    HW210858   3.837   4.307   9.466  0.8073  1.6242 -1.1968
 2902SOL     OW10859   4.554   0.132   6.704  0.1451 -0.2324 -0.2417
 2902SOL    HW110860   4.615   0.130   6.777 -0.5707 -1.6757  0.3592
 2902SOL    HW210861   4.530   0.040   6.690 -1.0667  0.1879 -1.1508
 2903SOL     OW10862   5.984   3.692   3.392 -0.3920 -0.0410  0.7477
 2903SOL    HW110863   6.046   3.755   3.430 -0.2547 -1.2654  2.7021
 2903SOL    HW210864   6.038   3.639   3.333 -0.2080  0.7645  0.1849
 2904SOL     OW10865   1.128   1.533   1.954 -0.0673  0.1549  0.2909
 2904SOL    HW110866   1.131   1.472   2.028 -0.6688  0.0794  0.2544
 2904SOL    HW210867   1.095   1.481   1.881  4.0617 -0.8546 -1.1030
 2905SOL     OW10868   3.062   1.445   0.845 -0.1282  0.3086  0.7160
 2905SOL    HW110869   3.050   1.420   0.753  1.0045 -1.3399  0.9738
 2905SOL    HW210870   2.980   1.421   0.887 -0.2269 -0.0235  0.3430
 2906SOL     OW10871   7.284   9.220   3.524  0.1938  0.0342  0.0588
 2906SOL    HW110872   7.335   9.161   3.469  1.5645  1.5356 -0.3631
 2906SOL    HW210873   7.347   9.252   3.589 -0.6836  0.5432  0.6857
 2907SOL     OW10874   0.322   4.558   6.429  0.0485  0.0617 -0.1796
 2907SOL    HW110875   0.228   4.561   6.412  0.2269 -0.3373 -1.4062
 2907SOL    HW210876   0.334   4.609   6.508 -1.3162 -0.6881  0.5540
 2908SOL     OW10877   4.719   1.958   2.911  0.1177 -0.4422  0.5368
 2908SOL    HW110878   4.735   1.864   2.916  0.1804 -0.4419  0.3588
 2908SOL    HW210879   4.627   1.968   2.935 -0.6471 -0.8193 -1.8788
 2909SOL     OW10880   9.225   8.976   4.081 -0.2921 -0.1711 -0.2232
 2909SOL    HW110881   9.233   9.044   4.148  1.7099  1.5914 -2.0703
 2909SOL    HW210882   9.197   8.898   4.129 -1.5062  1.6160  2.1970
 2910SOL     OW10883   8.566   6.870   9.202 -0.1989  0.3994  0.1837
 2910SOL    HW110884   8.520   6.802   9.152  1.4534 -0.8206  0.2521
 2910SOL    HW210885   8.516   6.878   9.284 -0.4863 -0.6419  0.1202
 2911SOL     OW10886   9.479   6.443   2.949 -0.7688 -0.6763 -0.1187
 2911SOL    HW110887   9.500   6.477   2.862 -0.6656 -3.6136 -1.3414
 2911SOL    HW210888   9.548   6.477   3.006 -1.1689  1.7810 -0.9971
 2912SOL     OW10889   2.566   1.485   3.776  0.3203 -0.4688 -0.2796
 2912SOL    HW110890   2.503   1.471   3.847  0.2781  1.7031  0.1704
 2912SOL    HW210891   2.592   1.577   3.784  3.5361 -1.2517 -0.4934
 2913SOL     OW10892   4.485   3.814   3.994 -0.3636  0.2567  0.1040
 2913SOL    HW110893   4.436   3.896   4.001 -1.1456  0.0365 -2.0639
 2913SOL    HW210894   4.463   3.766   4.074 -0.8534  1.6330  0.8304
 2914SOL     OW10895   8.196   3.361   6.027  0.4333 -0.2121 -0.7390
 2914SOL    HW110896   8.277   3.402   6.058 -0.4490  2.5327 -1.7717
 2914SOL    HW210897   8.194   3.276   6.070  2.1932  0.9971  1.9652
 2915SOL     OW10898   7.806   3.384   6.817  0.2915  0.4325  0.4011
 2915SOL    HW110899   7.861   3.307   6.828 -0.5000 -0.1943  0.0227
 2915SOL    HW210900   7.868   3.458   6.818  1.3032 -0.3279 -1.4098
 2916SOL     OW10901   2.031   2.743   5.487  0.2096 -0.1923 -0.4589
 2916SOL    HW110902   2.021   2.729   5.393 -1.4792 -1.9374 -0.0701
 2916SOL    HW210903   2.126   2.750   5.500  0.4309  1.4087 -2.4019
 2917SOL     OW10904   6.896   0.223   9.243  0.6278  0.3407 -0.7438
 2917SOL    HW110905   6.828   0.291   9.245  0.5211  0.2550 -1.3326
 2917SOL    HW210906   6.850   0.142   9.264  0.9060  0.5558  0.8166
 2918SOL     OW10907   1.796   7.209   1.607 -0.2035 -0.1325  0.3982
 2918SOL    HW110908   1.720   7.265   1.623  0.0394  1.4067 -2.9528
 2918SOL    HW210909   1.869   7.256   1.646 -0.6504 -0.6457  1.9117
 2919SOL     OW10910   5.550   8.026   5.152 -0.3113  0.4749 -0.1076
 2919SOL    HW110911   5.594   8.009   5.235 -0.4834 -0.9785 -0.2931
 2919SOL    HW210912   5.457   8.010   5.171 -0.3044 -0.3035 -0.6638
 2920SOL     OW10913   2.236   3.197   2.887  0.2285  0.0754  0.0663
 2920SOL    HW110914   2.293   3.226   2.958  0.0418 -1.2033  0.7721
 2920SOL    HW210915   2.147   3.205   2.922 -0.1124  2.3549 -1.1309
 2921SOL     OW10916   3.346   5.680   3.274  0.1568 -0.1570  0.6848
 2921SOL    HW110917   3.255   5.685   3.247  0.1932  1.1734  0.7396
 2921SOL    HW210918   3.346   5.709   3.365  0.8441  1.7155  0.1356
 2922SOL     OW10919   8.638   4.904   0.239 -0.3672 -0.3533  0.4142
 2922SOL    HW110920   8.549   4.934   0.252 -0.0404  0.3680  1.0110
 2922SOL    HW210921   8.634   4.854   0.157 -1.1654  0.2608  0.0637
 2923SOL     OW10922   9.049   5.154   6.106 -0.0815  0.0353  0.2002
 2923SOL    HW110923   9.012   5.145   6.194  1.0761 -1.2865  0.5964
 2923SOL    HW210924   8.980   5.197   6.055 -1.9258 -1.7821  1.0258
 2924SOL     OW10925   1.376   4.360   3.529 -0.4365  0.2686  0.1162
 2924SOL    HW110926   1.337   4.327   3.448  0.0539 -0.2600  0.0846
 2924SOL    HW210927   1.339   4.304   3.597 -0.9533  0.7993  0.2843
 2925SOL     OW10928   2.858   6.437   6.125 -0.1400 -0.4955 -0.1815
 2925SOL    HW110929   2.866   6.348   6.089 -0.1012  0.0227 -1.5249
 2925SOL    HW210930   2.849   6.424   6.219  2.6997 -1.8022  0.0112
 2926SOL     OW10931   7.849   5.650   3.324  0.1164 -0.5248 -0.1141
 2926SOL    HW110932   7.784   5.640   3.254  0.3623 -0.2969 -0.3791
 2926SOL    HW210933   7.880   5.741   3.315  0.8071 -0.7733 -0.2904
 2927SOL     OW10934   5.355   1.386   5.907 -0.0110  0.6437 -0.7180
 2927SOL    HW110935   5.329   1.314   5.849 -1.9796  1.9124 -1.5170
 2927SOL    HW210936   5.359   1.463   5.850  1.7372  1.2690  0.1735
 2928SOL     OW10937   2.024   8.082   8.804 -0.1577 -0.3140  0.0551
 2928SOL    HW110938   2.096   8.098   8.866  0.2020 -1.8263  0.0711
 2928SOL    HW210939   1.945   8.097   8.855  0.1133  1.7025 -0.0477
 2929SOL     OW10940   2.768   0.054   6.109 -0.2110 -0.2467  0.2058
 2929SOL    HW110941   2.841   0.028   6.164  0.7215 -0.1211 -0.9352
 2929SOL    HW210942   2.767   0.149   6.113  1.4203 -0.0755 -1.8647
 2930SOL     OW10943   2.498   5.119   6.725 -0.0807 -0.1058 -0.0271
 2930SOL    HW110944   2.459   5.076   6.649  0.1502  1.6130 -1.1909
 2930SOL    HW210945   2.582   5.152   6.693  0.8078 -0.7892  1.4817
 2931SOL     OW10946   1.884   0.678   7.780  0.0996 -0.0464  1.0073
 2931SOL    HW110947   1.814   0.654   7.840  1.3780 -2.5048  1.6740
 2931SOL    HW210948   1.930   0.596   7.762 -1.0012  0.1540 -4.5556
 2932SOL     OW10949   1.822   8.571   5.624 -0.0675  0.0670 -0.2832
 2932SOL    HW110950   1.894   8.630   5.605 -0.5931  1.6201  2.0860
 2932SOL    HW210951   1.766   8.575   5.546  1.9336 -0.5722 -1.8345
 2933SOL     OW10952   5.027   7.697   1.066  0.2584  0.3535  0.0191
 2933SOL    HW110953   5.074   7.735   1.140 -1.1202  1.7459  0.2322
 2933SOL    HW210954   5.092   7.692   0.996  1.6318 -1.1394  1.3246
 2934SOL     OW10955   0.587   5.939   4.557  0.1809 -0.4425 -0.0051
 2934SOL    HW110956   0.566   5.876   4.626  1.1421 -1.9381 -1.0140
 2934SOL    HW210957   0.516   6.003   4.561  0.1689 -0.4976  2.2992
 2935SOL     OW10958   9.575   7.693   6.875 -0.0134 -0.0443 -0.2043
 2935SOL    HW110959   9.645   7.652   6.824  0.0550 -0.8402  0.5085
 2935SOL    HW210960   9.593   7.667   6.965 -0.5058  0.8063  0.1487
 2936SOL     OW10961   0.293   7.649   5.718 -0.2153  0.0510 -0.3290
 2936SOL    HW110962   0.381   7.658   5.754 -0.4409 -1.1787  0.5753
 2936SOL    HW210963   0.239   7.619   5.792 -1.4197  0.8543 -0.8432
 2937SOL     OW10964   4.335   4.837   1.271  0.4316  0.3219 -0.7124
 2937SOL    HW110965   4.376   4.791   1.198  0.2872  0.9894 -1.2248
 2937SOL    HW210966   4.290   4.768   1.320 -0.3138 -0.0276 -1.8251
 2938SOL     OW10967   5.526   8.612   6.237 -0.7640 -0.8060  0.0479
 2938SOL    HW110968   5.522   8.645   6.328  0.6316  0.9203 -0.4405
 2938SOL    HW210969   5.436   8.588   6.216 -2.3191  3.9423  0.1406
 2939SOL     OW10970   8.390   1.330   1.168 -0.1047  0.5717 -0.0734
 2939SOL    HW110971   8.438   1.255   1.132  0.7898  0.2866  1.6242
 2939SOL    HW210972   8.306   1.328   1.122  0.8389  0.0457 -1.8750
 2940SOL     OW10973   7.682   6.061   6.194  0.8311  0.1800  0.8265
 2940SOL    HW110974   7.759   6.081   6.248  0.9613  1.3712  0.2119
 2940SOL    HW210975   7.699   6.104   6.111  0.5898 -1.5560 -0.1760
 2941SOL     OW10976   0.317   5.045   1.244  0.4205  0.4984 -0.3042
 2941SOL    HW110977   0.294   5.071   1.333  2.1375  0.1819  0.2678
 2941SOL    HW210978   0.381   5.111   1.216  1.8296 -0.8306 -0.3185
 2942SOL     OW10979   2.743   7.306   1.240 -0.6210 -0.9497 -0.2964
 2942SOL    HW110980   2.813   7.243   1.256 -0.1392 -0.1636  0.8555
 2942SOL    HW210981   2.757   7.375   1.305 -1.4954  0.0496 -1.1179
 2943SOL     OW10982   2.405   1.976   5.502 -0.0992 -0.4566  0.4244
 2943SOL    HW110983   2.329   1.918   5.503  0.1439 -0.7733  1.6053
 2943SOL    HW210984   2.418   1.997   5.409 -1.0079 -1.2004  0.1184
 2944SOL     OW10985   4.605   9.577   3.723 -0.2027  0.1190  0.2912
 2944SOL    HW110986   4.540   9.622   3.776  0.0617  0.6300  0.1798
 2944SOL    HW210987   4.690   9.603   3.760 -0.0455 -0.2055  0.1674
 2945SOL     OW10988   3.566   4.009   4.104  0.1571  0.0985  0.2578
 2945SOL    HW110989   3.589   4.023   4.012  0.1126  1.2062  0.4004
 2945SOL    HW210990   3.506   3.934   4.103 -1.7300  1.5246 -0.9091
 2946SOL     OW10991   0.182   6.941   4.350 -0.4434 -0.9728 -0.1640
 2946SOL    HW110992   0.121   6.963   4.280  1.0158  0.6153 -1.0266
 2946SOL    HW210993   0.175   7.014   4.412 -0.8264 -1.7540  0.7357
 2947SOL     OW10994   4.194   2.483   4.582  0.1224 -0.6038  0.0294
 2947SOL    HW110995   4.163   2.522   4.501 -0.2071 -0.7783  0.0718
 2947SOL    HW210996   4.171   2.390   4.574  0.6288 -0.7358  0.0596
 2948SOL     OW10997   8.622   7.676   1.870  0.4165 -0.3135  0.4779
 2948SOL    HW110998   8.697   7.684   1.811 -0.7210 -2.3399 -1.4272
 2948SOL    HW210999   8.635   7.592   1.914 -0.4073 -0.4170  0.5459
 2949SOL     OW11000   6.342   4.099   3.998  0.4764  0.2241  0.0068
 2949SOL    HW111001   6.260   4.053   3.980  0.3722 -0.7854  2.6729
 2949SOL    HW211002   6.409   4.048   3.952 -0.0929 -0.4052 -0.1368
 2950SOL     OW11003   6.331   8.579   1.363 -0.0384 -0.7282 -0.0201
 2950SOL    HW111004   6.274   8.613   1.294 -2.1505 -1.6522  1.1542
 2950SOL    HW211005   6.291   8.612   1.444  0.1396 -2.7326  0.9282
 2951SOL     OW11006   7.582   4.904   0.310 -0.1501  0.1712  0.1387
 2951SOL    HW111007   7.672   4.906   0.343  0.0186  0.0947 -0.3050
 2951SOL    HW211008   7.529   4.939   0.381  0.1194 -0.6557  0.7685
 2952SOL     OW11009   8.822   6.423   1.061  0.2165  0.3472  0.7453
 2952SOL    HW111010   8.814   6.492   0.994  0.3225  0.4316  0.8185
 2952SOL    HW211011   8.916   6.418   1.079  0.4078 -1.0611 -0.5513
 2953SOL     OW11012   9.481   2.210   7.828  0.3532  0.2264  0.8583
 2953SOL    HW111013   9.400   2.251   7.857  0.0716 -0.3456  0.8996
 2953SOL    HW211014   9.497   2.140   7.891  0.1260 -0.5628  0.0712
 2954SOL     OW11015   7.007   2.540   2.699  0.1736 -0.0600  0.5670
 2954SOL    HW111016   7.032   2.631   2.686  0.6217 -0.2403  0.1290
 2954SOL    HW211017   7.058   2.492   2.634 -0.3736 -0.5731  0.5075
 2955SOL     OW11018   4.722   7.492   2.539 -0.2901  0.2161 -0.1068
 2955SOL    HW111019   4.642   7.535   2.508  1.3115  2.1166 -1.9229
 2955SOL    HW211020   4.744   7.539   2.620 -0.2096  0.7419 -0.4269
 2956SOL     OW11021   4.039   1.456   7.751 -0.4209  0.1601  0.3527
 2956SOL    HW111022   3.945   1.474   7.760 -0.1523  1.7939  0.3116
 2956SOL    HW211023   4.049   1.421   7.663 -0.9650  0.1566  0.2895
 2957SOL     OW11024   0.063   8.814   1.247  0.2049 -0.5412  0.2505
 2957SOL    HW111025   0.114   8.837   1.169 -1.3376  3.0010  0.1097
 2957SOL    HW211026   0.090   8.877   1.313 -1.4769 -0.8164  1.2511
 2958SOL     OW11027   1.540   3.649   4.591  0.3539  0.3876 -0.3719
 2958SOL    HW111028   1.447   3.668   4.579  0.1270 -0.3105  0.2148
 2958SOL    HW211029   1.578   3.731   4.621 -0.3779  0.2760  0.9325
 2959SOL     OW11030   2.306   3.561   0.570 -0.3264 -0.3713 -0.3164
 2959SOL    HW111031   2.386   3.593   0.528 -0.8748  0.2215 -0.9439
 2959SOL    HW211032   2.266   3.503   0.505 -1.4398  0.9499 -0.8654
 2960SOL     OW11033   6.380   0.941   7.098 -0.6674  0.3928  0.7883
 2960SOL    HW111034   6.328   1.009   7.141  1.3901  3.6240 -1.3641
 2960SOL    HW211035   6.341   0.933   7.011 -0.4100 -0.6245  0.7580
 2961SOL     OW11036   8.938   9.172   5.293  0.5050 -0.1230 -0.0748
 2961SOL    HW111037   8.978   9.258   5.308 -1.2091  0.7266 -0.2161
 2961SOL    HW211038   8.939   9.162   5.198 -0.3976  0.3026 -0.1375
 2962SOL     OW11039   2.312   1.280   2.825 -0.0695 -0.0597  0.1578
 2962SOL    HW111040   2.379   1.339   2.790 -0.7245  0.9821  0.5991
 2962SOL    HW211041   2.341   1.261   2.914  0.4150 -0.8580 -0.1577
 2963SOL     OW11042   2.732   0.676   6.344 -0.9534  0.0174 -0.4150
 2963SOL    HW111043   2.756   0.728   6.267 -1.1957  0.2680 -0.3221
 2963SOL    HW211044   2.772   0.723   6.417 -0.6217 -0.2873 -0.3995
 2964SOL     OW11045   6.089   8.773   2.323 -0.6572 -0.3048 -0.5969
 2964SOL    HW111046   6.006   8.794   2.279 -1.8953  1.4992  2.3117
 2964SOL    HW211047   6.070   8.692   2.371 -0.5456 -0.1684 -0.3278
 2965SOL     OW11048   1.892   4.863   8.970 -0.5754 -0.5523 -0.3572
 2965SOL    HW111049   1.846   4.855   8.886 -0.3506  2.1216 -0.8166
 2965SOL    HW211050   1.834   4.818   9.032 -0.9256 -2.2748 -1.8282
 2966SOL     OW11051   4.019   0.007   2.706  0.4684 -0.1047  0.3318
 2966SOL    HW111052   4.042   0.064   2.780 -0.1437 -2.1098  2.1742
 2966SOL    HW211053   3.924  -0.004   2.713  0.3943 -0.2957 -0.8041
 2967SOL     OW11054   2.337   2.423   2.222 -0.5565  0.1797 -0.0162
 2967SOL    HW111055   2.329   2.503   2.170 -0.6303 -0.9568 -1.8484
 2967SOL    HW211056   2.256   2.375   2.204 -1.0737  0.1880  2.0146
 2968SOL     OW11057   3.960   4.991   6.425  1.3310  0.7221  0.2658
 2968SOL    HW111058   4.015   5.063   6.456  0.6337  0.8936  1.1364
 2968SOL    HW211059   3.870   5.021   6.442  0.9950  0.1147 -0.4035
 2969SOL     OW11060   9.298   0.170   3.164  0.2815 -0.0224 -0.0065
 2969SOL    HW111061   9.359   0.106   3.200 -2.1822 -2.8029 -0.3772
 2969SOL    HW211062   9.231   0.117   3.120 -1.4772  2.8832 -1.1254
 2970SOL     OW11063   0.965   4.313   2.554  0.1902  0.4065  0.6957
 2970SOL    HW111064   0.973   4.349   2.642 -0.5550  1.3896  0.3857
 2970SOL    HW211065   0.874   4.330   2.530  0.4149  0.2472 -0.3015
 2971SOL     OW11066   8.743   2.359   2.533  0.3913  0.7426  0.3392
 2971SOL    HW111067   8.792   2.328   2.457  1.5351  0.7007  1.0717
 2971SOL    HW211068   8.652   2.336   2.513  0.9224 -1.2353 -0.0532
 2972SOL     OW11069   8.589   0.469   3.265  0.0342 -0.3241  0.4924
 2972SOL    HW111070   8.501   0.439   3.289  0.4765 -0.2285  2.4212
 2972SOL    HW211071   8.639   0.389   3.254  0.2040 -0.3607  1.4867
 2973SOL     OW11072   3.768   0.303   2.022 -0.2858 -0.6650  0.3985
 2973SOL    HW111073   3.841   0.354   1.986  0.0286 -1.3609  0.0319
 2973SOL    HW211074   3.802   0.270   2.106 -0.2594 -0.8012  0.3340
 2974SOL     OW11075   5.518   4.757   6.861 -0.0494  0.2359 -0.3562
 2974SOL    HW111076   5.451   4.727   6.922 -1.3223 -0.5043 -2.0164
 2974SOL    HW211077   5.499   4.850   6.848 -0.5164  0.1213 -0.5081
 2975SOL     OW11078   3.618   0.655   9.512 -0.3155  0.0466 -0.2001
 2975SOL    HW111079   3.535   0.679   9.469 -0.0462 -1.0925 -1.4187
 2975SOL    HW211080   3.654   0.739   9.541 -1.3129  0.6884 -0.7300
 2976SOL     OW11081   8.519   4.264   8.988 -0.1129  0.1923  0.1795
 2976SOL    HW111082   8.548   4.189   8.935  2.7733  1.2210  0.0932
 2976SOL    HW211083   8.426   4.248   9.004  0.2022 -2.9955 -0.4902
 2977SOL     OW11084   7.962   5.537   6.289 -0.2628 -0.0994 -0.4484
 2977SOL    HW111085   8.029   5.489   6.338  0.4656  1.9988  0.7448
 2977SOL    HW211086   7.888   5.477   6.285  1.2049 -2.0017 -0.6590
 2978SOL     OW11087   4.573   1.755   4.273  0.0567 -0.7756  0.0117
 2978SOL    HW111088   4.660   1.733   4.241 -0.0503 -0.0761 -0.7844
 2978SOL    HW211089   4.515   1.696   4.225 -0.0074 -0.4841 -0.2668
 2979SOL     OW11090   9.373   6.284   8.507 -0.1253  0.0444  0.0577
 2979SOL    HW111091   9.354   6.261   8.416  1.3559  1.9914 -0.8338
 2979SOL    HW211092   9.349   6.377   8.513  2.5161  0.7708  0.7441
 2980SOL     OW11093   4.874   6.694   3.178 -0.2014  0.4349  0.1932
 2980SOL    HW111094   4.908   6.629   3.116 -0.4989 -0.3101  0.7903
 2980SOL    HW211095   4.854   6.771   3.124 -2.7588 -0.9967 -1.0921
 2981SOL     OW11096   5.858   3.708   4.713  0.3253 -0.1277  0.0075
 2981SOL    HW111097   5.781   3.661   4.745  0.9109 -0.1923  1.3854
 2981SOL    HW211098   5.932   3.659   4.747  0.9674  0.7286 -0.1185
 2982SOL     OW11099   7.701   0.322   2.385  0.1378 -0.0938  0.1316
 2982SOL    HW111100   7.754   0.306   2.463 -0.1036  1.5100  0.6551
 2982SOL    HW211101   7.759   0.301   2.312  0.8617 -0.1784  0.7145
 2983SOL     OW11102   3.964   8.402   4.389 -0.1883  0.4254  0.2932
 2983SOL    HW111103   3.878   8.379   4.355 -0.5241 -2.6893  2.7579
 2983SOL    HW211104   4.026   8.372   4.323 -0.9168  0.0157 -0.2094
 2984SOL     OW11105   2.177   4.259   3.333 -0.0648  0.4697  0.0937
 2984SOL    HW111106   2.114   4.332   3.335  0.0398  0.5680 -0.2207
 2984SOL    HW211107   2.235   4.277   3.407 -1.4723 -0.5870  1.5498
 2985SOL     OW11108   3.613   3.912   0.047 -0.8120  0.1390 -0.0312
 2985SOL    HW111109   3.598   3.883  -0.043  0.7730  1.5061 -0.7856
 2985SOL    HW211110   3.592   4.005   0.047 -0.4218  0.2399  0.9072
 2986SOL     OW11111   7.249   4.409   3.650  0.1874  0.0594 -0.2674
 2986SOL    HW111112   7.204   4.430   3.732  0.8149  1.0977 -0.1567
 2986SOL    HW211113   7.267   4.495   3.610  1.9579 -0.2992 -0.3474
 2987SOL     OW11114   8.128   0.692   9.099  0.1074  0.2482 -0.0015
 2987SOL    HW111115   8.197   0.640   9.141  0.6165  1.5653  0.8952
 2987SOL    HW211116   8.176   0.756   9.046 -0.5016 -0.2052 -1.1308
 2988SOL     OW11117   6.620   0.917   4.258 -0.2271  0.0608  0.2626
 2988SOL    HW111118   6.604   0.992   4.315  1.5697 -1.2446  2.6829
 2988SOL    HW211119   6.538   0.904   4.211 -0.2583  4.1859 -1.2261
 2989SOL     OW11120   6.447   7.849   5.868 -0.1456 -0.2024 -0.0897
 2989SOL    HW111121   6.406   7.775   5.823 -0.9450 -1.4773  2.5492
 2989SOL    HW211122   6.541   7.838   5.851 -0.4633  0.1037 -2.3758
 2990SOL     OW11123   4.784   4.504   9.288  0.1500  0.6292 -0.6288
 2990SOL    HW111124   4.751   4.431   9.341 -2.2928  1.0275 -1.4918
 2990SOL    HW211125   4.824   4.563   9.352 -0.8833  0.1350  0.5212
 2991SOL     OW11126   7.535   8.344   0.895 -0.0091  0.6496  0.2988
 2991SOL    HW111127   7.589   8.274   0.858  0.8366  0.5556  1.6668
 2991SOL    HW211128   7.464   8.298   0.940  0.7133  0.6371  1.4549
 2992SOL     OW11129   8.014   0.584   3.229  0.3395 -0.1679 -0.6161
 2992SOL    HW111130   8.047   0.507   3.182  3.1976 -1.5073  3.1223
 2992SOL    HW211131   7.953   0.549   3.293  1.1600  0.6880  0.6836
 2993SOL     OW11132   2.756   1.729   3.667  0.6006 -0.2024 -0.3558
 2993SOL    HW111133   2.774   1.676   3.589  2.2657 -0.6623  0.3081
 2993SOL    HW211134   2.842   1.759   3.696  0.3450 -2.1207  2.7601
 2994SOL     OW11135   9.080   9.282   7.289 -0.2319 -0.1582  0.3011
 2994SOL    HW111136   9.112   9.294   7.378 -0.6303  1.5136  0.2513
 2994SOL    HW211137   9.159   9.264   7.237 -0.1426 -2.6577  1.1664
 2995SOL     OW11138   2.507   1.386   1.944  0.6702  0.1237 -0.0217
 2995SOL    HW111139   2.596   1.409   1.971  0.5124 -0.3879  0.9688
 2995SOL    HW211140   2.501   1.417   1.853  1.4142  1.3543  0.3187
 2996SOL     OW11141   8.753   5.458   3.929 -0.2491 -0.5704  0.3233
 2996SOL    HW111142   8.661   5.477   3.949 -0.6676 -1.0849 -1.0322
 2996SOL    HW211143   8.791   5.543   3.909 -0.0434 -0.1558  2.2465
 2997SOL     OW11144   5.545   3.074   2.994 -0.0371  0.5483  0.1801
 2997SOL    HW111145   5.593   2.992   2.981 -0.6006 -0.0345  1.5875
 2997SOL    HW211146   5.453   3.048   2.996 -0.2548  1.2925  0.0887
 2998SOL     OW11147   9.451   1.742   8.604  0.0711 -0.6639  0.1289
 2998SOL    HW111148   9.408   1.826   8.617  1.0792 -0.2757  1.0444
 2998SOL    HW211149   9.390   1.678   8.641 -1.3178 -0.5333 -1.7384
 2999SOL     OW11150   2.542   6.097   4.450  0.3724 -0.1078 -0.8437
 2999SOL    HW111151   2.486   6.121   4.524 -0.4193 -2.1540 -0.7265
 2999SOL    HW211152   2.630   6.126   4.477  0.6662 -3.1862  2.2579
 3000SOL     OW11153   8.483   9.186   1.627 -0.0350 -0.6592 -0.3829
 3000SOL    HW111154   8.564   9.136   1.633 -0.8238 -1.8517  1.2023
 3000SOL    HW211155   8.511   9.277   1.629  1.4007 -0.9739 -2.8153
 3001SOL     OW11156   5.429   3.600   1.744 -0.0527  0.3771  0.3930
 3001SOL    HW111157   5.453   3.624   1.655  0.4938 -1.7226 -0.0816
 3001SOL    HW211158   5.338   3.628   1.753 -0.4454 -0.2976 -1.1963
 3002SOL     OW11159   2.676   2.833   3.412 -0.7662  0.2358 -0.1929
 3002SOL    HW111160   2.586   2.824   3.381 -1.0905 -0.1862  0.8101
 3002SOL    HW211161   2.676   2.790   3.498  0.6253 -0.6838 -0.6049
 3003SOL     OW11162   6.024   7.005   7.946 -0.0520  0.2231 -0.4044
 3003SOL    HW111163   6.094   7.025   8.009 -0.3153  0.8208 -0.2893
 3003SOL    HW211164   5.986   7.091   7.926 -1.8947 -0.2457  0.8589
 3004SOL     OW11165   6.218   4.520   3.717  0.4799  0.0322  0.0509
 3004SOL    HW111166   6.251   4.500   3.629  0.5382 -0.7551  0.2458
 3004SOL    HW211167   6.293   4.504   3.774 -0.0237 -1.0777  0.4203
 3005SOL     OW11168   8.711   8.717   3.505  0.1293 -0.0136 -0.2334
 3005SOL    HW111169   8.662   8.791   3.468  0.0036  0.0778  0.1150
 3005SOL    HW211170   8.643   8.660   3.542  0.2259 -0.3045 -0.4999
 3006SOL     OW11171   1.149   2.407   3.948  0.5531  0.4931  0.2494
 3006SOL    HW111172   1.149   2.396   3.853 -0.0631  1.2043  0.1536
 3006SOL    HW211173   1.068   2.364   3.977  1.2624 -0.6456  0.5804
 3007SOL     OW11174   6.632   7.567   2.364 -0.2418  0.5891  0.3545
 3007SOL    HW111175   6.585   7.617   2.431 -1.1924 -0.3273  0.3919
 3007SOL    HW211176   6.591   7.481   2.364  0.0478  0.4161 -1.0845
 3008SOL     OW11177   1.382   2.188   6.859 -0.2530  0.3781  0.6478
 3008SOL    HW111178   1.467   2.208   6.820 -0.4265 -0.3931 -0.1326
 3008SOL    HW211179   1.384   2.094   6.874 -0.7584  0.4457  1.1462
 3009SOL     OW11180   7.919   0.333   8.833 -0.3229 -0.1421  0.5507
 3009SOL    HW111181   7.869   0.412   8.812  0.8882  0.7372  0.8743
 3009SOL    HW211182   7.921   0.329   8.929  0.0816 -0.2626  0.5417
 3010SOL     OW11183   6.487   3.225   3.493  0.0693  0.2187 -0.0607
 3010SOL    HW111184   6.578   3.248   3.508  0.1006 -0.1962  0.4106
 3010SOL    HW211185   6.486   3.129   3.495 -0.2656  0.2008 -0.7319
 3011SOL     OW11186   8.330   2.556   8.175  0.0764 -0.4488  0.4314
 3011SOL    HW111187   8.363   2.479   8.222  0.7343 -0.1433  0.4812
 3011SOL    HW211188   8.279   2.520   8.102  1.5146 -0.9421 -0.3538
 3012SOL     OW11189   0.600   5.583   4.118  0.4103 -0.3448  0.5940
 3012SOL    HW111190   0.657   5.658   4.130 -1.1637  1.2058 -1.0293
 3012SOL    HW211191   0.621   5.549   4.032  0.1750 -0.9193  0.7570
 3013SOL     OW11192   0.140   3.505   5.191 -0.4623 -0.3615 -0.8479
 3013SOL    HW111193   0.098   3.569   5.247  0.8652 -0.2320  0.0492
 3013SOL    HW211194   0.233   3.528   5.193  0.5149 -3.7468  1.6218
 3014SOL     OW11195   0.757   0.009   4.738 -0.1012 -0.0957 -0.4103
 3014SOL    HW111196   0.719  -0.040   4.812 -0.0978  0.3140 -0.1316
 3014SOL    HW211197   0.848   0.024   4.764 -0.4529  1.2462  0.1380
 3015SOL     OW11198   8.058   6.043   3.720  0.5743 -0.2363 -0.4788
 3015SOL    HW111199   8.092   5.954   3.727  0.8067  0.0066  2.8187
 3015SOL    HW211200   8.090   6.088   3.799 -0.8858  2.3100 -1.2072
 3016SOL     OW11201   6.378   6.396   0.107 -0.0579 -0.0398  0.9159
 3016SOL    HW111202   6.382   6.321   0.047 -0.9282  0.6962 -0.0986
 3016SOL    HW211203   6.457   6.447   0.088 -1.0187  0.9450 -0.6831
 3017SOL     OW11204   2.710   1.296   4.890  0.5723  0.0953  0.1118
 3017SOL    HW111205   2.751   1.299   4.976 -0.1803 -3.4729  0.7515
 3017SOL    HW211206   2.779   1.265   4.831  0.7677  1.4026 -0.3737
 3018SOL     OW11207   3.366   9.227   9.473 -0.0990  0.1362  0.0074
 3018SOL    HW111208   3.284   9.197   9.432 -1.3366  2.2831  0.7551
 3018SOL    HW211209   3.349   9.218   9.567  1.3647 -1.3574  0.1739
 3019SOL     OW11210   9.413   3.811   5.376  0.1471  0.1773  0.5793
 3019SOL    HW111211   9.357   3.802   5.298  1.0621  0.1353 -0.0936
 3019SOL    HW211212   9.372   3.882   5.426 -0.9138 -0.3362  0.4736
 3020SOL     OW11213   1.800   5.255   3.485 -0.2840 -0.6852 -0.3912
 3020SOL    HW111214   1.772   5.340   3.452  2.1138  0.3646  0.0438
 3020SOL    HW211215   1.804   5.266   3.580 -0.5440 -1.4883 -0.2790
 3021SOL     OW11216   8.378   4.233   0.410 -0.0073 -0.3888  0.0649
 3021SOL    HW111217   8.383   4.321   0.447 -1.7189 -0.3604  0.3222
 3021SOL    HW211218   8.370   4.175   0.486 -0.7227 -0.5821 -0.1462
 3022SOL     OW11219   8.531   2.313   5.213  0.4050 -0.0490  0.3128
 3022SOL    HW111220   8.608   2.347   5.167 -0.3574  1.1587 -0.1146
 3022SOL    HW211221   8.491   2.252   5.151  0.9303 -0.5929  0.4924
 3023SOL     OW11222   0.092   0.895   3.324  0.1215  0.6232  0.1029
 3023SOL    HW111223  -0.003   0.887   3.313  0.0982  1.3490 -0.2827
 3023SOL    HW211224   0.128   0.822   3.275 -0.1174  2.1088 -2.4457
 3024SOL     OW11225   2.549   3.000   8.693 -0.7918  0.0192 -0.7425
 3024SOL    HW111226   2.565   2.974   8.783  0.0167 -0.1147 -0.9161
 3024SOL    HW211227   2.586   2.929   8.640  1.8647  1.6280 -1.2341
 3025SOL     OW11228   2.847   1.285   7.533 -0.0616  0.1353 -0.1557
 3025SOL    HW111229   2.822   1.368   7.574 -0.8582  0.0748 -0.5035
 3025SOL    HW211230   2.888   1.310   7.451 -0.9407  0.1668 -0.5904
 3026SOL     OW11231   1.018   7.843   7.674  0.7011 -0.2043  0.3149
 3026SOL    HW111232   1.068   7.870   7.597 -0.6649  1.1454 -0.1606
 3026SOL    HW211233   0.965   7.769   7.643  1.0876 -0.4862  0.3225
 3027SOL     OW11234   7.358   9.206   8.732  0.3726  0.6017  0.1351
 3027SOL    HW111235   7.342   9.204   8.637  1.8074  2.8917 -0.2283
 3027SOL    HW211236   7.443   9.164   8.743  0.2810  0.4836  0.4160
 3028SOL     OW11237   7.210   9.416   7.187 -0.8586 -0.9179 -0.2558
 3028SOL    HW111238   7.249   9.433   7.102  1.9926  1.7008  1.3573
 3028SOL    HW211239   7.248   9.332   7.215 -0.0007 -0.6565 -0.6219
 3029SOL     OW11240   6.293   3.989   3.228 -0.0983  0.0893 -0.5671
 3029SOL    HW111241   6.378   4.000   3.186 -0.5809  0.2888 -1.5020
 3029SOL    HW211242   6.233   4.043   3.177 -1.1019 -1.2830 -0.8811
 3030SOL     OW11243   7.797   1.694   0.745  0.3137  0.3616  0.1189
 3030SOL    HW111244   7.877   1.656   0.710  0.7231  0.2427  1.1578
 3030SOL    HW211245   7.826   1.774   0.789  0.2243 -0.8494  2.4955
 3031SOL     OW11246   4.540   5.989   6.369  0.0209  0.2161 -0.0339
 3031SOL    HW111247   4.626   6.015   6.401 -0.6368  1.4045  0.8550
 3031SOL    HW211248   4.543   5.893   6.369  0.7029  0.1958  1.8390
 3032SOL     OW11249   5.841   5.943   3.726 -0.0182  0.5795  0.0440
 3032SOL    HW111250   5.753   5.947   3.689 -0.2945 -2.0288  0.2553
 3032SOL    HW211251   5.898   5.978   3.658 -1.0785  1.0187 -0.6322
 3033SOL     OW11252   7.339   2.895   0.496 -0.5241 -0.2246 -0.0807
 3033SOL    HW111253   7.404   2.858   0.556 -0.8307 -0.6849 -0.0341
 3033SOL    HW211254   7.256   2.887   0.542 -0.9936 -1.9553 -1.1441
 3034SOL     OW11255   3.282   3.327   2.292 -0.3191 -0.1884  0.2459
 3034SOL    HW111256   3.212   3.263   2.281 -1.3672  0.7263  1.2952
 3034SOL    HW211257   3.351   3.297   2.234 -1.9445 -0.5952 -1.5950
 3035SOL     OW11258   7.242   9.170   8.109 -0.4631  0.2821 -0.1520
 3035SOL    HW111259   7.169   9.215   8.152  0.1970  1.1837  0.0466
 3035SOL    HW211260   7.279   9.114   8.177 -0.1612  0.8088  0.1219
 3036SOL     OW11261   1.973   7.460   7.569  0.3229  0.4169 -0.0739
 3036SOL    HW111262   1.956   7.425   7.482 -0.0964  0.5699 -0.0509
 3036SOL    HW211263   2.027   7.393   7.611  0.4655  0.3106 -0.4227
 3037SOL     OW11264   4.925   1.285   7.552 -0.4167  0.3582  0.9060
 3037SOL    HW111265   4.957   1.336   7.478  0.7608 -0.3884  0.8717
 3037SOL    HW211266   4.885   1.350   7.611 -0.0486  1.1509  0.3005
 3038SOL     OW11267   8.813   1.219   5.489 -0.2130  0.3563 -0.2948
 3038SOL    HW111268   8.884   1.279   5.464 -0.4118  1.1179  0.8597
 3038SOL    HW211269   8.782   1.183   5.406  0.0685  1.6957 -1.0202
 3039SOL     OW11270   1.164   7.924   2.844 -0.4992 -0.3083  0.7689
 3039SOL    HW111271   1.192   7.874   2.767  0.7450 -0.2568  1.1666
 3039SOL    HW211272   1.241   7.927   2.901 -1.3981 -0.3603  2.0365
 3040SOL     OW11273   3.514   0.109   7.332 -0.0028  0.1710 -0.2445
 3040SOL    HW111274   3.528   0.203   7.341  0.2073 -0.0130  1.7696
 3040SOL    HW211275   3.428   0.101   7.291  0.2760  1.2141 -1.0907
 3041SOL     OW11276   2.057   6.066   5.251 -0.0705  0.6360  0.2421
 3041SOL    HW111277   2.070   6.122   5.327 -0.2698 -0.4389  1.0985
 3041SOL    HW211278   2.138   6.014   5.245 -1.7163 -2.5962  2.6329
 3042SOL     OW11279   7.407   4.850   7.090 -0.1506 -0.0699  0.1294
 3042SOL    HW111280   7.318   4.885   7.082  0.2339  1.1250  0.8554
 3042SOL    HW211281   7.450   4.909   7.151  1.9205  0.9001 -2.1253
 3043SOL     OW11282   6.860   9.199   4.799 -0.0731 -0.2879 -0.0169
 3043SOL    HW111283   6.793   9.177   4.864 -1.8941  1.6600 -1.0956
 3043SOL    HW211284   6.897   9.115   4.774 -0.5321 -1.2415  2.2468
 3044SOL     OW11285   8.177   8.553   4.030  0.4904 -0.0106  0.1323
 3044SOL    HW111286   8.176   8.649   4.020 -0.9253 -0.0989 -0.7939
 3044SOL    HW211287   8.091   8.525   4.001  1.3848 -1.7142 -1.0208
 3045SOL     OW11288   0.272   7.851   2.526  0.1075 -0.1627  0.3537
 3045SOL    HW111289   0.342   7.823   2.467 -0.5851  0.3993 -0.7831
 3045SOL    HW211290   0.256   7.775   2.582  1.5054 -0.3473  0.5346
 3046SOL     OW11291   2.442   0.630   6.777 -0.2637 -0.2947 -0.2428
 3046SOL    HW111292   2.536   0.616   6.772 -0.2389 -0.4314  0.5081
 3046SOL    HW211293   2.413   0.633   6.686  0.1697 -2.2177 -0.4828
 3047SOL     OW11294   7.936   4.396   9.001 -0.2383 -0.1364  0.4542
 3047SOL    HW111295   7.893   4.396   9.086 -0.8080 -0.4412  0.1670
 3047SOL    HW211296   7.867   4.377   8.938  0.4413 -1.4412  0.0591
 3048SOL     OW11297   5.496   7.219   8.875  0.4159 -0.4103  0.1147
 3048SOL    HW111298   5.514   7.297   8.928  2.1171 -0.5622 -0.1725
 3048SOL    HW211299   5.539   7.147   8.922 -1.1755 -1.2114  0.3992
 3049SOL     OW11300   8.106   8.702   5.421 -0.3992  0.0964 -0.0498
 3049SOL    HW111301   8.013   8.686   5.402  0.2016 -2.1320 -1.5797
 3049SOL    HW211302   8.117   8.677   5.512 -1.7037  2.7481  0.9485
 3050SOL     OW11303   0.954   2.684   2.239 -0.3283 -0.1317  0.7214
 3050SOL    HW111304   0.936   2.648   2.326  2.4161 -0.5564  1.1903
 3050SOL    HW211305   0.990   2.611   2.189 -2.1782  0.0099 -0.9660
 3051SOL     OW11306   8.882   0.870   8.792 -0.4229 -0.2907  0.0447
 3051SOL    HW111307   8.871   0.777   8.769 -1.2636  0.2812 -2.0670
 3051SOL    HW211308   8.832   0.917   8.726 -0.4883  1.6780  1.4217
 3052SOL     OW11309   7.884   1.724   3.093 -0.3173  0.4365  0.2940
 3052SOL    HW111310   7.972   1.731   3.057 -0.8428  2.0612 -0.7542
 3052SOL    HW211311   7.869   1.629   3.101  1.5062  0.1256  0.5230
 3053SOL     OW11312   3.797   1.275   2.542  0.9820 -0.3825  0.1964
 3053SOL    HW111313   3.749   1.216   2.600  0.7819 -1.0460 -0.6274
 3053SOL    HW211314   3.887   1.242   2.543  0.9799 -0.3908  0.1430
 3054SOL     OW11315   4.069   0.851   4.901 -0.1783 -0.4767 -0.1699
 3054SOL    HW111316   4.152   0.868   4.946 -0.4798  0.5541  0.0143
 3054SOL    HW211317   4.081   0.764   4.861  0.6590 -0.7305  0.5953
 3055SOL     OW11318   8.478   1.521   0.048 -0.3302 -0.4864  0.0127
 3055SOL    HW111319   8.428   1.547  -0.029 -0.3722 -0.8400 -0.0834
 3055SOL    HW211320   8.412   1.512   0.117 -1.1884 -5.0074 -1.0454
 3056SOL     OW11321   2.101   2.095   1.235  0.7352  0.7317 -0.1125
 3056SOL    HW111322   2.182   2.112   1.188  0.9018  0.0716 -0.0722
 3056SOL    HW211323   2.044   2.053   1.171  0.7381  0.4057  0.0967
 3057SOL     OW11324   0.770   6.525   6.770  0.0717  0.0204  0.5527
 3057SOL    HW111325   0.779   6.432   6.752  0.9740 -0.0904  1.4542
 3057SOL    HW211326   0.797   6.568   6.689 -2.4463 -0.4724 -0.6642
 3058SOL     OW11327   4.969   3.007   0.503  0.5362  0.2850 -0.0809
 3058SOL    HW111328   4.880   3.021   0.536  0.4427  1.5703 -0.8245
 3058SOL    HW211329   4.962   3.022   0.409  1.1316 -1.6959 -0.4900
 3059SOL     OW11330   2.055   5.908   4.836  0.0785 -0.2046 -0.2620
 3059SOL    HW111331   2.002   5.851   4.892 -0.8644  0.3692 -0.5473
 3059SOL    HW211332   2.009   5.992   4.836  0.9563  0.2919 -0.5843
 3060SOL     OW11333   4.933   5.495   0.499 -0.1879 -0.7732 -0.7828
 3060SOL    HW111334   4.861   5.539   0.544  1.1643 -1.3499  2.2422
 3060SOL    HW211335   4.941   5.540   0.415 -1.6998  1.7633  0.3295
 3061SOL     OW11336   2.895   6.125   0.525  0.4038 -0.3228 -0.1561
 3061SOL    HW111337   2.971   6.177   0.550  0.4468 -0.1889 -0.5658
 3061SOL    HW211338   2.827   6.189   0.506  0.6317 -0.3873 -1.2427
 3062SOL     OW11339   6.557   4.757   4.559 -0.2857  0.1098 -0.0723
 3062SOL    HW111340   6.475   4.779   4.602 -0.0525  0.9002 -0.0065
 3062SOL    HW211341   6.580   4.836   4.509 -0.7431 -0.8871 -1.9635
 3063SOL     OW11342   0.650   6.236   9.516 -0.1755 -0.1001 -0.0645
 3063SOL    HW111343   0.651   6.195   9.603 -2.2944 -0.9666 -0.3728
 3063SOL    HW211344   0.582   6.304   9.523 -1.3051 -1.0420 -1.3597
 3064SOL     OW11345   5.421   1.928   6.448 -0.3254  0.0171  0.5606
 3064SOL    HW111346   5.379   2.011   6.471 -0.2890  0.0895  0.3671
 3064SOL    HW211347   5.401   1.916   6.355  1.2725  0.7782  0.0665
 3065SOL     OW11348   0.333   7.505   3.782  0.1814  0.0396 -0.2853
 3065SOL    HW111349   0.355   7.489   3.691  2.5280  0.8633  0.0554
 3065SOL    HW211350   0.345   7.599   3.794 -1.0971  0.1188  0.6565
 3066SOL     OW11351   0.059   5.422   7.853  0.3181 -0.8271 -0.5905
 3066SOL    HW111352  -0.010   5.363   7.823 -1.3678 -0.0348  1.4287
 3066SOL    HW211353   0.077   5.392   7.942  1.4460 -0.0061 -0.5338
 3067SOL     OW11354   4.999   5.832   0.663  0.0335 -0.7231 -0.5438
 3067SOL    HW111355   4.920   5.821   0.715 -0.1862  0.5552 -0.5741
 3067SOL    HW211356   5.063   5.775   0.704 -0.6585 -1.1192  0.0053
 3068SOL     OW11357   4.378   4.420   1.780  0.0228  0.0937  0.0840
 3068SOL    HW111358   4.345   4.337   1.745  1.4494 -0.8990  0.9583
 3068SOL    HW211359   4.372   4.410   1.875  1.6747  0.2931  0.2527
 3069SOL     OW11360   4.044   8.435   0.930 -0.8454 -0.1000  0.5634
 3069SOL    HW111361   3.955   8.418   0.897 -1.1065 -0.1843  1.3077
 3069SOL    HW211362   4.031   8.471   1.017 -0.1510  0.1466  0.5713
 3070SOL     OW11363   8.525   7.584   4.903 -0.1387 -0.1103  0.4188
 3070SOL    HW111364   8.527   7.514   4.837 -0.8328  0.3106 -0.0628
 3070SOL    HW211365   8.542   7.539   4.985  1.9349 -0.4805 -0.1517
 3071SOL     OW11366   0.529   1.002   3.998  0.1092 -0.2640  0.1399
 3071SOL    HW111367   0.543   0.928   4.057  1.7732  0.8067  1.2127
 3071SOL    HW211368   0.435   1.020   4.002 -0.4908 -2.8095 -0.8501
 3072SOL     OW11369   2.449   2.711   6.667  0.3238 -0.3298  0.0746
 3072SOL    HW111370   2.462   2.664   6.749 -0.2202 -0.1448  0.2678
 3072SOL    HW211371   2.485   2.798   6.683  1.7917 -0.8134 -0.4443
 3073SOL     OW11372   3.592   6.717   0.126  0.3619  0.2070 -0.4611
 3073SOL    HW111373   3.522   6.706   0.061 -0.6311  1.7214  0.2882
 3073SOL    HW211374   3.656   6.774   0.082  0.0513  0.6233 -0.3783
 3074SOL     OW11375   8.485   3.837   1.039 -0.5167  0.0273  0.5343
 3074SOL    HW111376   8.392   3.861   1.037 -1.0581 -1.8884 -0.6065
 3074SOL    HW211377   8.502   3.818   1.131 -2.0207 -1.9964  0.4848
 3075SOL     OW11378   7.563   5.271   6.011  0.3919  0.0675  0.5556
 3075SOL    HW111379   7.610   5.295   5.931 -0.0179  0.0853  0.3172
 3075SOL    HW211380   7.470   5.279   5.988  0.2708  1.0842  1.3452
 3076SOL     OW11381   5.343   0.560   0.929  0.1298 -0.2529  0.7894
 3076SOL    HW111382   5.365   0.597   1.014 -0.2377  0.6275  0.5114
 3076SOL    HW211383   5.312   0.634   0.877 -1.8798 -1.1205  0.6381
 3077SOL     OW11384   8.113   0.230   9.305  0.2728 -0.2784 -0.2809
 3077SOL    HW111385   8.028   0.194   9.330  0.0709  0.7134  0.5449
 3077SOL    HW211386   8.096   0.280   9.225 -0.3250  1.3630  0.8145
 3078SOL     OW11387   9.177   0.792   7.883  0.2442  0.1809 -0.2303
 3078SOL    HW111388   9.160   0.705   7.849  1.7933  0.0022 -0.5961
 3078SOL    HW211389   9.145   0.851   7.815  0.3054 -0.1192 -0.5195
 3079SOL     OW11390   7.629   2.626   5.282 -0.3692  0.8778  0.2548
 3079SOL    HW111391   7.651   2.691   5.348  0.7525  0.5639  0.2086
 3079SOL    HW211392   7.637   2.672   5.199  2.1637  0.3101  0.0888
 3080SOL     OW11393   8.525   5.280   7.918 -0.0328 -0.1428 -0.3992
 3080SOL    HW111394   8.442   5.245   7.884 -0.2269  0.9389 -1.0828
 3080SOL    HW211395   8.568   5.204   7.958 -0.7380 -1.0176 -1.2447
 3081SOL     OW11396   2.798   8.919   0.009  0.4157 -0.1541  0.0223
 3081SOL    HW111397   2.865   8.983  -0.017  1.5013 -1.9996 -1.9817
 3081SOL    HW211398   2.730   8.927  -0.058 -0.9678  0.9697  1.4721
 3082SOL     OW11399   1.318   6.011   2.213 -0.3760  0.1781  0.0460
 3082SOL    HW111400   1.233   5.973   2.234 -0.3213 -0.1142 -0.2531
 3082SOL    HW211401   1.382   5.949   2.249 -0.2864  0.0634 -0.3120
 3083SOL     OW11402   7.486   4.253   3.795  0.1414 -0.4864 -0.1249
 3083SOL    HW111403   7.472   4.322   3.859  0.4987 -0.4027 -0.1348
 3083SOL    HW211404   7.419   4.268   3.728  1.1626  0.7777 -0.9104
 3084SOL     OW11405   8.307   9.358   3.152 -0.7024  0.4326 -0.2436
 3084SOL    HW111406   8.315   9.286   3.215 -2.5385  0.6611  0.3305
 3084SOL    HW211407   8.306   9.316   3.066 -1.5626 -0.2259  0.0767
 3085SOL     OW11408   2.728   6.538   7.465  0.1043 -0.1424 -0.3637
 3085SOL    HW111409   2.738   6.518   7.372 -0.4475  0.3736 -0.5477
 3085SOL    HW211410   2.650   6.489   7.492  0.1016 -0.0732 -0.2455
 3086SOL     OW11411   4.427   5.842   1.734 -0.3327  0.0030  0.2794
 3086SOL    HW111412   4.456   5.844   1.825  1.4918  1.2771 -0.2760
 3086SOL    HW211413   4.390   5.754   1.722  0.7211 -0.6886  1.8384
 3087SOL     OW11414   2.042   0.176   8.719  0.2516  0.1727  0.2870
 3087SOL    HW111415   2.039   0.271   8.730 -1.6347  0.2959 -0.8073
 3087SOL    HW211416   2.069   0.143   8.804  1.0849  1.6909  0.6499
 3088SOL     OW11417   4.181   2.799   0.911 -0.0887 -0.2834 -0.2216
 3088SOL    HW111418   4.195   2.722   0.966  0.9163  0.1494  0.1397
 3088SOL    HW211419   4.192   2.874   0.971 -3.8411  0.1961  0.1493
 3089SOL     OW11420   8.919   0.844   6.434  0.2302  0.2809  0.2479
 3089SOL    HW111421   8.982   0.876   6.369  2.7213 -1.2360  1.7295
 3089SOL    HW211422   8.891   0.759   6.400 -1.5521  1.1924 -0.6791
 3090SOL     OW11423   1.239   1.007   7.278 -0.2685 -0.3557  0.3819
 3090SOL    HW111424   1.302   0.965   7.219  0.9515 -0.1950  1.5148
 3090SOL    HW211425   1.220   1.091   7.236  3.3203  1.3728  1.7759
 3091SOL     OW11426   1.081   1.134   0.483 -0.1113 -0.1964 -0.2974
 3091SOL    HW111427   0.996   1.122   0.440  0.2131 -0.2539 -0.9247
 3091SOL    HW211428   1.059   1.168   0.570 -0.7829 -0.3567 -0.4009
 3092SOL     OW11429   8.098   4.218   6.271 -0.6190  0.8334  0.1644
 3092SOL    HW111430   8.003   4.211   6.257 -0.6915  0.1228  0.8795
 3092SOL    HW211431   8.111   4.187   6.361  0.4689 -0.6716 -0.4635
 3093SOL     OW11432   8.905   9.510   1.101  0.1085 -0.3349  0.0645
 3093SOL    HW111433   8.851   9.544   1.030 -0.7808 -0.0511  0.8687
 3093SOL    HW211434   8.870   9.422   1.118  1.6961 -1.3016 -1.2669
 3094SOL     OW11435   6.096   7.877   9.255  0.6898 -0.6051  0.2520
 3094SOL    HW111436   6.119   7.918   9.338 -1.1283 -0.0563  0.5436
 3094SOL    HW211437   6.023   7.929   9.222  0.7268 -1.4178 -1.2041
 3095SOL     OW11438   8.242   7.629   2.414  0.3448 -0.5684  0.3013
 3095SOL    HW111439   8.289   7.584   2.485  1.6748  0.0085 -0.1830
 3095SOL    HW211440   8.181   7.687   2.459  0.6038 -0.8001  0.9648
 3096SOL     OW11441   7.600   7.620   9.153 -0.0978  0.1863  0.3593
 3096SOL    HW111442   7.650   7.633   9.234 -0.0584 -2.2038  0.7899
 3096SOL    HW211443   7.666   7.604   9.086 -0.1972  0.4858  0.1838
 3097SOL     OW11444   1.361   6.174   8.683 -0.5503  0.1067 -0.4886
 3097SOL    HW111445   1.401   6.087   8.677  2.0639  1.2987 -2.5887
 3097SOL    HW211446   1.287   6.171   8.623 -0.5039 -0.6716 -0.5191
 3098SOL     OW11447   1.704   5.032   8.242  0.1405  0.2376  0.3140
 3098SOL    HW111448   1.746   5.010   8.159  0.2063 -0.7416  0.5919
 3098SOL    HW211449   1.738   4.967   8.304  0.2644  1.0975  1.1590
 3099SOL     OW11450   1.009   8.202   0.330 -0.0347  0.0677  0.5891
 3099SOL    HW111451   1.036   8.183   0.420 -0.2307 -0.8223  0.4631
 3099SOL    HW211452   1.065   8.275   0.304 -0.3294  0.6893  1.6063
 3100SOL     OW11453   3.940   4.141   8.797 -0.0385  0.4738 -0.3323
 3100SOL    HW111454   3.881   4.192   8.741  1.0250  0.8117 -1.1805
 3100SOL    HW211455   4.002   4.101   8.736 -1.2727 -2.5293  0.2244
 3101SOL     OW11456   8.438   4.096   6.736  0.1085  0.1456 -0.8146
 3101SOL    HW111457   8.447   4.183   6.696  2.4992 -0.1049 -0.9710
 3101SOL    HW211458   8.527   4.070   6.755 -0.7548 -0.8958  2.3314
 3102SOL     OW11459   1.176   1.971   0.143 -0.4747 -0.2258  0.4103
 3102SOL    HW111460   1.157   2.058   0.107  2.3469  1.1578  1.8986
 3102SOL    HW211461   1.131   1.970   0.227  0.7031  0.4869  1.0826
 3103SOL     OW11462   3.286   6.377   1.756  0.6582  0.2085  0.3761
 3103SOL    HW111463   3.252   6.289   1.745  0.3675  0.4102 -0.3835
 3103SOL    HW211464   3.360   6.383   1.696 -0.4554  1.0598 -0.9786
 3104SOL     OW11465   0.888   3.473   7.227 -0.3809 -0.1355 -0.0040
 3104SOL    HW111466   0.971   3.465   7.179 -0.6409  4.6626 -1.8731
 3104SOL    HW211467   0.912   3.455   7.318  2.4461 -0.1384 -0.6381
 3105SOL     OW11468   2.031   8.386   6.988  0.0997 -0.4562 -0.3886
 3105SOL    HW111469   1.941   8.379   7.018  0.0457 -0.2506 -0.5006
 3105SOL    HW211470   2.062   8.470   7.023  0.1367 -0.3632 -0.6433
 3106SOL     OW11471   7.718   4.195   7.549  0.4268  0.0138 -0.3159
 3106SOL    HW111472   7.770   4.169   7.625  0.6121 -0.0122 -0.4525
 3106SOL    HW211473   7.668   4.270   7.580 -0.3484 -0.6800  0.1845
 3107SOL     OW11474   8.378   6.836   4.430  0.4195  1.0621 -0.4143
 3107SOL    HW111475   8.290   6.822   4.465  0.5640  1.8225  0.2752
 3107SOL    HW211476   8.426   6.757   4.454  0.8035  1.9714  2.0788
 3108SOL     OW11477   8.060   0.068   2.276 -0.0015 -0.3591  0.1679
 3108SOL    HW111478   8.067  -0.015   2.230  0.2074 -0.4683  0.3973
 3108SOL    HW211479   7.967   0.075   2.298 -0.0714 -0.3888 -0.1096
 3109SOL     OW11480   1.382   9.354   1.234  0.1096  0.0572 -0.1491
 3109SOL    HW111481   1.434   9.361   1.154  0.8940  0.1868  0.3652
 3109SOL    HW211482   1.430   9.292   1.288  1.3805  2.4139  1.5781
 3110SOL     OW11483   9.096   8.474   3.738 -0.0639 -0.0271  0.2397
 3110SOL    HW111484   9.144   8.441   3.662  0.2431  3.0473 -1.0380
 3110SOL    HW211485   9.007   8.488   3.707 -0.1286  0.5300  0.6591
 3111SOL     OW11486   5.657   0.818   1.816  0.0488 -0.1437 -0.1996
 3111SOL    HW111487   5.653   0.866   1.733  0.7632 -0.3797 -0.3768
 3111SOL    HW211488   5.733   0.761   1.807  1.0997  0.9525  1.2235
 3112SOL     OW11489   1.540   7.434   7.885 -0.3357 -0.0704  0.1956
 3112SOL    HW111490   1.629   7.407   7.907  0.4062  2.2690  0.3263
 3112SOL    HW211491   1.545   7.467   7.795 -1.1617 -0.2758  0.0599
 3113SOL     OW11492   6.382   0.076   8.510 -0.1746 -0.5225 -0.5897
 3113SOL    HW111493   6.455   0.034   8.462  0.8065  1.2799 -0.7459
 3113SOL    HW211494   6.344   0.004   8.561  1.5016 -1.6077 -0.7535
 3114SOL     OW11495   9.364   7.769   0.584 -0.6213 -0.1445 -0.3019
 3114SOL    HW111496   9.347   7.682   0.550  0.4727 -0.2380 -0.6410
 3114SOL    HW211497   9.394   7.755   0.674  2.0960 -0.3685 -1.1538
 3115SOL     OW11498   8.539   8.544   3.930  0.1432 -0.0354 -0.2161
 3115SOL    HW111499   8.457   8.581   3.964 -0.2799 -0.2584 -0.9599
 3115SOL    HW211500   8.602   8.554   4.001  0.2050  2.6493 -0.5317
 3116SOL     OW11501   2.638   3.378   0.399 -0.2656  0.0857  0.1710
 3116SOL    HW111502   2.628   3.339   0.486  0.6657 -2.3138 -0.6926
 3116SOL    HW211503   2.566   3.339   0.348 -0.2225  0.7115 -0.3689
 3117SOL     OW11504   0.934   1.235   6.985 -0.4994 -0.0378 -0.2787
 3117SOL    HW111505   0.972   1.223   6.898 -1.5337 -2.3053 -0.4892
 3117SOL    HW211506   1.009   1.232   7.044  0.2475  1.7904 -1.0510
 3118SOL     OW11507   5.880   0.636   0.322  0.4330  0.1959  0.3297
 3118SOL    HW111508   5.821   0.604   0.254  0.7684 -0.3156  0.2747
 3118SOL    HW211509   5.835   0.713   0.358 -0.9257 -0.9516  1.2100
 3119SOL     OW11510   8.618   6.375   5.867 -0.4605 -0.1098  0.0720
 3119SOL    HW111511   8.617   6.314   5.794  0.8287 -0.1136  0.0355
 3119SOL    HW211512   8.529   6.371   5.903 -1.1019 -0.1552 -1.4277
 3120SOL     OW11513   1.661   0.453   1.324 -0.1048  0.3308  0.3470
 3120SOL    HW111514   1.669   0.393   1.398  0.8477 -0.6098 -0.4746
 3120SOL    HW211515   1.589   0.417   1.272  0.3286  0.0004 -0.0365
 3121SOL     OW11516   5.228   2.751   0.440  0.4171 -0.6228  0.1164
 3121SOL    HW111517   5.177   2.775   0.518  0.7384 -0.9889  0.4411
 3121SOL    HW211518   5.164   2.749   0.369  0.1603 -0.0514  0.3201
 3122SOL     OW11519   2.361   2.357   6.615 -1.1766  0.0651 -0.0117
 3122SOL    HW111520   2.431   2.407   6.573  0.8914 -0.0953  2.9513
 3122SOL    HW211521   2.325   2.303   6.544  3.9007 -2.2938 -1.2547
 3123SOL     OW11522   7.721   7.081   9.551 -0.3930  0.3989 -0.1303
 3123SOL    HW111523   7.794   7.027   9.520 -0.9853  0.3375 -1.4714
 3123SOL    HW211524   7.645   7.048   9.503 -1.2266  0.7641  0.9065
 3124SOL     OW11525   3.251   7.885   1.081  0.2171  0.2362  0.3108
 3124SOL    HW111526   3.313   7.862   1.012 -0.1234  0.0148  0.0817
 3124SOL    HW211527   3.292   7.961   1.124 -0.8473  2.1899 -1.8861
 3125SOL     OW11528   4.356   1.918   5.099 -0.2384 -0.3379 -0.6278
 3125SOL    HW111529   4.410   1.872   5.035  0.8552 -1.1835  0.8323
 3125SOL    HW211530   4.350   1.858   5.173 -0.4299  1.0828  0.5628
 3126SOL     OW11531   5.114   6.632   8.799  0.3839  0.8687 -0.0985
 3126SOL    HW111532   5.170   6.640   8.876 -1.9879  0.0648  1.8463
 3126SOL    HW211533   5.025   6.640   8.833 -0.7978  0.2854 -2.7547
 3127SOL     OW11534   3.277   7.676   6.137  0.2038  0.0074 -0.1328
 3127SOL    HW111535   3.359   7.679   6.087  0.3302  1.4540  0.1427
 3127SOL    HW211536   3.305   7.660   6.227  0.0733 -0.9459 -0.2478
 3128SOL     OW11537   3.827   4.414   3.322 -0.0419 -0.8032  0.6416
 3128SOL    HW111538   3.889   4.355   3.279 -1.0861 -1.1131 -0.4900
 3128SOL    HW211539   3.881   4.467   3.380  1.2635 -1.1855 -0.1760
 3129SOL     OW11540   5.827   2.823   8.090  0.1568  0.5995  0.1729
 3129SOL    HW111541   5.746   2.861   8.124  0.9952  1.1120  1.6967
 3129SOL    HW211542   5.882   2.810   8.168  0.2145 -3.1461 -0.2940
 3130SOL     OW11543   2.811   4.056   7.344  0.3429  0.2847 -0.2344
 3130SOL    HW111544   2.834   4.058   7.437  0.2419 -0.0720 -0.2027
 3130SOL    HW211545   2.878   4.002   7.303  1.2929  1.7071 -0.6251
 3131SOL     OW11546   4.682   6.134   1.309  0.4862  0.0400  0.1912
 3131SOL    HW111547   4.594   6.140   1.347  0.7092 -0.1350  0.7339
 3131SOL    HW211548   4.731   6.204   1.351  1.0775 -0.9316  1.1713
 3132SOL     OW11549   6.926   2.806   0.052  0.5197  0.5289  0.3191
 3132SOL    HW111550   6.930   2.719   0.091  3.6877  0.6817  0.6504
 3132SOL    HW211551   6.915   2.791  -0.042 -2.5471 -0.0100  0.6864
 3133SOL     OW11552   3.237   1.147   6.698 -0.3332 -0.3955  0.5857
 3133SOL    HW111553   3.288   1.226   6.717 -0.7392 -0.4634  2.0806
 3133SOL    HW211554   3.146   1.172   6.717 -1.2232  0.1934 -3.4293
 3134SOL     OW11555   1.066   0.945   4.487 -0.0037 -0.2602 -0.1246
 3134SOL    HW111556   1.134   0.913   4.428  0.0632  0.1429 -0.2684
 3134SOL    HW211557   0.984   0.919   4.445  0.0485 -1.6713  0.5596
 3135SOL     OW11558   6.616   8.371   1.580  0.6235  0.2615  0.4132
 3135SOL    HW111559   6.694   8.342   1.627  0.5400 -0.4031  0.1488
 3135SOL    HW211560   6.621   8.328   1.495 -0.4754 -0.5165  0.7161
 3136SOL     OW11561   2.003   3.265   6.645 -0.1684 -0.0682 -0.0401
 3136SOL    HW111562   1.938   3.334   6.633 -0.2192  0.1407  1.2250
 3136SOL    HW211563   1.960   3.185   6.616 -0.7178  0.1907  0.0481
 3137SOL     OW11564   2.951   1.288   3.633 -0.3430 -0.4178 -0.2105
 3137SOL    HW111565   3.029   1.235   3.650 -0.3872 -0.3549  0.2016
 3137SOL    HW211566   2.888   1.260   3.700 -1.9611 -2.9644 -2.5486
 3138SOL     OW11567   3.828   8.577   4.179 -0.2336 -0.3959  0.4260
 3138SOL    HW111568   3.910   8.599   4.223  0.0352 -0.0034 -0.2571
 3138SOL    HW211569   3.850   8.504   4.122 -0.3465 -0.2476  0.1927
 3139SOL     OW11570   4.561   5.582   6.086 -0.4444 -0.2681 -0.3251
 3139SOL    HW111571   4.534   5.577   5.994  0.6443 -0.7338 -0.6327
 3139SOL    HW211572   4.642   5.632   6.084 -0.8061  0.3632  0.4829
 3140SOL     OW11573   2.782   1.515   8.467 -0.2407 -0.2136  0.1342
 3140SOL    HW111574   2.729   1.574   8.414  0.7885  0.1875 -0.4700
 3140SOL    HW211575   2.719   1.471   8.524 -1.6142 -1.8269 -2.4553
 3141SOL     OW11576   6.584   7.944   6.462  0.0513  0.8524 -0.1888
 3141SOL    HW111577   6.662   7.899   6.495 -0.9962  0.2694  1.5861
 3141SOL    HW211578   6.606   8.037   6.471  0.1653  0.7045  1.3214
 3142SOL     OW11579   0.920   7.419   8.115 -0.1729  0.5708 -0.2752
 3142SOL    HW111580   0.974   7.403   8.037  2.2906 -0.3263  1.4826
 3142SOL    HW211581   0.876   7.336   8.132 -1.6566  1.1053 -1.3159
 3143SOL     OW11582   9.062   1.857   1.993 -0.0027  0.1142  0.3863
 3143SOL    HW111583   9.041   1.789   2.057 -0.1424 -0.7248 -0.5317
 3143SOL    HW211584   9.144   1.828   1.953 -0.1456  0.3996 -0.1217
 3144SOL     OW11585   9.204   3.084   2.109  0.1312  0.5588  0.1450
 3144SOL    HW111586   9.284   3.125   2.078  2.0050 -0.9850  2.6200
 3144SOL    HW211587   9.144   3.158   2.124  2.2659  2.1669  1.4239
 3145SOL     OW11588   5.141   4.568   0.307 -0.2864 -0.3310  0.2030
 3145SOL    HW111589   5.232   4.554   0.282 -0.2163 -0.4355  0.5041
 3145SOL    HW211590   5.147   4.618   0.389 -0.4843 -0.8357  0.5343
 3146SOL     OW11591   2.879   7.768   5.003  0.5066  0.3019 -0.5440
 3146SOL    HW111592   2.868   7.740   5.094 -1.8173  0.3852 -0.7458
 3146SOL    HW211593   2.974   7.768   4.990  0.8780 -0.3989  1.6502
 3147SOL     OW11594   7.074   1.518   5.121 -0.1155 -0.3465 -0.4829
 3147SOL    HW111595   7.106   1.552   5.038  1.6861 -0.0773  0.2764
 3147SOL    HW211596   7.107   1.428   5.124 -1.9471 -1.0911 -0.9467
 3148SOL     OW11597   1.915   0.613   5.901  0.4043 -0.2221  0.5938
 3148SOL    HW111598   1.833   0.595   5.856  0.7799 -0.2195 -0.1093
 3148SOL    HW211599   1.891   0.670   5.974 -0.2392 -0.3648  0.4944
 3149SOL     OW11600   4.947   0.755   0.669 -0.4037 -0.4371 -0.0531
 3149SOL    HW111601   4.966   0.672   0.626  0.9186 -0.4047  0.4252
 3149SOL    HW211602   4.974   0.742   0.760  0.7871  0.8131 -0.1907
 3150SOL     OW11603   7.106   7.616   3.502  0.0667  0.1492 -0.5927
 3150SOL    HW111604   7.148   7.592   3.419 -0.7256 -0.8292 -0.7343
 3150SOL    HW211605   7.024   7.658   3.476  0.4716  1.1546 -0.3045
 3151SOL     OW11606   0.333   0.688   1.868  0.4532 -0.2380  0.4238
 3151SOL    HW111607   0.418   0.731   1.851  1.6222 -2.6796 -0.3237
 3151SOL    HW211608   0.272   0.731   1.808  2.0148 -0.8929 -1.7734
 3152SOL     OW11609   3.424   2.449   4.700 -0.4730 -0.4965  0.2063
 3152SOL    HW111610   3.405   2.493   4.782 -0.7396 -1.0227  0.4308
 3152SOL    HW211611   3.366   2.490   4.636 -1.2123 -0.9730  0.5526
 3153SOL     OW11612   5.615   3.240   5.098  0.0654 -0.5231 -0.4365
 3153SOL    HW111613   5.675   3.227   5.171 -1.2227 -2.3222  0.3832
 3153SOL    HW211614   5.540   3.184   5.119 -2.3590  2.3424 -0.9295
 3154SOL     OW11615   7.136   3.289   8.691  0.2010 -1.0923 -1.3764
 3154SOL    HW111616   7.063   3.343   8.660  0.6115  1.5731  1.7174
 3154SOL    HW211617   7.104   3.199   8.684 -2.3026 -0.1951 -2.6428
 3155SOL     OW11618   0.147   1.773   7.197 -1.1340 -0.2902  0.2094
 3155SOL    HW111619   0.100   1.690   7.210  0.1870 -0.9572  0.9478
 3155SOL    HW211620   0.200   1.783   7.276  0.5686  0.0067 -0.9126
 3156SOL     OW11621   1.938   7.082   5.999 -0.9281  0.2661 -0.1537
 3156SOL    HW111622   1.933   6.987   6.012  1.3559  0.3750  2.2023
 3156SOL    HW211623   1.851   7.113   6.024 -1.3708 -1.1123  0.1271
 3157SOL     OW11624   8.798   8.073   6.525 -0.0949 -0.0549  0.4031
 3157SOL    HW111625   8.825   7.993   6.478  0.8717 -1.0472  2.5026
 3157SOL    HW211626   8.707   8.057   6.549 -0.4115  0.2051 -0.5693
 3158SOL     OW11627   6.291   0.825   2.685 -0.3383  0.0281 -0.2863
 3158SOL    HW111628   6.224   0.757   2.685  0.1429 -0.4878 -1.9021
 3158SOL    HW211629   6.284   0.866   2.772 -2.8819  0.1505 -0.4747
 3159SOL     OW11630   1.732   3.132   9.585  0.4714  0.6883  0.7128
 3159SOL    HW111631   1.800   3.076   9.549  1.1294  1.6798  0.3618
 3159SOL    HW211632   1.656   3.076   9.593  1.2237 -0.3460  0.7504
 3160SOL     OW11633   4.530   8.501   7.431 -0.0248  0.4518 -0.2317
 3160SOL    HW111634   4.582   8.420   7.429 -1.1890 -0.3768  1.0164
 3160SOL    HW211635   4.504   8.510   7.523 -0.4228  1.9304 -0.4682
 3161SOL     OW11636   4.620   8.877   4.404 -0.9321  0.4617  0.0352
 3161SOL    HW111637   4.638   8.947   4.467 -3.0528  0.1351  1.0890
 3161SOL    HW211638   4.525   8.868   4.404 -0.7369 -2.6672  0.1726
 3162SOL     OW11639   1.016   6.786   4.654  0.0246  0.5134  0.1385
 3162SOL    HW111640   1.106   6.817   4.652 -0.1122  1.1177 -3.2663
 3162SOL    HW211641   0.995   6.769   4.562 -3.0125 -0.6033  0.9252
 3163SOL     OW11642   3.082   0.722   0.735 -0.1596  0.6662 -0.0684
 3163SOL    HW111643   3.105   0.716   0.643 -1.5934 -0.3382 -0.4031
 3163SOL    HW211644   3.034   0.804   0.743  0.7990  1.2357  0.0070
 3164SOL     OW11645   9.194   2.375   8.271  0.3008  0.5145 -0.0584
 3164SOL    HW111646   9.277   2.399   8.230  0.1838 -0.0516 -0.6649
 3164SOL    HW211647   9.213   2.372   8.365  0.5770  1.8467 -0.0568
 3165SOL     OW11648   9.400   4.875   1.240 -0.5575 -0.0374 -0.3275
 3165SOL    HW111649   9.316   4.857   1.198 -0.3009 -3.1550  0.3127
 3165SOL    HW211650   9.466   4.848   1.177 -0.0443  0.7609 -0.1518
 3166SOL     OW11651   7.975   1.941   4.789 -0.7078  0.3585  0.0215
 3166SOL    HW111652   8.033   1.914   4.718  1.1137  1.5763  0.9394
 3166SOL    HW211653   8.014   1.903   4.868 -1.1919  1.1468  0.6616
 3167SOL     OW11654   0.753   4.352   7.273 -0.3227  0.1051 -1.0684
 3167SOL    HW111655   0.782   4.443   7.263  1.2929 -0.2082  0.4050
 3167SOL    HW211656   0.832   4.304   7.298 -1.5744 -1.3150  0.3532
 3168SOL     OW11657   8.717   1.854   8.049 -0.1249  0.0887  0.3554
 3168SOL    HW111658   8.658   1.895   8.111 -1.1912  0.9592 -1.1640
 3168SOL    HW211659   8.665   1.784   8.009 -0.3736  1.1852 -1.3624
 3169SOL     OW11660   4.620   6.614   3.206  0.3813  0.1836 -0.4659
 3169SOL    HW111661   4.714   6.632   3.202  0.2565  0.7876 -0.7584
 3169SOL    HW211662   4.613   6.519   3.206  1.0788  0.0846  1.3217
 3170SOL     OW11663   5.030   4.299   5.876 -0.2936  0.3329  0.2264
 3170SOL    HW111664   5.101   4.357   5.847 -0.6009 -0.1572 -1.5848
 3170SOL    HW211665   5.065   4.257   5.955  1.0263  0.8606 -0.0512
 3171SOL     OW11666   9.486   0.760   3.793 -1.0930  0.4110 -0.3459
 3171SOL    HW111667   9.396   0.742   3.822 -0.6730  1.7374  2.1182
 3171SOL    HW211668   9.476   0.826   3.725 -2.0111  1.5132  0.7854
 3172SOL     OW11669   5.120   9.037   0.814  0.1654  0.0774 -0.1204
 3172SOL    HW111670   5.177   9.001   0.883 -0.3410 -0.2667  0.1261
 3172SOL    HW211671   5.168   9.021   0.733  0.7320  0.4113  0.1448
 3173SOL     OW11672   7.524   5.521   0.235 -0.6416  0.1604  0.6334
 3173SOL    HW111673   7.483   5.454   0.289 -1.1935 -0.7444 -0.8568
 3173SOL    HW211674   7.469   5.526   0.157  0.5459  0.8976 -0.1914
 3174SOL     OW11675   1.882   5.262   7.420 -0.7740  0.3109  0.2275
 3174SOL    HW111676   1.926   5.266   7.334  0.0490 -0.1138  0.6172
 3174SOL    HW211677   1.906   5.344   7.462  2.1012 -1.0543  1.5643
 3175SOL     OW11678   2.003   3.498   7.711  0.0134  0.6809 -0.2697
 3175SOL    HW111679   1.970   3.553   7.640 -0.1118  3.0086  1.4327
 3175SOL    HW211680   1.975   3.545   7.791 -0.5836 -2.2078  1.3505
 3176SOL     OW11681   6.951   7.301   2.676 -0.3261  0.1666  0.3000
 3176SOL    HW111682   6.924   7.350   2.598  0.6447 -0.3379 -0.3865
 3176SOL    HW211683   7.018   7.356   2.716  0.4971 -0.3983 -0.2644
 3177SOL     OW11684   9.543   7.563   7.612  0.1151  0.1366  0.0359
 3177SOL    HW111685   9.635   7.569   7.636  0.0913 -2.6169  1.1497
 3177SOL    HW211686   9.542   7.511   7.532 -0.5192 -1.4288  1.0208
 3178SOL     OW11687   9.430   3.769   1.204 -0.0450 -0.1177  0.3187
 3178SOL    HW111688   9.459   3.821   1.280 -0.7991  1.2970 -0.3179
 3178SOL    HW211689   9.405   3.685   1.241  2.0426 -0.3787  1.2848
 3179SOL     OW11690   5.050   6.702   0.078  0.1217  0.5222 -0.3016
 3179SOL    HW111691   5.082   6.770   0.018 -0.3229  0.9279 -0.0826
 3179SOL    HW211692   5.030   6.628   0.020 -1.4029  1.3048 -0.8181
 3180SOL     OW11693   5.784   4.722   1.995  0.3476 -0.3782 -0.5128
 3180SOL    HW111694   5.730   4.645   2.013  1.3417 -1.6480 -2.5353
 3180SOL    HW211695   5.871   4.698   2.029  0.0642  1.0084  1.3102
 3181SOL     OW11696   8.047   9.057   7.748  0.6485  0.3511 -0.4176
 3181SOL    HW111697   8.106   9.121   7.708  1.1972 -0.4779 -0.9819
 3181SOL    HW211698   8.003   9.016   7.673  0.6248 -0.2251 -0.0891
 3182SOL     OW11699   8.818   1.317   6.130 -0.5112  0.5377 -0.3638
 3182SOL    HW111700   8.774   1.382   6.185 -0.1213 -1.0184  1.9520
 3182SOL    HW211701   8.792   1.233   6.167  1.0831 -0.5406 -1.5631
 3183SOL     OW11702   7.768   2.464   1.088 -0.5298 -0.5711  0.2919
 3183SOL    HW111703   7.812   2.453   1.172  0.0121  0.4878  0.1674
 3183SOL    HW211704   7.684   2.421   1.099  0.7567 -3.2935  0.3142
 3184SOL     OW11705   8.871   7.244   4.710  0.6855 -0.3048 -0.4136
 3184SOL    HW111706   8.847   7.272   4.798 -0.9888 -0.1523 -0.8914
 3184SOL    HW211707   8.860   7.322   4.656  0.9004 -0.6070 -0.9054
 3185SOL     OW11708   5.776   7.987   0.440  0.0389 -0.3883  0.1173
 3185SOL    HW111709   5.778   8.078   0.410  0.8340 -0.3413  0.3012
 3185SOL    HW211710   5.824   7.939   0.373 -0.2532 -0.6508  0.0964
 3186SOL     OW11711   3.780   8.618   5.241 -0.2764 -0.4291 -0.1476
 3186SOL    HW111712   3.781   8.714   5.241 -0.3030 -0.4110 -1.6663
 3186SOL    HW211713   3.821   8.594   5.324 -1.4045  0.8893  0.8438
 3187SOL     OW11714   2.498   4.442   9.240  0.4129  0.3119 -0.4119
 3187SOL    HW111715   2.469   4.491   9.317  0.2875  0.2423 -0.4144
 3187SOL    HW211716   2.446   4.477   9.168  0.5088  0.3560 -0.4601
 3188SOL     OW11717   9.134   7.293   6.268 -0.0896 -0.0172 -0.2490
 3188SOL    HW111718   9.154   7.300   6.175  0.7625  1.0260 -0.0080
 3188SOL    HW211719   9.171   7.372   6.307 -2.0286  0.4690  0.7164
 3189SOL     OW11720   0.615   2.636   1.801  0.3156 -0.4078 -0.1289
 3189SOL    HW111721   0.527   2.626   1.835  0.4835  0.8125  0.7274
 3189SOL    HW211722   0.672   2.630   1.878  0.9039 -0.1988 -0.5372
 3190SOL     OW11723   2.314   1.423   1.078 -0.3837 -0.1756 -0.0407
 3190SOL    HW111724   2.325   1.335   1.113  0.3808  0.0598  0.3472
 3190SOL    HW211725   2.220   1.433   1.064 -0.6953 -0.3944  1.6866
 3191SOL     OW11726   7.501   8.806   9.454 -0.1777 -0.2399 -0.2022
 3191SOL    HW111727   7.519   8.755   9.533 -0.0439 -1.2566 -0.8636
 3191SOL    HW211728   7.587   8.816   9.413 -0.5831 -2.4337 -1.7854
 3192SOL     OW11729   8.688   5.592   8.988  0.1348 -0.1228 -0.3277
 3192SOL    HW111730   8.775   5.621   8.959  0.5682  0.0103  1.0204
 3192SOL    HW211731   8.703   5.505   9.023  0.1884  0.7464  1.9497
 3193SOL     OW11732   6.273   3.434   5.311  0.2297 -0.4496 -0.3875
 3193SOL    HW111733   6.342   3.390   5.361  1.2077 -1.6469 -2.6162
 3193SOL    HW211734   6.321   3.490   5.250 -0.9205  1.0875  0.0593
 3194SOL     OW11735   5.104   1.352   6.627  0.3748 -0.5464 -0.1740
 3194SOL    HW111736   5.134   1.411   6.696 -0.7220  0.2222 -0.3362
 3194SOL    HW211737   5.157   1.375   6.551 -0.6708  0.9247 -0.5094
 3195SOL     OW11738   7.352   6.945   5.464 -0.2273 -0.2282  0.0732
 3195SOL    HW111739   7.350   6.862   5.415 -0.6958  0.6247 -1.4121
 3195SOL    HW211740   7.329   6.920   5.554 -0.5368 -1.6834 -0.3791
 3196SOL     OW11741   5.461   7.020   6.333  0.0547  0.3306  0.2720
 3196SOL    HW111742   5.415   6.959   6.391 -0.2478  0.8786  0.6138
 3196SOL    HW211743   5.537   7.049   6.384 -0.3097  0.9504  0.4668
 3197SOL     OW11744   3.215   4.790   2.928 -0.3893 -0.5997  0.2507
 3197SOL    HW111745   3.284   4.780   2.862  2.1419 -2.5136  2.9172
 3197SOL    HW211746   3.180   4.878   2.913  2.8210  0.5878 -1.1728
 3198SOL     OW11747   7.310   6.677   2.900 -0.4423 -0.4590  0.3361
 3198SOL    HW111748   7.229   6.716   2.933 -0.6003 -0.7255  0.2595
 3198SOL    HW211749   7.282   6.607   2.842 -0.1559 -0.5687  0.3274
 3199SOL     OW11750   5.420   4.560   4.469 -0.0290 -0.0050  0.0572
 3199SOL    HW111751   5.387   4.554   4.379 -0.0769  2.3821 -0.1615
 3199SOL    HW211752   5.344   4.585   4.521  0.4631  1.0737  0.3033
 3200SOL     OW11753   8.238   1.317   7.646 -0.1930 -0.2799  0.0465
 3200SOL    HW111754   8.176   1.269   7.591 -0.1158 -0.3220 -0.0041
 3200SOL    HW211755   8.274   1.251   7.705  2.3857 -1.0400 -2.1666
 3201SOL     OW11756   6.391   3.142   4.763 -0.2602 -0.0608  0.5662
 3201SOL    HW111757   6.405   3.066   4.707 -0.6864 -0.8781  1.5276
 3201SOL    HW211758   6.442   3.123   4.842 -0.1981  0.7547  0.7316
 3202SOL     OW11759   9.423   2.507   4.960 -0.3137  0.3847 -0.3366
 3202SOL    HW111760   9.454   2.561   4.887 -1.7345 -0.9382 -1.9884
 3202SOL    HW211761   9.334   2.537   4.976  0.0396  0.7924  1.0512
 3203SOL     OW11762   2.782   9.041   7.093  0.0121  0.1024 -0.5535
 3203SOL    HW111763   2.797   9.114   7.153 -1.2762 -1.7216  2.2143
 3203SOL    HW211764   2.858   9.041   7.036  0.8091  2.6259  0.3632
 3204SOL     OW11765   5.306   9.094   7.675  0.3086 -0.2000 -0.1088
 3204SOL    HW111766   5.216   9.063   7.667 -0.3762  1.6471 -0.0272
 3204SOL    HW211767   5.358   9.028   7.629 -1.0092 -1.5587  0.2650
 3205SOL     OW11768   0.577   7.631   7.182 -0.1705 -0.0622  0.3777
 3205SOL    HW111769   0.528   7.707   7.213 -0.9805  0.1431 -1.2796
 3205SOL    HW211770   0.538   7.557   7.228  1.0172  0.5375  2.4439
 3206SOL     OW11771   6.382   0.485   0.572 -0.1464 -0.2319 -0.2786
 3206SOL    HW111772   6.401   0.476   0.666  1.2266  0.5285 -0.4707
 3206SOL    HW211773   6.297   0.441   0.561 -0.2716 -0.4370  1.2918
 3207SOL     OW11774   5.965   3.380   1.537  0.5284  0.1569  0.0236
 3207SOL    HW111775   6.022   3.363   1.462 -0.3931 -1.1815 -0.4018
 3207SOL    HW211776   5.881   3.405   1.497 -0.0035 -0.6882  0.5953
 3208SOL     OW11777   6.953   7.899   3.750 -0.0644  0.1042 -0.1684
 3208SOL    HW111778   7.004   7.821   3.771  0.3001 -0.2102 -2.0311
 3208SOL    HW211779   6.862   7.873   3.767  0.1785 -0.1582  0.7976
 3209SOL     OW11780   0.926   6.512   1.601  0.0372  0.6146 -0.1963
 3209SOL    HW111781   0.843   6.489   1.561 -0.7257  1.2620  0.9636
 3209SOL    HW211782   0.938   6.449   1.672  0.4447  0.6524 -0.2255
 3210SOL     OW11783   5.957   8.188   6.927 -0.1059  0.4834  0.3641
 3210SOL    HW111784   5.884   8.138   6.964 -1.0513  0.2405 -1.6735
 3210SOL    HW211785   5.934   8.198   6.834  1.4559  2.2274  0.1094
 3211SOL     OW11786   6.670   7.895   8.819  0.3242 -0.7767 -0.1574
 3211SOL    HW111787   6.591   7.873   8.770  1.1157 -1.2978 -1.2338
 3211SOL    HW211788   6.673   7.830   8.889  0.2886 -1.3459 -0.6752
 3212SOL     OW11789   1.892   4.266   0.815 -0.0701  0.2360 -0.4718
 3212SOL    HW111790   1.848   4.184   0.793  0.3512  0.1106 -0.8647
 3212SOL    HW211791   1.957   4.278   0.745  0.7440  0.2455  0.2633
 3213SOL     OW11792   5.012   4.531   3.617 -0.0633  0.1425  0.0753
 3213SOL    HW111793   4.992   4.551   3.526 -1.4520 -0.1349  0.2912
 3213SOL    HW211794   4.989   4.611   3.664 -0.9948 -0.2906  0.3732
 3214SOL     OW11795   9.228   8.484   4.288  0.1579  0.5692  0.3777
 3214SOL    HW111796   9.221   8.569   4.244  0.6684 -0.1348 -1.1271
 3214SOL    HW211797   9.210   8.420   4.220 -0.1706 -0.5482  1.4801
 3215SOL     OW11798   0.473   8.772   9.633 -0.1802  0.3169  0.5042
 3215SOL    HW111799   0.517   8.787   9.549 -0.4974  0.9047  0.4344
 3215SOL    HW211800   0.387   8.738   9.610 -0.2555  0.4477  0.5932
 3216SOL     OW11801   3.137   2.726   8.928 -0.4081 -0.3745 -1.0052
 3216SOL    HW111802   3.184   2.675   8.862 -0.0577  1.6572 -2.4169
 3216SOL    HW211803   3.164   2.817   8.912 -2.5772  0.5301  0.0326
 3217SOL     OW11804   7.637   2.183   0.946 -0.8449 -0.0063 -0.5274
 3217SOL    HW111805   7.558   2.233   0.963 -1.1345 -0.3141 -0.9381
 3217SOL    HW211806   7.674   2.222   0.867  0.6963  1.6681  0.9194
 3218SOL     OW11807   4.552   7.393   8.250 -0.1080 -0.2305  0.0689
 3218SOL    HW111808   4.479   7.454   8.237  0.2126 -0.0225 -0.8321
 3218SOL    HW211809   4.522   7.311   8.210 -0.2044 -0.4219  0.5239
 3219SOL     OW11810   8.452   5.714   7.544 -0.1035  0.5188  0.2787
 3219SOL    HW111811   8.501   5.775   7.488 -0.0053 -0.7585 -1.0928
 3219SOL    HW211812   8.429   5.642   7.486 -0.5799 -0.5624  1.7510
 3220SOL     OW11813   6.589   3.298   1.779 -0.0548 -0.3555 -0.0699
 3220SOL    HW111814   6.569   3.306   1.686  0.1619 -1.1000 -0.1888
 3220SOL    HW211815   6.674   3.254   1.781  0.5312  0.7626  0.4606
 3221SOL     OW11816   5.673   4.816   9.501  0.1274 -0.1942  0.1396
 3221SOL    HW111817   5.758   4.794   9.539  0.8070  0.8483 -0.7138
 3221SOL    HW211818   5.693   4.846   9.412 -1.0952  0.4214  0.0486
 3222SOL     OW11819   9.627   8.247   3.037 -0.2014  0.0234 -0.1635
 3222SOL    HW111820   9.685   8.247   3.113  1.4309  0.5882 -1.3455
 3222SOL    HW211821   9.650   8.168   2.989 -0.0025  0.5390 -0.9321
 3223SOL     OW11822   2.115   8.636   1.180  0.7287 -0.1935 -0.5454
 3223SOL    HW111823   2.185   8.637   1.115 -0.0642  0.7703 -1.4133
 3223SOL    HW211824   2.094   8.728   1.195  0.8612 -0.3990  1.0570
 3224SOL     OW11825   9.277   7.275   7.091  0.6857 -0.0716 -0.1649
 3224SOL    HW111826   9.343   7.336   7.124  0.3144 -0.5601  1.5257
 3224SOL    HW211827   9.194   7.309   7.123  0.3567 -0.8180 -0.2084
 3225SOL     OW11828   5.675   7.485   8.242  0.7945 -0.0022 -0.3296
 3225SOL    HW111829   5.711   7.528   8.164  2.8749  0.2562  0.7149
 3225SOL    HW211830   5.647   7.557   8.298 -1.0555 -0.1936 -0.9306
 3226SOL     OW11831   2.524   0.960   0.674  0.0068 -0.4939 -0.1912
 3226SOL    HW111832   2.524   1.054   0.654 -0.8006 -0.5775 -0.6105
 3226SOL    HW211833   2.603   0.926   0.632  1.1440  0.2490  1.2429
 3227SOL     OW11834   7.309   2.349   7.455 -0.0869  0.2194 -0.0714
 3227SOL    HW111835   7.334   2.390   7.538 -0.4847  0.1115  0.1051
 3227SOL    HW211836   7.230   2.299   7.476  0.8021 -1.2507 -0.1066
 3228SOL     OW11837   5.192   7.109   5.868  0.4186  0.0412  0.5678
 3228SOL    HW111838   5.156   7.100   5.957  1.2757 -0.9697  0.8297
 3228SOL    HW211839   5.286   7.117   5.881  0.6720 -1.3245 -0.3173
 3229SOL     OW11840   7.348   7.185   9.559 -0.3076 -0.8388  0.3242
 3229SOL    HW111841   7.314   7.142   9.638 -2.9091  1.8907  0.9080
 3229SOL    HW211842   7.423   7.236   9.590  0.2927 -1.7872  0.4586
 3230SOL     OW11843   4.935   9.456   9.124  0.4176  0.2374  0.6482
 3230SOL    HW111844   4.915   9.363   9.118  0.7268  0.1036  1.4811
 3230SOL    HW211845   4.907   9.481   9.212  0.3480  0.9304  0.4390
 3231SOL     OW11846   8.115   5.703   5.379  0.2095 -0.2925  0.4447
 3231SOL    HW111847   8.117   5.796   5.355  0.5054  0.1723  2.0819
 3231SOL    HW211848   8.202   5.671   5.356  0.9183  0.4493  1.9025
 3232SOL     OW11849   1.488   4.990   0.896 -0.3884  0.5395  0.1031
 3232SOL    HW111850   1.534   5.048   0.836  0.2008 -1.1036 -1.0866
 3232SOL    HW211851   1.554   4.929   0.927 -0.9096  0.7240  1.6521
 3233SOL     OW11852   5.303   2.705   3.007 -0.3588  0.2931 -0.1617
 3233SOL    HW111853   5.305   2.688   3.101 -0.8497 -0.3134 -0.2522
 3233SOL    HW211854   5.297   2.801   3.000  0.9015  0.4261  0.3895
 3234SOL     OW11855   2.885   7.095   3.024  0.7054 -0.0846 -0.1659
 3234SOL    HW111856   2.904   7.183   3.056  1.9127  0.1244 -1.3734
 3234SOL    HW211857   2.971   7.056   3.005  0.1352 -0.6931 -1.7462
 3235SOL     OW11858   7.481   6.515   9.615  0.0970 -0.7600 -0.3182
 3235SOL    HW111859   7.572   6.502   9.643 -0.7486 -0.4303  3.0617
 3235SOL    HW211860   7.450   6.427   9.595  0.7742 -1.0516 -0.1223
 3236SOL     OW11861   5.807   8.828   0.403  0.3378 -0.0902 -0.0917
 3236SOL    HW111862   5.796   8.734   0.416 -0.2030 -0.1539 -0.9117
 3236SOL    HW211863   5.901   8.841   0.399  0.4139 -0.8420 -1.5003
 3237SOL     OW11864   0.938   5.090   4.547  0.2760  0.0880 -0.4522
 3237SOL    HW111865   0.895   5.007   4.568 -0.3719  0.6138  0.3656
 3237SOL    HW211866   1.025   5.083   4.585  0.4217 -0.4290 -0.8695
 3238SOL     OW11867   0.744   9.225   6.253 -0.2468  0.1605  0.4087
 3238SOL    HW111868   0.745   9.320   6.266  0.0391  0.3307 -0.7791
 3238SOL    HW211869   0.651   9.202   6.254 -0.3254  0.4795  0.4726
 3239SOL     OW11870   8.918   5.241   0.235  0.7746 -0.4825  0.1243
 3239SOL    HW111871   8.936   5.335   0.243  0.5185 -0.4757  0.6687
 3239SOL    HW211872   8.865   5.220   0.312  1.0255 -1.1201  0.1311
 3240SOL     OW11873   7.471   3.355   2.559 -0.3556  0.3023 -0.0132
 3240SOL    HW111874   7.533   3.408   2.609 -2.0765  1.1462  1.3430
 3240SOL    HW211875   7.495   3.264   2.578 -0.7199  0.6047  2.1405
 3241SOL     OW11876   0.474   8.508   4.775 -0.1120  0.5207 -0.2272
 3241SOL    HW111877   0.477   8.598   4.745  0.5985  0.1697 -1.2797
 3241SOL    HW211878   0.566   8.483   4.784 -0.3042  0.0198  0.4316
 3242SOL     OW11879   2.198   7.019   4.729 -0.2648 -0.2230  0.0100
 3242SOL    HW111880   2.216   7.003   4.822 -0.1309  0.1755  0.0563
 3242SOL    HW211881   2.279   6.994   4.685 -0.0694  0.2746  0.0781
 3243SOL     OW11882   6.722   2.611   8.758 -0.2878 -0.5177  0.5818
 3243SOL    HW111883   6.676   2.572   8.832 -0.6987  0.4858  0.8730
 3243SOL    HW211884   6.697   2.703   8.760  1.0544 -0.1204  0.2277
 3244SOL     OW11885   5.800   8.507   6.234 -0.0509  0.1765 -0.4748
 3244SOL    HW111886   5.790   8.435   6.172 -1.8182 -0.9759  1.0440
 3244SOL    HW211887   5.728   8.567   6.212 -0.7226 -0.2688  0.4656
 3245SOL     OW11888   6.184   6.251   0.786  0.1525 -0.1387 -0.1501
 3245SOL    HW111889   6.181   6.309   0.863  1.9641 -0.7361  0.4075
 3245SOL    HW211890   6.093   6.221   0.776 -0.1523  0.0220  1.7021
 3246SOL     OW11891   0.241   5.294   3.607  0.0879  0.1391 -0.0881
 3246SOL    HW111892   0.210   5.308   3.697  1.5481  1.2233  0.2796
 3246SOL    HW211893   0.241   5.199   3.596  2.4848 -0.2220  2.0737
 3247SOL     OW11894   8.662   5.009   3.582 -0.0144  0.0111 -0.3266
 3247SOL    HW111895   8.602   4.945   3.546  0.9219 -1.9042  1.3078
 3247SOL    HW211896   8.727   5.023   3.513 -0.2129 -0.8529 -0.6957
 3248SOL     OW11897   5.497   3.732   3.566 -0.4983 -0.8952  0.5520
 3248SOL    HW111898   5.560   3.716   3.496 -1.1145 -2.3556  0.2988
 3248SOL    HW211899   5.527   3.677   3.639 -0.1233  0.2634  1.3155
 3249SOL     OW11900   9.543   3.353   8.233 -0.5677  0.0649 -0.2616
 3249SOL    HW111901   9.451   3.358   8.261 -0.7263  0.3403 -0.8130
 3249SOL    HW211902   9.568   3.262   8.250 -0.4347  0.3876  1.4262
 3250SOL     OW11903   8.428   3.308   1.328  0.2190  0.6304 -0.3529
 3250SOL    HW111904   8.465   3.225   1.358  2.9274  1.9700  0.3898
 3250SOL    HW211905   8.340   3.286   1.299 -0.4525 -1.9207  2.9074
 3251SOL     OW11906   1.911   3.084   8.795  0.4018 -0.2249  0.1292
 3251SOL    HW111907   1.902   3.009   8.736 -0.5130 -0.5325  0.6340
 3251SOL    HW211908   1.824   3.094   8.834  0.9226  0.1163  1.2472
 3252SOL     OW11909   5.407   2.797   2.647  0.4474 -0.3167 -0.2189
 3252SOL    HW111910   5.494   2.804   2.686  0.5137  0.3069 -0.4524
 3252SOL    HW211911   5.375   2.711   2.673  0.7389 -0.1590  0.6850
 3253SOL     OW11912   4.427   4.049   7.929 -0.0734  0.2025  0.2583
 3253SOL    HW111913   4.450   3.972   7.981  0.5635 -0.3390 -0.7801
 3253SOL    HW211914   4.458   4.123   7.980  0.7673 -0.3278  0.5367
 3254SOL     OW11915   5.537   2.313   8.509  0.4884  0.0773 -0.0369
 3254SOL    HW111916   5.621   2.326   8.552  0.3812  0.1227  0.1603
 3254SOL    HW211917   5.477   2.372   8.555  0.2425 -0.3031  0.1376
 3255SOL     OW11918   5.525   3.744   5.149  0.2193 -0.0080 -0.1661
 3255SOL    HW111919   5.561   3.807   5.211  0.5040 -0.3431  0.0152
 3255SOL    HW211920   5.506   3.667   5.203 -1.6097  0.4477 -0.0665
 3256SOL     OW11921   7.664   5.278   4.602 -0.2210  0.5792  0.2583
 3256SOL    HW111922   7.635   5.329   4.527 -0.9497 -0.1059  0.0587
 3256SOL    HW211923   7.595   5.291   4.667 -0.5901 -0.4007  0.0800
 3257SOL     OW11924   1.485   0.616   8.206 -0.0207 -0.4337 -0.1261
 3257SOL    HW111925   1.447   0.670   8.275 -1.0078  0.1179 -1.0777
 3257SOL    HW211926   1.432   0.536   8.206  0.1711 -0.5622 -0.0497
 3258SOL     OW11927   9.170   7.938   7.011 -0.1157 -0.3496  0.1141
 3258SOL    HW111928   9.219   7.882   6.951 -1.8360 -1.3697 -0.4293
 3258SOL    HW211929   9.144   7.881   7.083  0.5607  0.4787  1.0393
 3259SOL     OW11930   8.723   2.323   8.218  0.2545 -0.5514 -0.1739
 3259SOL    HW111931   8.796   2.266   8.241  0.2652  0.1027  1.5815
 3259SOL    HW211932   8.755   2.411   8.236 -0.3646 -0.1109 -1.1511
 3260SOL     OW11933   5.931   3.582   2.434 -0.0685  0.1464  0.1720
 3260SOL    HW111934   5.854   3.625   2.471  0.1738  0.9227 -0.2010
 3260SOL    HW211935   5.912   3.488   2.441 -0.8639  0.3225  0.4692
 3261SOL     OW11936   0.176   8.460   6.909  0.4492 -0.3652  0.4787
 3261SOL    HW111937   0.141   8.519   6.975 -0.1724  0.6754 -0.7459
 3261SOL    HW211938   0.255   8.503   6.877 -1.2017  1.0799 -2.0498
 3262SOL     OW11939   0.512   6.334   1.767  0.3470 -0.0574  0.0140
 3262SOL    HW111940   0.564   6.281   1.705  1.8069  1.4870 -0.1638
 3262SOL    HW211941   0.494   6.415   1.719 -0.3911  0.2904  0.8677
 3263SOL     OW11942   4.076   5.807   2.213 -0.0176 -0.7929 -0.7332
 3263SOL    HW111943   4.045   5.894   2.238  0.4498  0.1972 -3.2289
 3263SOL    HW211944   4.074   5.756   2.294 -0.4869  1.4714  0.7781
 3264SOL     OW11945   2.194   4.408   4.128  0.0851 -0.4239  0.1369
 3264SOL    HW111946   2.223   4.319   4.148  1.0861 -0.0264  0.4865
 3264SOL    HW211947   2.204   4.457   4.209 -0.2489  0.0743 -0.1103
 3265SOL     OW11948   4.172   8.249   4.989 -0.0330 -0.0589 -0.0557
 3265SOL    HW111949   4.111   8.317   4.961 -0.0627  0.4023  1.0843
 3265SOL    HW211950   4.183   8.264   5.083  1.0314 -0.7756 -0.0523
 3266SOL     OW11951   8.346   3.793   7.405 -0.1939  0.3476 -0.0049
 3266SOL    HW111952   8.386   3.878   7.420 -2.1082  0.8218  3.3165
 3266SOL    HW211953   8.420   3.731   7.409  1.0335  1.6745 -1.1190
 3267SOL     OW11954   7.693   7.855   6.940 -0.1157  0.2301  0.0672
 3267SOL    HW111955   7.671   7.843   6.848  1.6239 -0.4733 -0.2989
 3267SOL    HW211956   7.781   7.818   6.949 -0.7819 -1.0285  2.3082
 3268SOL     OW11957   7.085   6.890   2.531 -0.2591 -0.5890 -0.0314
 3268SOL    HW111958   7.156   6.848   2.580  0.3391  1.4230  0.8980
 3268SOL    HW211959   7.041   6.945   2.595 -1.8676 -0.7892 -0.9066
 3269SOL     OW11960   5.931   4.300   7.760  0.0687  1.0945  0.0373
 3269SOL    HW111961   5.935   4.350   7.679  0.4282 -2.3191 -2.2654
 3269SOL    HW211962   6.004   4.239   7.755 -1.0932 -0.5989  1.9019
 3270SOL     OW11963   7.608   7.127   8.126 -0.0009  0.0884  0.2934
 3270SOL    HW111964   7.658   7.114   8.206  0.0198 -0.2216  0.2292
 3270SOL    HW211965   7.599   7.222   8.119 -1.4586  0.0897  1.5728
 3271SOL     OW11966   6.928   5.760   7.861  0.0785 -0.1982 -0.3259
 3271SOL    HW111967   6.863   5.768   7.931 -0.3719 -0.8580 -0.6619
 3271SOL    HW211968   6.896   5.689   7.806  0.0524  0.7454 -1.5980
 3272SOL     OW11969   6.261   5.752   4.293 -0.3048 -1.0805  0.4693
 3272SOL    HW111970   6.176   5.797   4.299 -0.2637 -1.1079  1.5224
 3272SOL    HW211971   6.304   5.792   4.217 -0.8156 -0.2866  0.5818
 3273SOL     OW11972   8.110   0.368   5.826 -0.2528 -0.6054  0.1494
 3273SOL    HW111973   8.181   0.331   5.773 -0.8452  0.8150 -1.7698
 3273SOL    HW211974   8.056   0.292   5.850 -0.4024 -1.2769 -2.0422
 3274SOL     OW11975   8.256   4.405   1.872 -0.4903 -0.5745 -0.3891
 3274SOL    HW111976   8.220   4.331   1.922 -1.6149  0.9811  1.2166
 3274SOL    HW211977   8.348   4.382   1.859  0.0922 -0.7953  3.1096
 3275SOL     OW11978   1.283   1.179   5.280  0.1074 -0.5208  0.3347
 3275SOL    HW111979   1.195   1.206   5.255  0.3035 -1.1187 -1.1324
 3275SOL    HW211980   1.321   1.144   5.199  1.5639 -0.6086  1.0243
 3276SOL     OW11981   3.179   4.471   3.777  0.5549 -0.2894  0.0571
 3276SOL    HW111982   3.259   4.521   3.796  0.4743  0.3311 -1.1183
 3276SOL    HW211983   3.109   4.525   3.812  0.5579 -0.1666 -0.1235
 3277SOL     OW11984   4.206   8.021   8.493 -0.2084 -0.6787  0.2248
 3277SOL    HW111985   4.152   7.990   8.566 -1.7250  0.3792 -0.4007
 3277SOL    HW211986   4.241   7.941   8.453 -0.3960 -1.3280  1.3326
 3278SOL     OW11987   1.584   0.151   7.768  0.4024  0.5596 -0.7705
 3278SOL    HW111988   1.612   0.229   7.815  1.1551 -0.3849  0.3989
 3278SOL    HW211989   1.493   0.137   7.796  1.3572 -0.9773  1.8661
 3279SOL     OW11990   6.459   0.984   6.044 -0.3634  0.3609 -0.6934
 3279SOL    HW111991   6.413   0.942   6.116  1.1325  0.6857  0.4915
 3279SOL    HW211992   6.413   1.067   6.030  0.8556  1.5156  1.6614
 3280SOL     OW11993   3.588   2.212   8.962  0.8536 -0.6615 -0.3118
 3280SOL    HW111994   3.563   2.140   9.019 -0.6328 -1.3329 -1.7329
 3280SOL    HW211995   3.558   2.291   9.009 -0.9812 -1.2419 -0.4154
 3281SOL     OW11996   3.425   3.286   4.043 -0.1103 -0.0431  0.5932
 3281SOL    HW111997   3.347   3.231   4.048  0.4063 -0.8564 -0.0698
 3281SOL    HW211998   3.457   3.290   4.133 -0.3183 -0.5936  0.6946
 3282SOL     OW11999   3.321   0.068   6.187 -0.1059 -0.3852 -0.6289
 3282SOL    HW112000   3.366   0.074   6.271 -1.8456 -0.1850  0.3370
 3282SOL    HW212001   3.378   0.114   6.125  0.8521  0.1136  0.5929
 3283SOL     OW12002   4.756   0.719   1.588  0.2120 -0.0280  0.0054
 3283SOL    HW112003   4.662   0.734   1.594  0.6547  4.0965 -0.3337
 3283SOL    HW212004   4.789   0.740   1.676  0.8865 -1.0483  0.0163
 3284SOL     OW12005   8.795   4.014   7.413 -0.1991  0.1651  0.5348
 3284SOL    HW112006   8.754   4.057   7.488 -2.4047 -0.7857 -0.0544
 3284SOL    HW212007   8.777   4.071   7.339 -0.5421 -0.2975  0.2575
 3285SOL     OW12008   1.879   7.606   8.517 -0.3347 -0.0211  0.0148
 3285SOL    HW112009   1.794   7.572   8.491 -0.2655 -0.6980  0.6592
 3285SOL    HW212010   1.859   7.677   8.577 -0.4390 -0.5540  0.6148
 3286SOL     OW12011   4.065   9.006   0.594 -0.3228 -0.1697 -0.4590
 3286SOL    HW112012   4.044   8.998   0.687 -0.3197 -0.6030 -0.4928
 3286SOL    HW212013   4.110   9.090   0.586 -0.0358 -0.2820 -0.0149
 3287SOL     OW12014   8.403   5.177   3.933  0.2598 -0.1504 -0.7234
 3287SOL    HW112015   8.379   5.180   3.841  2.2678  2.4113 -1.2895
 3287SOL    HW212016   8.480   5.121   3.937  0.1002 -0.3628 -0.5618
 3288SOL     OW12017   3.524   4.025   0.439 -0.2337 -0.4049  0.1807
 3288SOL    HW112018   3.515   4.110   0.397 -0.3227 -0.2934  0.4251
 3288SOL    HW212019   3.555   3.967   0.369  1.3249  0.1565  0.3526
 3289SOL     OW12020   7.144   4.988   2.306  0.3308 -0.1643  0.7496
 3289SOL    HW112021   7.215   4.980   2.370 -0.3365 -0.2222  1.4859
 3289SOL    HW212022   7.179   5.047   2.239  0.1265  2.0110  2.4473
 3290SOL     OW12023   6.186   4.893   4.838  0.5054  0.1022  0.6374
 3290SOL    HW112024   6.191   4.863   4.747 -1.4164  0.6434  0.2948
 3290SOL    HW212025   6.238   4.973   4.840  0.9738 -0.1881  0.1356
 3291SOL     OW12026   4.470   1.902   5.796 -0.5068  0.2940 -0.1268
 3291SOL    HW112027   4.396   1.841   5.791 -0.6210  0.1481  2.2624
 3291SOL    HW212028   4.543   1.852   5.760 -0.8549 -0.8396  0.6678
 3292SOL     OW12029   8.770   5.206   4.071 -0.0485 -0.0896  0.1274
 3292SOL    HW112030   8.849   5.222   4.123 -0.5779  1.1102  0.6095
 3292SOL    HW212031   8.766   5.280   4.010  1.2665 -2.1004 -2.6159
 3293SOL     OW12032   2.264   2.124   4.691 -0.1379  0.2481  0.0218
 3293SOL    HW112033   2.181   2.102   4.647 -1.1862 -1.2306  2.5229
 3293SOL    HW212034   2.251   2.213   4.723 -0.4303  0.3275 -0.3026
 3294SOL     OW12035   3.751   5.096   8.402 -0.0781 -0.6269 -0.2554
 3294SOL    HW112036   3.725   5.182   8.368  0.6806 -0.6226 -0.8539
 3294SOL    HW212037   3.708   5.090   8.487 -1.4620 -0.3498 -0.9107
 3295SOL     OW12038   3.294   4.035   1.211 -0.6700 -0.4597  0.1545
 3295SOL    HW112039   3.374   3.987   1.191  0.1747  0.7859  0.4026
 3295SOL    HW212040   3.273   4.083   1.130  0.2903  1.1809  0.8321
 3296SOL     OW12041   6.440   2.658   4.106 -0.3122  0.3467  0.2971
 3296SOL    HW112042   6.354   2.676   4.144 -0.2866  0.5031  0.2819
 3296SOL    HW212043   6.502   2.671   4.178 -0.1158  2.1032 -0.1348
 3297SOL     OW12044   0.584   3.222   5.659 -0.3864 -0.1855  0.2504
 3297SOL    HW112045   0.541   3.152   5.709 -0.0260  0.1660  1.0701
 3297SOL    HW212046   0.677   3.210   5.678 -0.2827  0.2251  0.0021
 3298SOL     OW12047   0.003   6.154   8.332 -0.7542 -0.0678  0.2514
 3298SOL    HW112048  -0.001   6.060   8.352 -2.4066 -0.3503 -1.1634
 3298SOL    HW212049  -0.087   6.179   8.315 -0.2091  1.5244 -0.5436
 3299SOL     OW12050   3.236   2.067   1.276 -0.0411 -0.6344 -0.2966
 3299SOL    HW112051   3.265   2.116   1.353  0.9266  1.2997 -1.8008
 3299SOL    HW212052   3.312   2.013   1.252 -0.6457 -1.9129  0.5749
 3300SOL     OW12053   4.515   9.307   9.165  0.2436  0.3159  0.2052
 3300SOL    HW112054   4.519   9.214   9.188  0.5457  0.5964  1.3627
 3300SOL    HW212055   4.504   9.352   9.249 -0.1435  1.3165 -0.3589
 3301SOL     OW12056   7.836   8.493   2.069 -0.1658 -0.3134  0.8919
 3301SOL    HW112057   7.890   8.530   1.999 -1.0927 -0.7611 -0.0768
 3301SOL    HW212058   7.826   8.401   2.045  1.1672 -0.9854  2.6809
 3302SOL     OW12059   5.553   8.018   1.477 -0.2546  0.3307 -0.1802
 3302SOL    HW112060   5.587   8.060   1.556 -0.4305 -0.7010  0.4635
 3302SOL    HW212061   5.568   7.924   1.491 -2.1144 -0.0467 -0.4852
 3303SOL     OW12062   9.472   2.270   0.004 -0.2900 -0.1107 -0.1939
 3303SOL    HW112063   9.473   2.240  -0.087 -1.9750  2.5651 -1.2099
 3303SOL    HW212064   9.400   2.221   0.044  0.6295 -1.4987 -0.1708
 3304SOL     OW12065   4.783   6.087   6.457 -0.6613  0.7432  0.6320
 3304SOL    HW112066   4.840   6.046   6.521 -1.6346 -0.2895  0.8694
 3304SOL    HW212067   4.804   6.181   6.463  2.7355  0.2197 -1.0635
 3305SOL     OW12068   6.597   4.513   2.862 -0.1685 -0.1824 -0.0346
 3305SOL    HW112069   6.652   4.546   2.933 -0.0737  0.4394 -0.3830
 3305SOL    HW212070   6.649   4.443   2.822  0.3562  0.3570 -0.3170
 3306SOL     OW12071   2.672   1.288   0.205 -0.2319  0.4537  0.1866
 3306SOL    HW112072   2.655   1.305   0.298 -0.6086  0.1978  0.1634
 3306SOL    HW212073   2.654   1.372   0.162 -4.5977 -0.4881 -0.2846
 3307SOL     OW12074   0.564   1.338   0.365 -0.5457  0.0401  0.2099
 3307SOL    HW112075   0.474   1.361   0.388 -0.0331  1.8729  0.5850
 3307SOL    HW212076   0.569   1.244   0.380 -1.6170  0.3151  2.9963
 3308SOL     OW12077   4.583   3.510   6.669  0.5229  0.0960  0.2333
 3308SOL    HW112078   4.598   3.416   6.681 -0.0313 -0.0569 -0.1937
 3308SOL    HW212079   4.494   3.515   6.635  1.1903  0.6442 -1.5569
 3309SOL     OW12080   5.784   1.950   7.462  0.2503 -0.4227 -0.1388
 3309SOL    HW112081   5.814   2.034   7.497  1.8682 -0.8060 -0.5293
 3309SOL    HW212082   5.759   1.900   7.540  0.3267  0.0211  0.1788
 3310SOL     OW12083   7.870   7.718   4.830  0.8072  0.2556 -0.2096
 3310SOL    HW112084   7.904   7.750   4.914  0.3714 -0.5513  0.2886
 3310SOL    HW212085   7.944   7.728   4.769  1.5544 -0.3309  0.5706
 3311SOL     OW12086   3.508   6.347   5.340 -0.2324 -0.1731  0.0004
 3311SOL    HW112087   3.413   6.343   5.342 -0.2266 -1.7162 -0.9430
 3311SOL    HW212088   3.535   6.312   5.425 -0.4522  3.8072  1.9344
 3312SOL     OW12089   1.365   4.335   5.744  0.2760 -0.2431 -0.0966
 3312SOL    HW112090   1.322   4.365   5.664  0.0988 -0.2761 -0.0148
 3312SOL    HW212091   1.379   4.415   5.794  1.3100 -0.0926 -0.6006
 3313SOL     OW12092   6.619   7.972   7.764 -0.1021 -0.5379 -0.1234
 3313SOL    HW112093   6.569   7.976   7.682  0.4090 -1.5141 -0.5008
 3313SOL    HW212094   6.579   8.038   7.820 -2.6439 -2.0963  0.0545
 3314SOL     OW12095   9.290   7.508   2.428 -0.2324  0.5299 -0.0580
 3314SOL    HW112096   9.326   7.575   2.370  0.1533  0.4759  0.1142
 3314SOL    HW212097   9.233   7.455   2.372 -0.0171  0.5979 -0.3412
 3315SOL     OW12098   8.680   2.050   2.113 -0.2933 -0.3588  0.3317
 3315SOL    HW112099   8.740   2.029   2.042 -2.1832 -0.8424 -1.2148
 3315SOL    HW212100   8.688   1.977   2.174  0.3094 -0.6580 -0.1006
 3316SOL     OW12101   3.281   6.728   7.667  0.0938 -0.1689 -0.0650
 3316SOL    HW112102   3.260   6.787   7.596 -1.2014  0.3834  0.7438
 3316SOL    HW212103   3.287   6.784   7.745 -0.8163 -1.0312  0.6574
 3317SOL     OW12104   8.174   3.993   7.757  0.5063  0.3069 -0.3228
 3317SOL    HW112105   8.184   4.065   7.695 -0.9513  0.4639 -0.3986
 3317SOL    HW212106   8.157   4.034   7.841 -0.1869  0.0711 -0.3380
 3318SOL     OW12107   6.830   6.783   9.467 -0.4892 -0.1261  0.2469
 3318SOL    HW112108   6.888   6.716   9.430  0.5042  0.4415  0.7411
 3318SOL    HW212109   6.882   6.824   9.537 -1.8309 -0.2649  1.3760
 3319SOL     OW12110   9.431   3.423   1.595 -0.3600 -0.1406  0.0224
 3319SOL    HW112111   9.364   3.404   1.660 -0.6252 -0.5650 -0.3716
 3319SOL    HW212112   9.424   3.518   1.580 -0.0104  0.0293  0.9190
 3320SOL     OW12113   5.341   8.049   4.651 -0.4366  0.4565  0.6119
 3320SOL    HW112114   5.385   8.097   4.582 -3.1674  2.9048  0.3649
 3320SOL    HW212115   5.386   8.075   4.732  2.0593 -1.5621 -0.0282
 3321SOL     OW12116   4.541   8.207   2.706 -0.3987  1.3859  0.2203
 3321SOL    HW112117   4.553   8.157   2.787  0.7842  3.2474  1.2680
 3321SOL    HW212118   4.466   8.263   2.723 -0.9700  0.8517 -0.4925
 3322SOL     OW12119   0.078   8.245   8.035  0.0431 -0.0718  0.1494
 3322SOL    HW112120   0.033   8.194   7.968  0.5060 -0.3063  0.0191
 3322SOL    HW212121   0.169   8.249   8.006 -0.3051  2.4926 -0.8832
 3323SOL     OW12122   6.254   0.870   7.807 -0.4125 -0.1540  0.1064
 3323SOL    HW112123   6.208   0.872   7.891  0.6464 -0.2620  0.7047
 3323SOL    HW212124   6.186   0.852   7.743 -1.4261  1.0587  0.8043
 3324SOL     OW12125   9.186   7.786   8.966  0.2980 -0.3136 -0.4843
 3324SOL    HW112126   9.272   7.789   9.008  0.0692  1.7488 -0.0571
 3324SOL    HW212127   9.201   7.817   8.876 -0.0435  0.5432 -0.2614
 3325SOL     OW12128   0.439   6.807   0.287  0.2029  0.0573  0.0384
 3325SOL    HW112129   0.460   6.804   0.194  1.4311  0.8121  0.2667
 3325SOL    HW212130   0.524   6.799   0.331 -0.1753  1.2578  1.0563
 3326SOL     OW12131   9.525   1.941   3.025  0.5496 -0.7577  0.1104
 3326SOL    HW112132   9.491   2.029   3.018 -0.1851 -0.9836  0.6843
 3326SOL    HW212133   9.553   1.918   2.937 -1.8827 -0.9914 -0.6766
 3327SOL     OW12134   8.891   5.093   8.181  0.0544  0.5779  0.7110
 3327SOL    HW112135   8.923   5.014   8.138 -0.5889 -0.1735  1.5779
 3327SOL    HW212136   8.888   5.159   8.111  0.4276 -0.2054 -0.0585
 3328SOL     OW12137   4.954   2.468   9.157 -0.2235  0.2116  0.5317
 3328SOL    HW112138   4.899   2.541   9.185  0.1048  0.4726  0.5055
 3328SOL    HW212139   5.025   2.509   9.107  0.7477  0.0002  1.7046
 3329SOL     OW12140   4.724   8.809   3.790  0.0570 -0.1582  0.4972
 3329SOL    HW112141   4.754   8.824   3.880  0.3996  2.3009  0.0489
 3329SOL    HW212142   4.638   8.770   3.799  0.5193 -0.9292  1.8680
 3330SOL     OW12143   4.061   7.143   8.781 -0.2747 -1.2784 -0.0336
 3330SOL    HW112144   4.101   7.057   8.768 -1.2349 -1.4195 -2.5319
 3330SOL    HW212145   3.990   7.147   8.718 -1.6911  0.5319  1.5390
 3331SOL     OW12146   3.974   3.291   7.249 -0.2053  0.0353  0.2695
 3331SOL    HW112147   3.910   3.307   7.319 -0.7788  0.5670 -0.3500
 3331SOL    HW212148   4.036   3.229   7.286 -0.1656  0.7430  1.4459
 3332SOL     OW12149   8.863   7.763   0.018 -0.4618 -0.2993 -0.3063
 3332SOL    HW112150   8.867   7.858   0.031 -0.0633 -0.3599  0.0218
 3332SOL    HW212151   8.829   7.753  -0.071  0.5464  0.1661 -0.7660
 3333SOL     OW12152   2.172   6.604   3.295 -0.3146 -0.1720  0.3111
 3333SOL    HW112153   2.167   6.509   3.306  1.8449 -0.2498  1.1706
 3333SOL    HW212154   2.129   6.640   3.373 -2.9377 -0.3281 -0.9513
 3334SOL     OW12155   7.421   4.052   0.888 -0.2181  0.2474 -0.1785
 3334SOL    HW112156   7.379   4.134   0.913 -0.9388 -0.0606 -0.3578
 3334SOL    HW212157   7.477   4.030   0.963 -2.5207 -0.7902  1.3383
 3335SOL     OW12158   9.559   4.116   2.630 -0.1637 -0.1338  0.4764
 3335SOL    HW112159   9.551   4.020   2.629  3.1705 -0.5702  1.3006
 3335SOL    HW212160   9.642   4.132   2.586 -1.2639  2.5490 -0.7917
 3336SOL     OW12161   1.668   8.715   4.123 -0.3834  0.1753  0.0240
 3336SOL    HW112162   1.619   8.654   4.068  0.0894  0.8838 -1.2242
 3336SOL    HW212163   1.622   8.799   4.114 -0.1259  0.3734  0.4708
 3337SOL     OW12164   1.006   3.696   8.084  0.0617 -0.5731 -0.5359
 3337SOL    HW112165   1.015   3.601   8.084  3.0841 -0.3834 -0.6180
 3337SOL    HW212166   1.091   3.728   8.055 -0.6666  2.1767  0.0882
 3338SOL     OW12167   4.549   7.299   9.438 -0.0578 -0.4496 -0.1877
 3338SOL    HW112168   4.514   7.227   9.491  0.3703 -0.4038  0.1614
 3338SOL    HW212169   4.625   7.330   9.487  0.7484 -0.8367 -1.1615
 3339SOL     OW12170   6.638   4.326   4.078 -0.0862  0.1797 -0.5016
 3339SOL    HW112171   6.635   4.392   4.009 -0.6041  1.4332  0.6660
 3339SOL    HW212172   6.726   4.335   4.116  0.6886 -1.4218 -1.8095
 3340SOL     OW12173   8.029   3.579   3.464 -0.1654 -0.0019  0.3115
 3340SOL    HW112174   8.064   3.512   3.524  0.1871  0.4578  0.6198
 3340SOL    HW212175   7.959   3.621   3.514 -0.7340 -0.4874 -0.0722
 3341SOL     OW12176   7.187   4.606   8.614  0.6132  0.5873 -0.2825
 3341SOL    HW112177   7.259   4.582   8.556  1.6804 -1.0834  1.6065
 3341SOL    HW212178   7.108   4.589   8.562  1.5135 -0.6329 -1.3371
 3342SOL     OW12179   0.333   5.436   9.110  0.3734 -0.4906  0.3730
 3342SOL    HW112180   0.332   5.376   9.185 -1.1082 -0.1991  0.6185
 3342SOL    HW212181   0.407   5.494   9.127 -0.4015  0.0773  2.0675
 3343SOL     OW12182   7.941   6.554   5.776  0.4046 -0.6964 -0.1207
 3343SOL    HW112183   7.949   6.626   5.839  1.7261 -0.8222 -0.1113
 3343SOL    HW212184   8.007   6.491   5.804  0.2103 -1.2851 -0.9556
 3344SOL     OW12185   9.186   5.520   7.991  0.5840 -0.1065  0.3478
 3344SOL    HW112186   9.195   5.510   7.896 -1.7103  0.2504  0.0407
 3344SOL    HW212187   9.183   5.615   8.005  0.2604 -0.1719  0.7169
 3345SOL     OW12188   4.517   7.021   6.443  0.6297  0.3132 -0.1263
 3345SOL    HW112189   4.527   6.983   6.355 -1.9121  0.6599 -0.6376
 3345SOL    HW212190   4.597   6.995   6.489  1.6061 -0.7016 -2.2282
 3346SOL     OW12191   4.194   0.133   2.328 -0.7717 -0.4405  0.6700
 3346SOL    HW112192   4.225   0.084   2.404 -0.5990 -0.2452  0.7257
 3346SOL    HW212193   4.268   0.189   2.303 -1.1632  0.2092  0.9548
 3347SOL     OW12194   8.445   8.646   6.219  0.3081  0.4541 -0.1697
 3347SOL    HW112195   8.442   8.567   6.165  2.2139 -0.1522  0.5267
 3347SOL    HW212196   8.446   8.718   6.156 -0.5707 -0.1098 -0.8394
 3348SOL     OW12197   2.895   9.419   4.888 -0.2348 -0.4504  0.9860
 3348SOL    HW112198   2.835   9.356   4.848 -1.5072 -0.0655  2.2089
 3348SOL    HW212199   2.841   9.497   4.903  0.7069  0.0872  1.6927
 3349SOL     OW12200   6.090   0.270   8.790 -0.0648 -0.2218  0.2986
 3349SOL    HW112201   6.138   0.319   8.723  0.8224 -0.6334  0.6174
 3349SOL    HW212202   6.001   0.305   8.786  0.0490 -0.0067 -0.8689
 3350SOL     OW12203   0.913   3.003   6.484  0.2370  0.3701  0.4512
 3350SOL    HW112204   0.969   3.054   6.425 -0.2377  0.6507  0.2353
 3350SOL    HW212205   0.833   3.055   6.492 -0.8770 -1.0244 -0.9693
 3351SOL     OW12206   3.298   4.827   8.257  0.2523 -0.1409 -0.5980
 3351SOL    HW112207   3.261   4.914   8.277 -0.6761 -0.3839 -1.1950
 3351SOL    HW212208   3.390   4.845   8.237  0.0673  0.7199 -0.7526
 3352SOL     OW12209   7.399   1.984   9.032 -0.1716  0.0172  0.0363
 3352SOL    HW112210   7.349   1.902   9.034 -0.2537  0.0617 -0.1747
 3352SOL    HW212211   7.426   1.998   9.123 -1.4429  0.5616  0.3453
 3353SOL     OW12212   1.002   3.936   9.174  0.2438 -0.5253  0.2728
 3353SOL    HW112213   0.952   3.906   9.250  0.9433 -2.1361  0.1297
 3353SOL    HW212214   0.942   3.925   9.100 -0.0536 -0.0044  0.4290
 3354SOL     OW12215   9.049   0.712   7.391  0.5713 -0.1366 -0.2485
 3354SOL    HW112216   9.118   0.677   7.447 -0.3243 -0.8437  0.4656
 3354SOL    HW212217   9.066   0.674   7.305  0.0764 -1.7783  0.3353
 3355SOL     OW12218   1.477   5.358   9.508  0.6403 -0.4715 -0.4604
 3355SOL    HW112219   1.468   5.426   9.440 -0.9529  0.5230  0.6829
 3355SOL    HW212220   1.481   5.276   9.459 -0.6136  0.2101 -1.7921
 3356SOL     OW12221   1.615   9.242   1.499  0.8869 -0.4181  0.2545
 3356SOL    HW112222   1.690   9.206   1.452  0.0051 -4.0615  1.3203
 3356SOL    HW212223   1.652   9.276   1.581  1.5017 -1.3178  0.3578
 3357SOL     OW12224   2.759   8.229   5.024  0.5788 -0.1881  0.0779
 3357SOL    HW112225   2.698   8.161   5.056  0.4390 -0.0404  0.1254
 3357SOL    HW212226   2.721   8.258   4.941  0.9507 -0.5816 -0.2355
 3358SOL     OW12227   9.544   0.020   2.165  0.2944 -0.1653  0.8527
 3358SOL    HW112228   9.504  -0.050   2.215  0.9226 -1.4992 -0.4476
 3358SOL    HW212229   9.483   0.094   2.175 -2.6540 -2.0808 -1.0697
 3359SOL     OW12230   7.746   1.500   0.939 -0.3205 -0.2247 -0.0920
 3359SOL    HW112231   7.787   1.570   0.888  1.7022 -1.0777  0.2419
 3359SOL    HW212232   7.714   1.543   1.018  1.9651  0.2445  0.6751
 3360SOL     OW12233   0.531   2.923   8.685 -0.4396 -0.3784  0.8218
 3360SOL    HW112234   0.550   2.997   8.743  0.4408 -0.8646  1.1847
 3360SOL    HW212235   0.559   2.953   8.598  1.1384 -0.7155  1.1799
 3361SOL     OW12236   0.417   8.788   8.679 -0.2225 -0.1429 -0.7419
 3361SOL    HW112237   0.413   8.793   8.584 -0.1930 -2.5215 -0.9166
 3361SOL    HW212238   0.395   8.877   8.708 -1.7182  0.2851 -2.9186
 3362SOL     OW12239   0.164   2.224   5.671  0.2089  0.6739 -0.2795
 3362SOL    HW112240   0.173   2.304   5.722  1.0395  1.5774 -1.7632
 3362SOL    HW212241   0.251   2.207   5.636 -0.5451  0.8485 -2.4211
 3363SOL     OW12242   6.396   9.160   4.359  0.1642 -0.1084 -0.4547
 3363SOL    HW112243   6.403   9.205   4.443 -2.7984  0.6432 -0.4697
 3363SOL    HW212244   6.424   9.071   4.377 -0.1008  0.1159  1.2729
 3364SOL     OW12245   6.810   8.695   2.380  0.5806 -0.2835  0.0419
 3364SOL    HW112246   6.728   8.719   2.422  0.3510  0.3435 -0.7424
 3364SOL    HW212247   6.831   8.608   2.416 -0.5258 -0.5390  0.0937
 3365SOL     OW12248   6.256   1.670   7.281  0.2396  0.3790  0.1624
 3365SOL    HW112249   6.314   1.709   7.346  0.9444 -0.0982 -0.1611
 3365SOL    HW212250   6.170   1.707   7.299  0.8220  1.8713  0.0235
 3366SOL     OW12251   8.562   4.372   9.245 -0.3146 -0.0954  0.0910
 3366SOL    HW112252   8.563   4.329   9.160  1.9731  0.1883 -0.0683
 3366SOL    HW212253   8.607   4.455   9.231  0.8770 -0.4236  1.7556
 3367SOL     OW12254   4.877   8.199   3.079  0.0124  0.5389 -0.1042
 3367SOL    HW112255   4.846   8.221   3.166 -2.9041 -0.0461 -0.8910
 3367SOL    HW212256   4.883   8.283   3.033  0.7602  0.7615  0.3744
 3368SOL     OW12257   3.513   4.582   9.386  0.5619 -0.0450 -0.5551
 3368SOL    HW112258   3.504   4.541   9.473  1.6293  0.2634 -0.2891
 3368SOL    HW212259   3.584   4.645   9.397  1.4640 -0.7796 -1.9407
 3369SOL     OW12260   8.705   6.762   3.042 -0.2186 -0.1118 -0.3430
 3369SOL    HW112261   8.691   6.732   2.953  1.1963 -0.9388 -0.3104
 3369SOL    HW212262   8.650   6.840   3.050 -0.6380 -0.2325 -1.8086
 3370SOL     OW12263   4.641   4.950   8.791  0.4652  0.1995  0.3316
 3370SOL    HW112264   4.731   4.938   8.762 -0.2550 -3.4826 -1.0459
 3370SOL    HW212265   4.602   5.007   8.725  1.5207  0.9331  0.3227
 3371SOL     OW12266   6.938   4.095   3.134 -0.3209 -0.3142 -0.5858
 3371SOL    HW112267   7.030   4.121   3.146 -0.2224 -1.2948  1.1648
 3371SOL    HW212268   6.888   4.155   3.189 -0.3599 -1.8598  1.1610
 3372SOL     OW12269   5.879   3.853   5.912 -0.1434  0.2791 -0.2538
 3372SOL    HW112270   5.798   3.862   5.962 -0.3334  0.8198 -0.6457
 3372SOL    HW212271   5.942   3.906   5.959  0.2611 -0.9279  0.6074
 3373SOL     OW12272   6.180   3.827   0.636  0.1102 -0.0846  0.1780
 3373SOL    HW112273   6.219   3.828   0.723  0.9282  0.8773 -0.1821
 3373SOL    HW212274   6.088   3.804   0.651  0.1780  0.3474  1.3267
 3374SOL     OW12275   4.303   6.093   6.231  0.0657  0.5701  0.1636
 3374SOL    HW112276   4.395   6.079   6.254 -0.2422  1.1010  1.9152
 3374SOL    HW212277   4.282   6.023   6.169  1.3217 -0.2852  0.6647
 3375SOL     OW12278   2.358   2.166   2.447 -0.8249 -0.1385 -0.9002
 3375SOL    HW112279   2.304   2.202   2.517 -0.8340  0.0061 -0.9807
 3375SOL    HW212280   2.434   2.225   2.443 -0.2099 -0.8669 -0.1668
 3376SOL     OW12281   4.742   9.468   5.673  0.2606 -0.0278  0.1213
 3376SOL    HW112282   4.823   9.519   5.672  0.1095  0.3778  2.3560
 3376SOL    HW212283   4.678   9.523   5.629  0.8090  0.3611 -0.2090
 3377SOL     OW12284   7.535   9.330   7.844  0.0243 -0.4376 -0.1702
 3377SOL    HW112285   7.618   9.368   7.815 -0.2609 -0.0488 -0.4925
 3377SOL    HW212286   7.468   9.382   7.800 -0.4743  1.0647  2.1669
 3378SOL     OW12287   2.953   4.671   1.351 -0.1736 -0.5230 -0.4128
 3378SOL    HW112288   2.874   4.630   1.386  1.0491 -1.0870  1.8939
 3378SOL    HW212289   2.938   4.676   1.256 -2.5946 -1.3476 -0.1365
 3379SOL     OW12290   6.491   2.130   2.061 -0.1432  0.0849  0.4444
 3379SOL    HW112291   6.571   2.160   2.019 -0.1257 -2.3759 -1.5483
 3379SOL    HW212292   6.520   2.082   2.138  0.3781 -1.0575 -0.4358
 3380SOL     OW12293   9.518   2.154   9.393 -0.0828 -0.0587 -0.2338
 3380SOL    HW112294   9.445   2.165   9.332  0.5709 -2.0835 -1.4881
 3380SOL    HW212295   9.587   2.114   9.340  1.4931  0.5946  1.2319
 3381SOL     OW12296   1.611   1.643   9.013 -0.5086  0.4413  0.0044
 3381SOL    HW112297   1.573   1.727   8.988 -0.9199  0.5808  1.0752
 3381SOL    HW212298   1.688   1.634   8.956 -1.4350  0.7184 -1.3321
 3382SOL     OW12299   1.350   8.596   7.520  0.5408 -0.0296 -0.0559
 3382SOL    HW112300   1.371   8.601   7.426 -2.5442 -0.8566 -0.9392
 3382SOL    HW212301   1.384   8.511   7.548 -0.6794 -0.9156 -1.1413
 3383SOL     OW12302   7.880   6.647   6.505 -0.2292 -0.2119  0.8032
 3383SOL    HW112303   7.935   6.710   6.551 -0.4140  0.0290  0.6973
 3383SOL    HW212304   7.820   6.701   6.453  1.7419 -0.4563 -1.9055
 3384SOL     OW12305   7.185   5.403   2.139 -0.0288 -0.4408 -0.0904
 3384SOL    HW112306   7.144   5.389   2.224  1.1325  0.5156  0.6740
 3384SOL    HW212307   7.199   5.315   2.104 -0.2800 -0.8586  0.8319
 3385SOL     OW12308   9.064   0.633   6.019  0.3130  0.4400  0.2001
 3385SOL    HW112309   9.068   0.540   6.044 -0.5726  0.5856  0.9036
 3385SOL    HW212310   8.978   0.643   5.978  1.2731  0.4725 -1.9293
 3386SOL     OW12311   5.558   5.747   4.849 -0.6444  0.3161 -0.4733
 3386SOL    HW112312   5.623   5.720   4.784 -1.2437  0.1136 -0.9961
 3386SOL    HW212313   5.531   5.834   4.821 -2.7354 -0.7325 -1.9867
 3387SOL     OW12314   0.974   3.328   1.932  0.1158  0.2347 -0.0324
 3387SOL    HW112315   0.888   3.289   1.918  0.0031  0.1516  0.8621
 3387SOL    HW212316   1.009   3.282   2.008  1.0825  0.0471 -0.5684
 3388SOL     OW12317   1.269   2.670   2.542  0.3036  0.1593 -0.3546
 3388SOL    HW112318   1.353   2.640   2.576 -0.0432 -0.3691  0.0627
 3388SOL    HW212319   1.256   2.619   2.463 -0.0024 -0.3663  0.0274
 3389SOL     OW12320   2.334   7.129   0.620 -0.8327  0.1093  0.2393
 3389SOL    HW112321   2.407   7.115   0.560 -1.5641 -0.2549 -0.5924
 3389SOL    HW212322   2.335   7.223   0.638 -0.2427  0.1238  0.1446
 3390SOL     OW12323   5.456   1.766   7.144 -0.1883  0.0570  0.3347
 3390SOL    HW112324   5.547   1.782   7.171 -0.1494  0.4872 -0.0395
 3390SOL    HW212325   5.455   1.786   7.051 -0.4967 -0.7081  0.1698
 3391SOL     OW12326   7.700   3.717   8.530 -0.2582 -0.1707  0.2964
 3391SOL    HW112327   7.663   3.804   8.515 -0.7791 -0.2925  0.7932
 3391SOL    HW212328   7.715   3.714   8.625  0.3170 -0.4056  0.1978
 3392SOL     OW12329   7.606   1.155   7.649 -0.6027  0.2000 -0.3720
 3392SOL    HW112330   7.668   1.152   7.576  0.6735  1.0488  0.6292
 3392SOL    HW212331   7.590   1.063   7.671 -0.6409 -0.0497 -1.4232
 3393SOL     OW12332   9.256   0.237   3.679  0.0161 -0.1157 -0.0753
 3393SOL    HW112333   9.180   0.273   3.634  0.5301  0.3807 -0.5738
 3393SOL    HW212334   9.229   0.149   3.706 -0.2184 -0.5484 -1.6243
 3394SOL     OW12335   9.491   5.429   8.436  0.6150 -0.5088  0.2379
 3394SOL    HW112336   9.436   5.462   8.507 -0.6451 -1.9270 -0.0365
 3394SOL    HW212337   9.442   5.451   8.357  1.9940  1.0334 -0.2362
 3395SOL     OW12338   1.349   1.986   5.190 -0.1004  0.2231 -0.8844
 3395SOL    HW112339   1.321   1.940   5.270  2.3087  0.8673  0.4413
 3395SOL    HW212340   1.329   2.078   5.207  1.9925  0.6163 -0.1610
 3396SOL     OW12341   1.151   0.927   2.336 -0.0617 -0.2214  0.3146
 3396SOL    HW112342   1.242   0.927   2.365  0.7214 -1.6749 -1.8767
 3396SOL    HW212343   1.115   0.844   2.368 -0.6003  0.2788  1.0411
 3397SOL     OW12344   8.088   6.055   7.120  0.4647  0.2937 -0.3314
 3397SOL    HW112345   8.023   5.985   7.129 -0.3366  0.8481 -1.4778
 3397SOL    HW212346   8.073   6.112   7.195  0.4725 -0.2521  0.0885
 3398SOL     OW12347   6.848   5.353   5.097  0.2139 -0.1538 -0.5367
 3398SOL    HW112348   6.778   5.403   5.055 -1.2297  0.2003  2.0789
 3398SOL    HW212349   6.921   5.358   5.036 -0.4328  3.6549 -1.2169
 3399SOL     OW12350   3.362   8.890   0.294 -0.0012 -0.6171 -0.4417
 3399SOL    HW112351   3.294   8.908   0.228  0.4429 -0.7481 -0.9368
 3399SOL    HW212352   3.428   8.840   0.248 -0.1920 -1.6662  0.3847
 3400SOL     OW12353   9.549   3.556   0.115  0.1960  0.8095 -0.2502
 3400SOL    HW112354   9.478   3.604   0.071 -1.2597  0.1583  1.2767
 3400SOL    HW212355   9.505   3.483   0.157  1.9497 -0.1401 -0.0018
 3401SOL     OW12356   1.487   4.642   2.091 -0.1728  0.0133 -0.0021
 3401SOL    HW112357   1.419   4.584   2.057 -1.1524  2.1111 -1.8762
 3401SOL    HW212358   1.439   4.718   2.125  1.0871  0.0410  1.8577
 3402SOL     OW12359   3.299   3.084   9.555  0.5498  0.4499  0.1790
 3402SOL    HW112360   3.351   3.024   9.609 -1.1500  1.0725  2.7298
 3402SOL    HW212361   3.335   3.171   9.574  1.6792  0.4777 -1.8927
 3403SOL     OW12362   9.065   6.563   6.745  0.4360  0.8973 -0.7401
 3403SOL    HW112363   9.089   6.650   6.779  0.9740  0.1304  0.9293
 3403SOL    HW212364   9.118   6.554   6.666  2.5149  1.0053  0.5535
 3404SOL     OW12365   3.279   9.528   2.706  0.0928  0.2048 -0.0494
 3404SOL    HW112366   3.201   9.556   2.755 -0.0293  0.2875 -0.2867
 3404SOL    HW212367   3.288   9.593   2.637  0.2069  0.0370 -0.1936
 3405SOL     OW12368   0.895   6.472   4.261  0.2492  0.0979 -0.1372
 3405SOL    HW112369   0.948   6.489   4.339  0.0741  0.2539 -0.0483
 3405SOL    HW212370   0.807   6.457   4.296  0.6885 -2.8228 -0.0460
 3406SOL     OW12371   8.224   4.397   2.382 -0.2161  0.0544  0.2691
 3406SOL    HW112372   8.149   4.438   2.339 -0.0646 -0.2105 -0.2621
 3406SOL    HW212373   8.272   4.470   2.421  1.5733  0.8433 -3.0089
 3407SOL     OW12374   4.942   9.556   2.446 -0.7584  0.3138  0.2384
 3407SOL    HW112375   4.910   9.511   2.525 -2.0803 -0.0819 -0.4905
 3407SOL    HW212376   5.037   9.548   2.451 -0.8962 -2.3833  0.2892
 3408SOL     OW12377   3.950   3.167   1.301 -0.3182  0.0434 -0.1486
 3408SOL    HW112378   4.024   3.107   1.307  0.0365  0.4759 -0.0825
 3408SOL    HW212379   3.988   3.253   1.319 -0.2534  0.7029 -2.9815
 3409SOL     OW12380   3.124   2.626   3.201 -0.0575  0.4244 -0.0324
 3409SOL    HW112381   3.043   2.615   3.250 -0.5790  2.0135 -0.4757
 3409SOL    HW212382   3.193   2.601   3.263 -0.8671 -1.6963  0.1073
 3410SOL     OW12383   6.715   5.275   7.071 -0.5163  0.2150 -0.4188
 3410SOL    HW112384   6.692   5.186   7.097  0.5764  0.2145  0.5786
 3410SOL    HW212385   6.810   5.277   7.072 -0.5238  1.2836 -0.8451
 3411SOL     OW12386   1.939   2.715   0.280  0.2276  0.5396 -0.5622
 3411SOL    HW112387   1.964   2.800   0.315 -0.1328  0.4096  0.0366
 3411SOL    HW212388   1.970   2.715   0.190 -0.9832  1.8508 -1.0183
 3412SOL     OW12389   4.690   0.859   2.765  0.3046 -0.9135  0.3383
 3412SOL    HW112390   4.655   0.775   2.736  2.2788 -1.5895 -0.2890
 3412SOL    HW212391   4.681   0.917   2.689 -0.2892 -0.8018  0.4918
 3413SOL     OW12392   9.516   5.491   6.868  0.5006  0.0393 -0.4504
 3413SOL    HW112393   9.475   5.569   6.832 -0.3969 -0.3635 -0.3335
 3413SOL    HW212394   9.482   5.485   6.957  0.2502 -0.6929 -0.5869
 3414SOL     OW12395   4.241   6.371   9.003 -0.2778 -0.2392 -0.2887
 3414SOL    HW112396   4.258   6.395   9.095  0.4682  0.8625 -0.6855
 3414SOL    HW212397   4.167   6.311   9.007 -1.4799  1.2257  0.9072
 3415SOL     OW12398   8.994   3.773   3.403  0.7153 -0.1485 -0.6106
 3415SOL    HW112399   9.053   3.702   3.381  2.0981  1.0089 -0.7692
 3415SOL    HW212400   9.051   3.847   3.424 -0.6584  0.6330  0.5651
 3416SOL     OW12401   5.858   6.504   0.181  0.6611 -0.0436 -0.0891
 3416SOL    HW112402   5.775   6.541   0.151  1.6763  3.9821  1.4384
 3416SOL    HW212403   5.840   6.471   0.268  0.2515 -1.0353 -0.5425
 3417SOL     OW12404   6.523   8.358   1.314  0.1029  0.1201  0.3826
 3417SOL    HW112405   6.467   8.284   1.290  0.6503 -1.7119  3.9929
 3417SOL    HW212406   6.463   8.428   1.336 -0.5246 -0.0256 -0.7962
 3418SOL     OW12407   4.024   8.926   3.628 -0.3172  0.0121 -0.4426
 3418SOL    HW112408   4.077   8.998   3.663 -0.6285 -1.2368  3.0081
 3418SOL    HW212409   4.084   8.851   3.628 -1.2009 -0.7306  0.6058
 3419SOL     OW12410   1.742   2.488   2.778 -0.7405 -0.2476  0.0107
 3419SOL    HW112411   1.733   2.428   2.852  1.4790 -0.0653  0.5100
 3419SOL    HW212412   1.762   2.432   2.704 -1.6312 -0.3212 -0.1888
 3420SOL     OW12413   4.111   7.149   0.482  0.3592  0.3006 -0.3883
 3420SOL    HW112414   4.191   7.135   0.534 -0.2882  1.1680  0.9072
 3420SOL    HW212415   4.052   7.195   0.541 -1.2538 -0.6166 -1.2142
 3421SOL     OW12416   8.251   2.716   6.958  0.7025  0.3102  0.2163
 3421SOL    HW112417   8.267   2.700   7.051  1.6881 -2.0912 -0.2796
 3421SOL    HW212418   8.269   2.631   6.916  0.1719  1.2913 -2.1493
 3422SOL     OW12419   5.550   5.383   3.387  0.8579 -0.0992 -0.4869
 3422SOL    HW112420   5.558   5.428   3.302  0.4938  0.9443  0.0170
 3422SOL    HW212421   5.483   5.316   3.372  0.3715  0.4632 -0.8756
 3423SOL     OW12422   4.791   4.085   8.461 -0.7554 -0.2674  0.1351
 3423SOL    HW112423   4.809   4.004   8.413  0.2423 -0.2813  0.5139
 3423SOL    HW212424   4.867   4.096   8.519 -1.2683  0.5036  0.6765
 3424SOL     OW12425   7.586   0.103   9.404 -0.2213 -0.9343  0.5518
 3424SOL    HW112426   7.630   0.176   9.447  0.6906  0.2287 -2.1717
 3424SOL    HW212427   7.521   0.144   9.347 -0.9866 -2.3611  0.3358
 3425SOL     OW12428   0.225   8.105   8.339 -0.1556 -0.2921  0.3273
 3425SOL    HW112429   0.279   8.101   8.260 -0.2597  0.2145  0.2296
 3425SOL    HW212430   0.141   8.066   8.312 -0.4585  0.5774 -0.0398
 3426SOL     OW12431   6.914   8.586   5.926 -0.1869  0.5956  0.3785
 3426SOL    HW112432   6.891   8.659   5.868  0.2824 -0.6522 -1.4910
 3426SOL    HW212433   6.837   8.529   5.924  1.1863 -1.4417 -2.4104
 3427SOL     OW12434   6.165   4.397   8.608 -0.1638 -0.2791 -0.2635
 3427SOL    HW112435   6.246   4.389   8.559  0.1158 -0.0165  0.1514
 3427SOL    HW212436   6.166   4.323   8.669  0.5902  0.6613  0.9200
 3428SOL     OW12437   7.941   5.688   9.386  0.3878 -0.5586 -0.3443
 3428SOL    HW112438   8.010   5.697   9.320  0.9703 -1.6859  0.0785
 3428SOL    HW212439   7.974   5.737   9.462 -0.2848  0.7429 -0.8710
 3429SOL     OW12440   0.835   0.010   1.603  0.7104 -0.0088 -0.3179
 3429SOL    HW112441   0.857   0.041   1.515 -0.5168 -0.0431 -0.6550
 3429SOL    HW212442   0.774  -0.063   1.589  0.6219 -0.1211  0.5543
 3430SOL     OW12443   0.283   5.008   3.879 -0.6855  0.2015  1.0334
 3430SOL    HW112444   0.371   4.972   3.868 -1.1161 -1.0832  1.6132
 3430SOL    HW212445   0.248   5.011   3.790  0.2666  1.6348  0.6800
 3431SOL     OW12446   5.248   5.372   8.995  0.1327  0.3161  0.1286
 3431SOL    HW112447   5.172   5.422   8.964  0.0055  0.2620  0.3492
 3431SOL    HW212448   5.288   5.338   8.915 -1.1141 -1.1627  0.0815
 3432SOL     OW12449   3.863   6.002   3.451 -0.0078 -0.3287  0.0230
 3432SOL    HW112450   3.880   5.910   3.469  0.7608 -0.3395 -0.7242
 3432SOL    HW212451   3.776   6.003   3.413  0.0907 -0.7752 -0.2191
 3433SOL     OW12452   1.401   1.974   3.540  0.2629 -0.8485 -0.2339
 3433SOL    HW112453   1.480   1.939   3.498  1.6355  1.1514  0.4908
 3433SOL    HW212454   1.385   1.914   3.613  2.3189 -0.3067  0.7602
 3434SOL     OW12455   6.938   0.690   4.366 -0.0063 -1.1593 -0.6964
 3434SOL    HW112456   7.004   0.646   4.312  2.3410  1.5114 -0.2419
 3434SOL    HW212457   6.986   0.719   4.444 -1.3475  2.0559 -0.9298
 3435SOL     OW12458   6.249   2.666   3.792  0.4205 -0.0152  0.0033
 3435SOL    HW112459   6.187   2.642   3.861  0.9776  1.0642  0.9093
 3435SOL    HW212460   6.320   2.602   3.800  0.7315  0.4172  0.7900
 3436SOL     OW12461   0.424   7.839   0.833  1.0699 -0.4184 -0.1601
 3436SOL    HW112462   0.416   7.934   0.842 -1.7852 -0.5273 -0.7146
 3436SOL    HW212463   0.417   7.823   0.739 -4.5159 -1.3752  0.0849
 3437SOL     OW12464   8.129   1.593   1.734  0.1253  0.2051 -0.0125
 3437SOL    HW112465   8.082   1.623   1.811 -1.6113  1.1087 -1.3572
 3437SOL    HW212466   8.214   1.638   1.739  0.1603  0.0242  1.4836
 3438SOL     OW12467   9.004   1.154   4.823 -0.1778 -0.3394 -0.0185
 3438SOL    HW112468   9.055   1.134   4.902 -0.6258 -0.2387  0.2962
 3438SOL    HW212469   9.035   1.240   4.796 -0.8410  0.1481  0.7167
 3439SOL     OW12470   5.109   0.159   5.421  0.2469 -0.1663  0.0910
 3439SOL    HW112471   5.115   0.227   5.488  1.0975 -1.4767  1.4102
 3439SOL    HW212472   5.201   0.135   5.404 -0.0512 -1.5216  0.2655
 3440SOL     OW12473   7.539   3.746   1.087 -0.0643  0.2269 -0.2005
 3440SOL    HW112474   7.507   3.673   1.033 -1.9741  0.2933  0.7647
 3440SOL    HW212475   7.600   3.793   1.030 -1.0081 -0.4623 -1.8532
 3441SOL     OW12476   0.483   2.489   9.212  0.2378 -0.6910 -0.5349
 3441SOL    HW112477   0.409   2.546   9.193 -0.6075 -1.4196  0.4443
 3441SOL    HW212478   0.458   2.403   9.176  0.3428 -1.0800  0.2967
 3442SOL     OW12479   2.247   6.120   5.008  0.3406  0.5349  0.0822
 3442SOL    HW112480   2.153   6.117   4.989  0.6841  0.4973 -1.7742
 3442SOL    HW212481   2.258   6.063   5.084 -1.2558  1.2914  0.9185
 3443SOL     OW12482   1.186   6.469   8.315  0.3959  0.2048  0.0833
 3443SOL    HW112483   1.098   6.504   8.301  0.6544  0.7187 -0.2457
 3443SOL    HW212484   1.192   6.459   8.410 -0.1954 -0.3037  0.0789
 3444SOL     OW12485   3.760   1.596   9.286 -0.3619  0.3910  0.3907
 3444SOL    HW112486   3.692   1.531   9.306 -0.6680  0.2294 -1.0546
 3444SOL    HW212487   3.801   1.614   9.370 -1.8393  0.0824  1.2195
 3445SOL     OW12488   9.176   5.109   2.004 -0.5609 -0.1665  0.0630
 3445SOL    HW112489   9.113   5.069   2.064 -2.6429 -0.1343 -1.9423
 3445SOL    HW212490   9.242   5.149   2.062 -1.4468 -1.6396  2.2341
 3446SOL     OW12491   1.635   4.766   1.328  0.9601  0.4296  0.0188
 3446SOL    HW112492   1.712   4.822   1.341  1.0131  0.5549 -0.8097
 3446SOL    HW212493   1.659   4.709   1.256  0.6129 -0.1568  0.3593
 3447SOL     OW12494   8.117   0.530   2.843  0.1329  0.1083 -0.2557
 3447SOL    HW112495   8.041   0.541   2.786  0.8458 -0.9036 -1.4765
 3447SOL    HW212496   8.150   0.619   2.857 -2.1454  0.7551  1.6458
 3448SOL     OW12497   4.255   3.065   6.966 -0.2173  0.0970 -0.1376
 3448SOL    HW112498   4.310   3.002   6.919  2.3493  1.5438  0.7192
 3448SOL    HW212499   4.281   3.056   7.058 -1.2959  1.0007  0.2791
 3449SOL     OW12500   3.629   0.382   8.240  0.1697  0.2121  0.1646
 3449SOL    HW112501   3.642   0.374   8.334 -0.8934 -0.2309  0.2903
 3449SOL    HW212502   3.694   0.446   8.212 -0.8903  1.9516  1.5228
 3450SOL     OW12503   3.892   9.126   3.128  0.3488 -0.0027  0.0167
 3450SOL    HW112504   3.982   9.157   3.131 -0.0212  1.2070 -0.7743
 3450SOL    HW212505   3.854   9.152   3.212  0.6928 -0.3791  0.2883
 3451SOL     OW12506   8.146   4.121   5.218 -0.0664  0.5561  0.1685
 3451SOL    HW112507   8.088   4.195   5.200 -0.3131  0.0144 -1.3634
 3451SOL    HW212508   8.181   4.096   5.133  0.8502 -0.4237  0.8072
 3452SOL     OW12509   8.237   8.872   1.010 -0.2634 -0.1463  0.0598
 3452SOL    HW112510   8.142   8.867   1.020 -0.1209  0.4011  2.1062
 3452SOL    HW212511   8.271   8.851   1.097  1.5289 -0.9510 -0.8004
 3453SOL     OW12512   3.720   2.655   1.889 -0.2234  0.8072  0.3215
 3453SOL    HW112513   3.805   2.642   1.848 -0.0995  0.0540  0.8129
 3453SOL    HW212514   3.670   2.705   1.824 -0.2849 -0.9922 -1.1217
 3454SOL     OW12515   0.578   2.733   8.294  0.7100  0.4681 -0.0538
 3454SOL    HW112516   0.527   2.757   8.217 -0.0805  2.0303  0.8981
 3454SOL    HW212517   0.518   2.680   8.347  0.8759  0.3265 -0.0073
 3455SOL     OW12518   1.178   2.367   7.366 -0.0222  0.4875 -0.0999
 3455SOL    HW112519   1.195   2.338   7.277 -0.5525  0.7814 -0.3009
 3455SOL    HW212520   1.084   2.352   7.379 -0.4724  2.6773 -0.4341
 3456SOL     OW12521   8.394   1.852   4.340 -0.2443 -0.0158  0.0020
 3456SOL    HW112522   8.488   1.837   4.325 -0.7226 -0.2657 -3.9077
 3456SOL    HW212523   8.382   1.945   4.322 -0.8204 -0.1428 -0.2954
 3457SOL     OW12524   0.820   7.294   4.002  0.4375  0.3485 -0.6138
 3457SOL    HW112525   0.805   7.367   3.941 -1.5287  2.6405  2.3300
 3457SOL    HW212526   0.886   7.327   4.063 -1.2110  0.2034  1.3600
 3458SOL     OW12527   2.305   0.722   1.160  0.0183 -0.2403 -0.4272
 3458SOL    HW112528   2.236   0.760   1.106  0.6549 -0.6553 -1.5618
 3458SOL    HW212529   2.385   0.769   1.135  0.4692 -0.9924 -0.4414
 3459SOL     OW12530   8.231   9.594   2.758 -0.1581  0.1344  0.1035
 3459SOL    HW112531   8.193   9.652   2.825 -0.7838 -0.8739  0.6486
 3459SOL    HW212532   8.155   9.556   2.714  0.2362 -0.3938 -0.1323
 3460SOL     OW12533   4.719   9.075   4.586 -0.2059  0.5924  0.7395
 3460SOL    HW112534   4.689   9.125   4.663 -1.4636  0.8340  0.1244
 3460SOL    HW212535   4.804   9.041   4.612  0.7350  3.0795  1.1847
 3461SOL     OW12536   9.483   0.095   7.036  0.6122 -0.0475  0.2873
 3461SOL    HW112537   9.483   0.164   6.969 -1.2609  1.4297  1.6964
 3461SOL    HW212538   9.503   0.015   6.987  0.8537  1.1771 -1.7588
 3462SOL     OW12539   0.447   2.150   1.711 -0.3220  0.0270  0.2885
 3462SOL    HW112540   0.499   2.212   1.660 -0.6524  0.3231  0.2988
 3462SOL    HW212541   0.479   2.160   1.801  0.4138 -0.6572  0.1152
 3463SOL     OW12542   6.918   6.557   1.870  0.5987  0.4251  0.3965
 3463SOL    HW112543   6.866   6.546   1.949  0.0361  1.4793  0.1950
 3463SOL    HW212544   6.872   6.507   1.803  1.1203 -0.5353  0.7396
 3464SOL     OW12545   8.318   2.198   3.047  0.9497 -0.4115 -0.1750
 3464SOL    HW112546   8.321   2.155   2.961  0.8392 -1.5616  0.3822
 3464SOL    HW212547   8.319   2.292   3.026  0.7935 -0.6655 -1.4365
 3465SOL     OW12548   1.674   9.068   9.329  0.3128 -0.2139 -0.1336
 3465SOL    HW112549   1.737   9.138   9.310  0.5914 -0.7025 -1.0490
 3465SOL    HW212550   1.624   9.058   9.249  0.9703 -1.7630 -0.3796
 3466SOL     OW12551   4.586   5.668   9.184 -0.3534  0.2719  0.3186
 3466SOL    HW112552   4.551   5.653   9.097 -0.0583 -0.4337  0.3143
 3466SOL    HW212553   4.667   5.617   9.187 -0.0582  0.7547  0.8052
 3467SOL     OW12554   9.027   9.138   7.917 -0.0747  0.6491 -0.3227
 3467SOL    HW112555   9.033   9.131   7.822  0.0312  0.4492 -0.3016
 3467SOL    HW212556   9.116   9.156   7.946  0.0136  0.0726 -0.2111
 3468SOL     OW12557   5.832   0.964   9.307 -0.2924  0.0353 -0.2345
 3468SOL    HW112558   5.794   0.901   9.246 -1.7655 -0.8266  1.4783
 3468SOL    HW212559   5.926   0.962   9.288 -0.4258 -1.9503 -0.8975
 3469SOL     OW12560   9.144   3.774   0.318  0.4739 -0.3438  0.0318
 3469SOL    HW112561   9.134   3.681   0.297 -2.0462 -0.2567  0.6232
 3469SOL    HW212562   9.223   3.778   0.372 -0.4616 -2.4365  1.6639
 3470SOL     OW12563   4.766   0.446   6.198  0.4011 -0.0484  0.1918
 3470SOL    HW112564   4.723   0.511   6.142 -0.8292  0.3668  1.5477
 3470SOL    HW212565   4.762   0.365   6.148 -1.2462  0.1758 -0.1088
 3471SOL     OW12566   6.544   1.914   6.555  0.6086 -0.2571  0.2015
 3471SOL    HW112567   6.466   1.864   6.532 -0.0675  1.4386 -1.3958
 3471SOL    HW212568   6.571   1.955   6.473  1.3942  1.6132  1.3418
 3472SOL     OW12569   3.836   8.348   6.022 -0.4222  0.3253 -0.6041
 3472SOL    HW112570   3.891   8.410   6.071  0.2085 -1.2066  0.7083
 3472SOL    HW212571   3.756   8.398   6.002  0.7423  2.0690 -1.1019
 3473SOL     OW12572   6.915   5.100   9.628 -0.5503 -0.4365  0.0788
 3473SOL    HW112573   6.982   5.035   9.609 -0.2660 -0.2990  0.6005
 3473SOL    HW212574   6.929   5.124   9.719 -0.7497  0.2445 -0.0601
 3474SOL     OW12575   2.963   4.376   3.314  0.3793  0.0941  0.0151
 3474SOL    HW112576   2.930   4.395   3.402 -1.8444  1.4145 -1.0201
 3474SOL    HW212577   3.031   4.442   3.300  0.5659  0.0422  0.6296
 3475SOL     OW12578   0.252   2.602   4.688  0.3104 -0.5140  0.0180
 3475SOL    HW112579   0.195   2.654   4.631 -0.5604  1.2944  2.3604
 3475SOL    HW212580   0.340   2.635   4.670  0.1254 -0.3796 -0.6711
 3476SOL     OW12581   7.844   0.227   7.182  0.1253 -0.2248 -0.3753
 3476SOL    HW112582   7.914   0.290   7.201  1.6228 -1.6015 -1.1046
 3476SOL    HW212583   7.789   0.229   7.260  2.0889 -0.5031  1.0942
 3477SOL     OW12584   4.818   4.847   3.544  0.1357 -0.1327 -0.3601
 3477SOL    HW112585   4.867   4.806   3.616 -1.2072  3.8767  3.2548
 3477SOL    HW212586   4.726   4.827   3.562 -0.2509  1.1762 -0.7340
 3478SOL     OW12587   8.843   2.911   6.055 -0.3621 -0.3389  0.0251
 3478SOL    HW112588   8.749   2.893   6.064 -0.2605 -0.7949  0.1789
 3478SOL    HW212589   8.860   2.902   5.962 -0.1474 -1.8710  0.1985
 3479SOL     OW12590   1.407   6.706   4.769 -0.1607  0.2141 -0.5844
 3479SOL    HW112591   1.335   6.734   4.825  0.3606  0.5616 -0.0803
 3479SOL    HW212592   1.413   6.773   4.701  0.3327  0.7170 -0.0495
 3480SOL     OW12593   1.287   3.209   0.483  0.1126  0.4697 -0.4433
 3480SOL    HW112594   1.296   3.114   0.475 -1.2197  0.2978 -0.1709
 3480SOL    HW212595   1.374   3.244   0.463  0.4187 -0.7589 -1.3312
 3481SOL     OW12596   8.056   1.702   5.999 -0.4395 -0.0730  0.1403
 3481SOL    HW112597   8.034   1.633   5.936  0.2382 -0.1435 -0.0308
 3481SOL    HW212598   8.071   1.779   5.945 -3.2187  0.7892  0.4649
 3482SOL     OW12599   3.962   6.084   5.940 -0.2487  0.6388 -0.1537
 3482SOL    HW112600   3.989   6.063   6.029 -1.1031 -0.0995 -0.0561
 3482SOL    HW212601   4.022   6.035   5.884 -0.8539 -0.3730  0.0520
 3483SOL     OW12602   0.189   9.589   3.029  0.7951  0.0264  0.1553
 3483SOL    HW112603   0.217   9.613   3.118 -1.4515  2.0078  0.4289
 3483SOL    HW212604   0.121   9.523   3.042 -0.0471  0.8332  0.0158
 3484SOL     OW12605   2.049   3.013   0.115 -0.9739 -0.0518 -0.5626
 3484SOL    HW112606   2.049   3.008   0.019  1.1327  0.0188 -0.6105
 3484SOL    HW212607   2.024   3.104   0.133 -0.6040  0.1594 -1.0787
 3485SOL     OW12608   5.356   7.481   1.751 -0.4806  0.0202 -0.1189
 3485SOL    HW112609   5.327   7.401   1.795 -0.9094  0.9407  1.2991
 3485SOL    HW212610   5.282   7.541   1.758  0.1624  0.8609 -0.4011
 3486SOL     OW12611   4.415   4.052   9.094  0.0126 -0.7905  0.0533
 3486SOL    HW112612   4.464   3.970   9.090  1.3030 -0.1758  1.6904
 3486SOL    HW212613   4.439   4.098   9.013  0.3767 -1.4367 -0.2159
 3487SOL     OW12614   4.141   8.715   7.819  0.0235 -0.3054  0.1921
 3487SOL    HW112615   4.110   8.733   7.908  0.5571 -0.2705  0.3733
 3487SOL    HW212616   4.163   8.801   7.783 -0.3071 -0.3084 -0.0195
 3488SOL     OW12617   5.066   2.948   5.541 -0.2380  0.4987  0.0884
 3488SOL    HW112618   5.055   2.981   5.452 -0.8723  0.9504  0.3239
 3488SOL    HW212619   5.023   3.013   5.596 -0.5393 -0.1602  0.6549
 3489SOL     OW12620   7.087   4.032   2.406  0.3042  0.4069  0.4264
 3489SOL    HW112621   7.037   4.075   2.476 -0.4864 -0.8335  0.6491
 3489SOL    HW212622   7.027   3.968   2.368  1.3367 -0.2888 -0.1058
 3490SOL     OW12623   3.905   3.774   2.809 -0.4912 -0.3514 -0.0896
 3490SOL    HW112624   3.906   3.845   2.874  1.8806  0.4506 -0.8868
 3490SOL    HW212625   3.917   3.694   2.860 -2.2995 -0.1532  0.7358
 3491SOL     OW12626   8.732   5.957   6.646  0.0663  0.6814 -0.3650
 3491SOL    HW112627   8.808   5.904   6.668 -1.1561 -1.7625 -1.5142
 3491SOL    HW212628   8.764   6.021   6.583  1.3947  0.6145  0.2067
 3492SOL     OW12629   5.766   7.577   5.010  0.5616  0.1157 -0.0483
 3492SOL    HW112630   5.730   7.665   5.013  0.5314  0.1213 -0.5515
 3492SOL    HW212631   5.690   7.519   5.020  0.7840  0.1416  2.3735
 3493SOL     OW12632   1.988   3.315   8.695 -0.6337  0.5865  0.1169
 3493SOL    HW112633   1.970   3.227   8.728 -0.3435  0.5199  0.1013
 3493SOL    HW212634   1.955   3.315   8.606 -0.2001  0.3392 -0.0482
 3494SOL     OW12635   9.390   3.942   9.004  0.3706  0.4661  0.4637
 3494SOL    HW112636   9.474   3.909   8.972  1.3675  0.9203  2.5046
 3494SOL    HW212637   9.381   3.905   9.092 -2.1702 -0.5768 -0.1439
 3495SOL     OW12638   6.392   3.418   9.407 -0.1728  0.1917  0.0684
 3495SOL    HW112639   6.484   3.427   9.428 -0.6205  2.1441  1.4882
 3495SOL    HW212640   6.385   3.447   9.316  0.6778 -0.6120 -0.2685
 3496SOL     OW12641   4.719   3.101   9.485 -0.3126 -0.2566 -0.2947
 3496SOL    HW112642   4.671   3.097   9.402 -0.7025  1.3854 -0.1796
 3496SOL    HW212643   4.676   3.170   9.535  1.9044  1.0476 -0.0336
 3497SOL     OW12644   3.355   3.814   4.094 -0.0222  0.3726  0.3328
 3497SOL    HW112645   3.327   3.747   4.156 -1.6727  1.0050  0.3099
 3497SOL    HW212646   3.343   3.773   4.008  0.2667  0.2339  0.3565
 3498SOL     OW12647   0.662   2.652   3.471 -0.3439  0.2669  0.0431
 3498SOL    HW112648   0.748   2.678   3.436 -0.5457  1.2862  0.2538
 3498SOL    HW212649   0.654   2.703   3.552 -0.9495 -0.1781  0.2634
 3499SOL     OW12650   3.017   8.138   6.657 -0.0048  0.5212  0.2314
 3499SOL    HW112651   3.109   8.114   6.646 -0.6341 -1.6827 -0.5383
 3499SOL    HW212652   3.003   8.135   6.752  0.3646 -0.5216  0.2595
 3500SOL     OW12653   2.880   7.958   9.065 -0.1529  0.2360  0.1545
 3500SOL    HW112654   2.924   8.036   9.034 -1.3942  0.7783 -0.3332
 3500SOL    HW212655   2.848   7.981   9.152  2.9410 -1.1325  1.7942
 3501SOL     OW12656   4.233   3.751   6.692 -0.0941 -0.2533  0.4576
 3501SOL    HW112657   4.201   3.762   6.602 -1.2905 -0.4176  0.8441
 3501SOL    HW212658   4.246   3.657   6.702  0.7197 -0.1741  0.2499
 3502SOL     OW12659   5.768   7.019   7.647  0.6204 -0.5485  0.1806
 3502SOL    HW112660   5.822   6.941   7.661  0.3086 -0.8814 -0.4249
 3502SOL    HW212661   5.737   7.043   7.734  0.1556 -1.5232  0.2970
 3503SOL     OW12662   3.031   2.049   3.969 -0.1160 -0.0924  0.0521
 3503SOL    HW112663   3.020   1.957   3.989 -2.8603  0.1979  0.2952
 3503SOL    HW212664   3.125   2.060   3.953  0.4089 -2.6929  0.9656
 3504SOL     OW12665   3.276   8.520   7.435 -0.2301 -0.0906  0.5763
 3504SOL    HW112666   3.200   8.549   7.384 -0.6556 -0.5785  0.9154
 3504SOL    HW212667   3.335   8.595   7.435 -0.5857  0.1980  0.0626
 3505SOL     OW12668   5.856   1.306   9.304  0.2739  0.2048 -0.2627
 3505SOL    HW112669   5.801   1.384   9.314 -0.2913 -0.1918 -0.1734
 3505SOL    HW212670   5.807   1.237   9.351  1.9255  0.3303  1.7886
 3506SOL     OW12671   4.434   0.307   6.999 -0.3073 -0.0370  0.0170
 3506SOL    HW112672   4.341   0.286   6.985 -0.8658  1.2125  1.5918
 3506SOL    HW212673   4.433   0.387   7.052  1.6825 -0.0553  0.1508
 3507SOL     OW12674   5.006   6.882   7.127  0.0768  0.7245 -0.0228
 3507SOL    HW112675   4.965   6.931   7.199 -0.6680 -1.1134  0.8644
 3507SOL    HW212676   4.937   6.826   7.093  1.1309 -0.4312 -0.3365
 3508SOL     OW12677   0.924   8.381   5.845 -0.3345 -0.1173  0.0594
 3508SOL    HW112678   0.930   8.359   5.939 -0.5780 -1.2237 -0.1680
 3508SOL    HW212679   1.014   8.401   5.820 -0.0007 -1.3455  0.1943
 3509SOL     OW12680   9.015   8.404   8.092 -0.4943  0.1592 -0.0720
 3509SOL    HW112681   9.028   8.310   8.079 -0.6991 -0.0878  1.3405
 3509SOL    HW212682   8.940   8.410   8.151 -0.9036  1.2429 -0.6763
 3510SOL     OW12683   1.830   7.702   6.014  0.2279 -0.0646  0.4316
 3510SOL    HW112684   1.745   7.673   6.047  0.1602  0.6267  0.8835
 3510SOL    HW212685   1.880   7.723   6.092  0.3340  0.8513  0.1279
 3511SOL     OW12686   8.069   2.873   5.042  0.5137 -0.0967 -0.3470
 3511SOL    HW112687   8.051   2.783   5.068  0.3468 -0.1960 -0.7927
 3511SOL    HW212688   8.024   2.883   4.958  0.5675  0.3880 -0.3216
 3512SOL     OW12689   4.468   7.832   3.071  0.3920 -0.0270 -0.1030
 3512SOL    HW112690   4.541   7.818   3.131  0.2441 -0.0611  0.0716
 3512SOL    HW212691   4.391   7.800   3.119  0.3157 -0.3372 -0.4336
 3513SOL     OW12692   2.671   5.318   7.314 -0.4921  0.1684  0.3474
 3513SOL    HW112693   2.749   5.275   7.279  0.6433  1.6686  0.8910
 3513SOL    HW212694   2.602   5.251   7.311  1.4518 -2.1336  2.3325
 3514SOL     OW12695   4.027   0.760   7.940 -0.1618 -0.2823 -0.3009
 3514SOL    HW112696   3.989   0.690   7.887 -0.0032 -1.0929  0.6399
 3514SOL    HW212697   4.094   0.799   7.883 -0.2061 -0.9368 -0.8090
 3515SOL     OW12698   3.058   9.023   3.960  0.0463  0.5839 -0.8682
 3515SOL    HW112699   2.979   8.997   4.007 -0.1458 -0.2164 -1.5896
 3515SOL    HW212700   3.034   9.014   3.867  0.5193  1.7922 -1.1213
 3516SOL     OW12701   1.850   7.874   9.017  0.0498 -0.3835  0.1424
 3516SOL    HW112702   1.872   7.963   9.043 -0.5840 -0.3712  0.6696
 3516SOL    HW212703   1.878   7.820   9.091  1.4328 -0.7703 -0.6187
 3517SOL     OW12704   0.285   0.892   3.666 -0.8806  0.0234  0.2962
 3517SOL    HW112705   0.249   0.980   3.681 -1.6052 -0.1114 -0.5593
 3517SOL    HW212706   0.241   0.836   3.730 -0.7480  0.1996  0.5440
 3518SOL     OW12707   7.886   5.765   0.185 -0.4281  0.2294  0.1730
 3518SOL    HW112708   7.969   5.769   0.232  0.2011  0.5194 -0.9149
 3518SOL    HW212709   7.838   5.693   0.227  0.5113 -0.1681  0.5961
 3519SOL     OW12710   2.789   0.024   1.385 -0.8317  0.2449 -0.1644
 3519SOL    HW112711   2.853   0.060   1.446  0.6101 -0.1963 -1.3553
 3519SOL    HW212712   2.704   0.047   1.423  0.0173  1.3410  1.1704
 3520SOL     OW12713   8.838   0.600   7.871 -0.6705  0.2923  0.1156
 3520SOL    HW112714   8.905   0.542   7.834  0.2998  0.8644  0.9226
 3520SOL    HW212715   8.874   0.627   7.955 -1.3896  1.5715  0.0292
 3521SOL     OW12716   1.459   6.917   9.012 -0.0387  0.7610  0.2803
 3521SOL    HW112717   1.524   6.948   9.074  0.2651 -0.7176  0.7300
 3521SOL    HW212718   1.460   6.821   9.021 -1.1163  0.6140 -0.8603
 3522SOL     OW12719   3.951   8.817   8.596 -0.0176  0.1095  0.5148
 3522SOL    HW112720   4.011   8.827   8.522 -0.8831  0.6868 -0.1288
 3522SOL    HW212721   3.917   8.905   8.612  0.3299  0.0349  1.7630
 3523SOL     OW12722   5.119   6.296   6.387 -0.1983 -0.3597 -0.3392
 3523SOL    HW112723   5.190   6.236   6.408  0.9216  0.8539 -0.5800
 3523SOL    HW212724   5.070   6.303   6.469 -0.7975 -2.1343 -0.4965
 3524SOL     OW12725   1.672   6.995   1.684  0.2496 -0.5020  0.3057
 3524SOL    HW112726   1.660   6.914   1.634  0.9300 -0.5451  0.2066
 3524SOL    HW212727   1.724   7.051   1.627 -0.3762  0.0875  0.2997
 3525SOL     OW12728   0.099   2.436   0.884 -0.1702 -0.5851 -0.1607
 3525SOL    HW112729   0.026   2.491   0.856  0.0616  0.0705  0.4909
 3525SOL    HW212730   0.076   2.409   0.973  0.5028 -0.1514  0.1535
 3526SOL     OW12731   4.496   5.863   1.985 -0.2589 -0.1587  0.3257
 3526SOL    HW112732   4.435   5.899   2.048 -1.7757 -3.6376  1.0856
 3526SOL    HW212733   4.501   5.770   2.006 -0.1884 -1.4074 -4.1035
 3527SOL     OW12734   1.347   2.619   0.467 -0.7786  0.2737 -0.0806
 3527SOL    HW112735   1.257   2.617   0.499 -0.7284  0.0645  0.0479
 3527SOL    HW212736   1.343   2.672   0.388 -0.8241  1.1734  0.5143
 3528SOL     OW12737   6.766   9.356   4.020  0.5734 -0.6120 -0.3819
 3528SOL    HW112738   6.691   9.328   4.072  1.0387  0.4251  0.9039
 3528SOL    HW212739   6.811   9.421   4.075  0.3719  1.5575 -2.6035
 3529SOL     OW12740   0.829   6.860   1.824  0.1433 -0.4034 -0.3272
 3529SOL    HW112741   0.885   6.795   1.867 -1.3539  0.5406  3.4555
 3529SOL    HW212742   0.859   6.944   1.858 -1.9880  0.3087 -0.0582
 3530SOL     OW12743   2.482   2.699   5.296  0.0083  0.1690 -0.1611
 3530SOL    HW112744   2.558   2.747   5.264  0.3396 -0.4631 -0.3408
 3530SOL    HW212745   2.511   2.608   5.301 -0.1196  0.1877  1.6559
 3531SOL     OW12746   6.732   3.027   1.385 -0.6510 -0.2748  0.4443
 3531SOL    HW112747   6.688   3.000   1.304 -0.1191 -0.3969  0.1914
 3531SOL    HW212748   6.661   3.061   1.440 -1.1357 -0.9571  0.2543
 3532SOL     OW12749   9.176   1.567   1.861 -0.1524  0.1392  0.0476
 3532SOL    HW112750   9.088   1.530   1.869  0.0985 -0.2942  0.9520
 3532SOL    HW212751   9.193   1.570   1.767 -0.9151 -0.2946 -0.1095
 3533SOL     OW12752   0.727   6.733   1.352 -0.2583 -0.1894  0.2620
 3533SOL    HW112753   0.708   6.789   1.427 -0.1687 -0.5632  0.5689
 3533SOL    HW212754   0.645   6.688   1.335 -0.3921  0.1966 -0.1245
 3534SOL     OW12755   3.990   0.269   4.923  0.4288 -0.4546 -0.4827
 3534SOL    HW112756   4.077   0.307   4.911  0.7167 -1.3759 -1.4168
 3534SOL    HW212757   3.986   0.248   5.017  0.2643  1.7857  0.0694
 3535SOL     OW12758   1.895   2.897   7.988  0.2404  0.3824  0.0789
 3535SOL    HW112759   1.818   2.946   8.018  0.2882  0.3973  0.1795
 3535SOL    HW212760   1.926   2.945   7.912 -0.6205 -0.3672 -0.7660
 3536SOL     OW12761   0.603   7.462   7.399 -0.1135 -0.7356 -0.3451
 3536SOL    HW112762   0.698   7.466   7.391 -0.0446 -1.2173  0.2274
 3536SOL    HW212763   0.584   7.371   7.423 -0.6767 -0.5081  0.0878
 3537SOL     OW12764   8.261   8.315   7.681 -0.4234  0.4570 -0.1635
 3537SOL    HW112765   8.336   8.257   7.690  0.8774  1.9668 -0.8437
 3537SOL    HW212766   8.292   8.401   7.710 -2.1714  0.9263  0.4456
 3538SOL     OW12767   7.333   7.862   1.651  0.1327 -0.3227 -0.4095
 3538SOL    HW112768   7.258   7.840   1.706  1.2948 -0.2707  1.2687
 3538SOL    HW212769   7.325   7.804   1.575 -0.8718 -1.2793  0.3941
 3539SOL     OW12770   8.760   0.803   2.668 -0.5209 -0.0952  0.3677
 3539SOL    HW112771   8.848   0.774   2.643 -0.8717 -1.2272  0.3693
 3539SOL    HW212772   8.740   0.875   2.609  0.0836 -0.3848 -0.1943
 3540SOL     OW12773   0.405   9.604   0.955 -0.1889 -0.2088 -0.4474
 3540SOL    HW112774   0.369   9.663   0.889 -0.5686 -0.1339 -0.1702
 3540SOL    HW212775   0.444   9.661   1.021  1.0264 -0.2890 -1.0599
 3541SOL     OW12776   3.241   8.378   1.750  0.2983 -0.3760  0.1229
 3541SOL    HW112777   3.283   8.301   1.787  2.3326  0.9768  0.8235
 3541SOL    HW212778   3.232   8.438   1.824 -1.7076 -0.0885 -0.2995
 3542SOL     OW12779   9.430   2.454   8.202  0.2840 -0.3542 -0.2139
 3542SOL    HW112780   9.492   2.429   8.270  0.3974 -1.0133 -0.5520
 3542SOL    HW212781   9.430   2.550   8.203  1.9124 -0.3240 -0.7518
 3543SOL     OW12782   7.618   4.022   9.571 -0.0361  0.0709 -0.9416
 3543SOL    HW112783   7.636   4.105   9.527  2.4654  0.0370 -0.1253
 3543SOL    HW212784   7.587   3.964   9.501  0.6213  0.9665 -2.0053
 3544SOL     OW12785   0.021   8.921   1.937 -0.2955  0.1997  0.1313
 3544SOL    HW112786   0.066   8.992   1.892  1.3920 -0.7293  0.2355
 3544SOL    HW212787   0.061   8.920   2.024  0.3032 -1.3539 -0.1339
 3545SOL     OW12788   1.639   5.241   4.387 -0.4159  0.3276 -0.3509
 3545SOL    HW112789   1.673   5.292   4.313 -0.8919 -0.3249 -1.0378
 3545SOL    HW212790   1.681   5.156   4.377  0.4170  0.5847  0.8179
 3546SOL     OW12791   6.469   3.677   8.422 -0.1187 -0.6252 -0.5919
 3546SOL    HW112792   6.488   3.652   8.332  1.4515 -0.1825 -0.4239
 3546SOL    HW212793   6.463   3.772   8.420  1.1158 -0.5087 -0.0688
 3547SOL     OW12794   2.161   6.987   0.450 -0.4499 -0.0969 -0.4809
 3547SOL    HW112795   2.214   7.013   0.525  0.1648  0.2177 -1.0089
 3547SOL    HW212796   2.071   6.985   0.483 -0.2504  0.5614  0.1253
 3548SOL     OW12797   7.206   5.244   6.193 -0.1143 -0.0246 -0.1290
 3548SOL    HW112798   7.144   5.257   6.121 -0.0771  1.9182  0.1533
 3548SOL    HW212799   7.206   5.327   6.240  2.8111  0.1054 -0.1772
 3549SOL     OW12800   0.222   8.206   3.842 -0.0138  0.0979  0.6946
 3549SOL    HW112801   0.251   8.126   3.798 -1.9784 -0.5658  0.4988
 3549SOL    HW212802   0.203   8.266   3.770 -1.2535 -0.2696  0.6996
 3550SOL     OW12803   8.715   9.337   6.663 -0.3601 -0.1165 -0.3939
 3550SOL    HW112804   8.640   9.291   6.702 -1.7147  2.1069 -0.2309
 3550SOL    HW212805   8.676   9.396   6.599  1.4653 -0.3735 -1.7975
 3551SOL     OW12806   5.318   1.002   0.050 -0.2445  0.3196 -0.1053
 3551SOL    HW112807   5.246   0.988   0.112 -1.0500 -0.1790 -1.1369
 3551SOL    HW212808   5.305   1.091   0.018  1.3102  1.3408  1.8429
 3552SOL     OW12809   8.877   5.184   3.475  0.7702  0.3701  0.4979
 3552SOL    HW112810   8.957   5.141   3.504  1.1947  0.7466 -0.0917
 3552SOL    HW212811   8.893   5.277   3.490  1.5410  0.7291 -2.1064
 3553SOL     OW12812   0.647   1.706   4.266 -0.2357  0.1577  0.5821
 3553SOL    HW112813   0.619   1.685   4.177  1.2708  0.5637 -0.0200
 3553SOL    HW212814   0.656   1.621   4.308 -2.4397  0.0017  0.8816
 3554SOL     OW12815   8.162   9.323   5.848 -0.0559  0.3702  0.3269
 3554SOL    HW112816   8.253   9.319   5.821 -0.1708  0.4291 -0.0802
 3554SOL    HW212817   8.140   9.233   5.874  0.3598  0.5267  1.2541
 3555SOL     OW12818   4.719   3.523   7.828  0.4823 -0.2650 -0.2292
 3555SOL    HW112819   4.724   3.616   7.805  1.7922 -0.4480 -0.7500
 3555SOL    HW212820   4.797   3.507   7.882  0.1075 -0.9979  0.1178
 3556SOL     OW12821   0.572   5.102   9.292 -0.3335 -0.4372  0.4018
 3556SOL    HW112822   0.648   5.147   9.328 -1.1636  0.1326  1.5176
 3556SOL    HW212823   0.562   5.024   9.348 -0.5436 -0.5303  0.2351
 3557SOL     OW12824   7.163   3.361   1.296 -0.1185  0.1774  0.0539
 3557SOL    HW112825   7.082   3.364   1.347 -0.1989  0.3487 -0.0842
 3557SOL    HW212826   7.231   3.391   1.358 -0.2204  0.4133  0.0514
 3558SOL     OW12827   2.834   5.633   0.977  0.3237 -0.2860 -0.1919
 3558SOL    HW112828   2.884   5.555   0.954 -0.0477 -0.8158  0.7309
 3558SOL    HW212829   2.751   5.599   1.011 -1.5183  0.6178 -3.4666
 3559SOL     OW12830   4.668   3.347   6.281  0.0351 -0.0487  0.3136
 3559SOL    HW112831   4.583   3.373   6.247 -0.3181  1.0757  1.9284
 3559SOL    HW212832   4.716   3.314   6.205 -0.6800  2.3081 -1.2567
 3560SOL     OW12833   5.322   1.264   0.460  0.1036  0.3904  0.3653
 3560SOL    HW112834   5.246   1.287   0.406 -0.9194  1.3642  2.1032
 3560SOL    HW212835   5.396   1.266   0.399 -1.3181 -1.4003 -1.5632
 3561SOL     OW12836   6.439   2.707   9.323  0.0888 -0.4778  0.6097
 3561SOL    HW112837   6.506   2.695   9.391 -0.6505  0.4418  1.5311
 3561SOL    HW212838   6.428   2.619   9.286  0.9622 -0.8757  1.2388
 3562SOL     OW12839   4.903   4.837   9.257  0.5749  0.4393 -0.1295
 3562SOL    HW112840   4.864   4.918   9.290 -0.8741 -0.7704  1.2776
 3562SOL    HW212841   4.846   4.768   9.289  1.5568 -1.1488 -1.6169
 3563SOL     OW12842   0.725   4.278   2.878 -0.0241 -0.1604 -0.2503
 3563SOL    HW112843   0.769   4.206   2.832  3.3162  0.7724  1.1818
 3563SOL    HW212844   0.738   4.354   2.822 -0.5703 -0.0177 -0.1887
 3564SOL     OW12845   3.751   0.087   0.122 -0.1366  0.5641 -0.7507
 3564SOL    HW112846   3.769   0.175   0.155 -0.7689  0.2646  0.4488
 3564SOL    HW212847   3.660   0.071   0.145 -0.6311  0.3350 -2.7238
 3565SOL     OW12848   8.465   6.444   3.709 -0.5462 -0.4241 -0.0602
 3565SOL    HW112849   8.392   6.419   3.765 -1.9286  3.9473  0.5128
 3565SOL    HW212850   8.534   6.472   3.770 -0.3167  0.0783 -0.5361
 3566SOL     OW12851   4.039   5.732   6.598  0.5770  1.0094  0.0107
 3566SOL    HW112852   4.133   5.722   6.585  0.6872  1.5272  0.3979
 3566SOL    HW212853   4.028   5.745   6.692  0.0473  0.2589  0.0661
 3567SOL     OW12854   5.363   7.522   8.135  0.3148  0.6959  0.3398
 3567SOL    HW112855   5.416   7.522   8.056  0.5048  1.0826  0.4694
 3567SOL    HW212856   5.425   7.503   8.206  0.1579  0.4242  0.4074
 3568SOL     OW12857   3.087   8.101   7.040  0.2489 -0.0412 -0.0251
 3568SOL    HW112858   3.175   8.130   7.018  0.0175  0.2367 -0.6046
 3568SOL    HW212859   3.039   8.182   7.059 -0.2522 -0.0666 -1.1038
 3569SOL     OW12860   8.556   8.964   8.038 -0.2080  0.2349 -0.0548
 3569SOL    HW112861   8.526   9.033   7.978 -1.5827  0.1549  0.4895
 3569SOL    HW212862   8.650   8.977   8.045  0.2183 -0.4948 -3.1524
 3570SOL     OW12863   5.294   6.397   5.053  0.0754 -0.2194 -0.4228
 3570SOL    HW112864   5.253   6.416   4.968 -2.1276 -2.0593  0.1411
 3570SOL    HW212865   5.293   6.302   5.059  1.3147 -0.1621  1.1852
 3571SOL     OW12866   6.362   5.769   0.264 -0.7523 -0.8907 -0.3388
 3571SOL    HW112867   6.313   5.788   0.344 -1.0444 -1.8927 -0.2629
 3571SOL    HW212868   6.403   5.684   0.281 -0.3112 -0.8208 -1.0186
 3572SOL     OW12869   4.227   5.637   5.703  0.7861 -0.3334  0.2633
 3572SOL    HW112870   4.268   5.590   5.630  1.7399  1.0860 -0.1620
 3572SOL    HW212871   4.277   5.610   5.780  3.1222  1.8641 -0.3328
 3573SOL     OW12872   2.015   2.189   8.330 -0.4018  0.7463  0.3049
 3573SOL    HW112873   1.983   2.265   8.282  0.8423  1.2680  0.2792
 3573SOL    HW212874   2.019   2.119   8.265 -0.3818  0.9783  0.0552
 3574SOL     OW12875   5.966   0.242   0.105 -0.4060  0.1015  0.5754
 3574SOL    HW112876   5.949   0.315   0.046  0.4248 -0.1288  0.0516
 3574SOL    HW212877   5.947   0.278   0.192 -2.2217  0.2668  0.1631
 3575SOL     OW12878   4.144   0.405   3.255  0.1108 -0.4767  0.2493
 3575SOL    HW112879   4.049   0.399   3.255 -0.0210  1.1042  0.0368
 3575SOL    HW212880   4.171   0.370   3.340 -0.6641 -0.7966  0.3687
 3576SOL     OW12881   0.844   6.793   3.851  0.1212  0.6633  0.4951
 3576SOL    HW112882   0.856   6.764   3.760  0.6295  0.3632  0.6530
 3576SOL    HW212883   0.754   6.769   3.872  0.1365  0.3395  0.2064
 3577SOL     OW12884   8.865   0.593   7.548 -0.1521 -0.2438  0.1509
 3577SOL    HW112885   8.921   0.631   7.479 -0.1751 -0.2495  0.1292
 3577SOL    HW212886   8.847   0.667   7.607  1.0520 -0.5562  0.9443
 3578SOL     OW12887   7.343   6.214   5.282 -0.1330 -0.8781  0.2625
 3578SOL    HW112888   7.343   6.280   5.352 -0.8206  0.3399 -0.8323
 3578SOL    HW212889   7.309   6.135   5.324 -0.3566 -0.2316  1.3539
 3579SOL     OW12890   7.704   6.817   3.382 -0.4214  0.2860  0.1695
 3579SOL    HW112891   7.635   6.765   3.342 -0.5003 -1.4525  2.3235
 3579SOL    HW212892   7.785   6.768   3.365 -0.1979  0.5397  0.4629
 3580SOL     OW12893   7.150   0.461   1.902 -0.5440  0.1365 -0.3387
 3580SOL    HW112894   7.244   0.459   1.920 -0.5860  0.2595 -0.1040
 3580SOL    HW212895   7.118   0.376   1.932 -0.7613  0.6671  0.9969
 3581SOL     OW12896   6.092   2.569   6.512 -1.0055 -0.1318 -0.3155
 3581SOL    HW112897   6.054   2.567   6.600 -0.4381 -2.3018 -0.0590
 3581SOL    HW212898   6.173   2.519   6.521  0.0270  1.2000 -1.6901
 3582SOL     OW12899   1.643   8.841   5.342  0.1857  0.4664  0.3748
 3582SOL    HW112900   1.708   8.867   5.276  0.3986 -0.1925  0.3197
 3582SOL    HW212901   1.679   8.873   5.424  0.0609  1.0393  0.2091
 3583SOL     OW12902   2.300   0.533   7.208 -0.2502  0.6761  0.2878
 3583SOL    HW112903   2.319   0.512   7.117 -0.3639  1.8693 -0.0284
 3583SOL    HW212904   2.314   0.628   7.214  1.1463  0.4150  1.8469
 3584SOL     OW12905   5.342   2.091   5.473 -0.3591  0.5463  0.0214
 3584SOL    HW112906   5.369   2.004   5.502 -2.9713 -0.8664 -1.4018
 3584SOL    HW212907   5.339   2.143   5.554  2.1413 -0.3297  0.7717
 3585SOL     OW12908   7.321   7.149   6.719 -0.3369  0.9202  0.0805
 3585SOL    HW112909   7.334   7.092   6.795 -0.7244  0.5862 -0.1043
 3585SOL    HW212910   7.360   7.233   6.746 -0.2319  0.7273  0.5468
 3586SOL     OW12911   6.983   7.713   4.362  0.2573  0.6535  0.1876
 3586SOL    HW112912   7.058   7.674   4.408 -0.6777  0.4003  1.5558
 3586SOL    HW212913   7.016   7.798   4.332  1.5371 -0.0697 -0.5551
 3587SOL     OW12914   7.080   3.619   9.513  0.4809  0.4122 -0.3374
 3587SOL    HW112915   7.029   3.647   9.437 -0.8645  2.5602  1.2672
 3587SOL    HW212916   7.137   3.694   9.532  1.6664 -0.5652  0.0815
 3588SOL     OW12917   2.309   5.052   8.701 -0.1742 -0.3754 -0.1297
 3588SOL    HW112918   2.224   5.060   8.658 -0.2368  2.6312  0.3490
 3588SOL    HW212919   2.360   4.994   8.644 -1.7574 -0.2731 -1.7097
 3589SOL     OW12920   0.521   5.634   1.800  0.1394  0.7477 -0.0314
 3589SOL    HW112921   0.459   5.609   1.869 -0.0917 -0.3950 -0.6235
 3589SOL    HW212922   0.502   5.726   1.783  1.4956  1.6619  2.7498
 3590SOL     OW12923   2.704   9.409   9.599 -0.1785 -0.1248 -0.3156
 3590SOL    HW112924   2.631   9.470   9.607 -1.0678 -0.8392 -2.2855
 3590SOL    HW212925   2.663   9.322   9.602  0.8350 -0.6008  0.4732
 3591SOL     OW12926   4.686   2.883   3.266  0.0148  0.1255 -0.2784
 3591SOL    HW112927   4.713   2.844   3.183 -2.3100 -0.3002 -0.8963
 3591SOL    HW212928   4.641   2.964   3.241  1.5597  1.3822  0.7759
 3592SOL     OW12929   3.264   2.396   5.757  0.2407  0.6259  0.3704
 3592SOL    HW112930   3.262   2.320   5.815  0.5666  1.5450  1.6256
 3592SOL    HW212931   3.176   2.401   5.720 -0.3373  0.6836  1.6943
 3593SOL     OW12932   3.782   9.415   7.056  0.0932  0.4225  0.5802
 3593SOL    HW112933   3.715   9.427   7.123 -0.1544  0.2717  0.3597
 3593SOL    HW212934   3.783   9.321   7.040 -1.8961  0.7106 -1.7075
 3594SOL     OW12935   1.142   9.251   6.683  0.2155  0.9613  0.1081
 3594SOL    HW112936   1.237   9.262   6.678  0.5034 -0.2483  1.8999
 3594SOL    HW212937   1.124   9.171   6.633  0.4147  0.1584  1.2827
 3595SOL     OW12938   9.078   1.984   0.078 -1.1672  0.0724  0.5141
 3595SOL    HW112939   9.063   1.981  -0.017  1.7712 -1.2295 -0.0096
 3595SOL    HW212940   9.104   2.074   0.095 -1.4225  0.2427  0.0454
 3596SOL     OW12941   8.664   9.386   1.673  0.4870  0.0606 -0.3075
 3596SOL    HW112942   8.665   9.403   1.767  1.7940  1.3827 -0.5084
 3596SOL    HW212943   8.700   9.467   1.634 -0.2089 -0.3780 -1.9455
 3597SOL     OW12944   9.629   2.080   2.266 -0.3153  0.1359  0.8381
 3597SOL    HW112945   9.708   2.090   2.212 -0.3127 -0.7967  0.6526
 3597SOL    HW212946   9.557   2.075   2.203 -0.4240  0.0938  0.9656
 3598SOL     OW12947   2.181   6.587   1.943 -0.6407  0.3517 -0.0598
 3598SOL    HW112948   2.141   6.666   1.908 -2.6457 -0.1191  1.0286
 3598SOL    HW212949   2.263   6.617   1.982 -1.8467  2.1355  1.2949
 3599SOL     OW12950   6.511   3.496   7.488  0.0742 -0.3760 -0.2864
 3599SOL    HW112951   6.478   3.513   7.577  0.9088  1.0490 -0.2157
 3599SOL    HW212952   6.432   3.491   7.434 -0.3867  0.3022  0.3028
 3600SOL     OW12953   3.653   8.869   2.322 -0.2884 -0.3942  0.2601
 3600SOL    HW112954   3.725   8.909   2.273  1.6495 -1.9711  1.6641
 3600SOL    HW212955   3.655   8.912   2.408 -0.1592 -1.3460  0.7490
 3601SOL     OW12956   5.129   8.193   8.438  0.1334  0.4458 -0.1403
 3601SOL    HW112957   5.092   8.153   8.359  0.6431 -1.4905  0.5491
 3601SOL    HW212958   5.053   8.216   8.491 -0.1664 -0.1562 -0.3025
 3602SOL     OW12959   1.535   2.012   2.356  0.1061 -0.3308 -0.3934
 3602SOL    HW112960   1.493   1.926   2.367 -1.4462  0.4973  0.5862
 3602SOL    HW212961   1.628   1.996   2.372  0.0004 -1.9920 -1.1963
 3603SOL     OW12962   3.998   0.972   6.528 -0.1850  0.3078  0.0372
 3603SOL    HW112963   4.057   0.925   6.586 -0.5777  1.5639  1.5035
 3603SOL    HW212964   3.932   0.907   6.503  0.4340 -0.4525  0.3517
 3604SOL     OW12965   6.324   9.380   8.539 -0.6146 -0.1013  0.1184
 3604SOL    HW112966   6.287   9.298   8.573  0.4274 -0.5880  0.1479
 3604SOL    HW212967   6.278   9.395   8.457 -1.5667 -0.1348  0.6308
 3605SOL     OW12968   5.166   5.109   5.122 -0.2537  0.7386 -0.0645
 3605SOL    HW112969   5.197   5.198   5.104 -0.3989  0.7845 -0.0857
 3605SOL    HW212970   5.238   5.069   5.170 -0.0665  0.7738 -0.3097
 3606SOL     OW12971   1.505   1.542   2.510  0.1670  0.0559 -0.2622
 3606SOL    HW112972   1.433   1.576   2.562  0.1579 -0.5916  0.1583
 3606SOL    HW212973   1.567   1.507   2.574 -0.3392 -1.7479 -0.6871
 3607SOL     OW12974   4.637   8.925   4.078  0.3414 -0.3577  0.3689
 3607SOL    HW112975   4.655   8.889   4.164 -0.7992 -2.6645 -0.2830
 3607SOL    HW212976   4.684   9.008   4.076  1.7865 -1.0561  2.5574
 3608SOL     OW12977   4.255   1.600   5.966 -1.0359 -0.0029  0.0871
 3608SOL    HW112978   4.288   1.546   5.895  0.1120  0.5174  0.1944
 3608SOL    HW212979   4.186   1.548   6.006 -2.1520 -0.0576 -1.7739
 3609SOL     OW12980   8.656   4.167   2.375 -0.1942  0.0835  0.5668
 3609SOL    HW112981   8.666   4.091   2.432 -1.2704  1.5024  2.7511
 3609SOL    HW212982   8.608   4.134   2.299  1.1139 -1.8093  0.4950
 3610SOL     OW12983   6.403   4.023   8.904  0.2447  0.7402  0.2880
 3610SOL    HW112984   6.451   4.105   8.918  0.2744  0.5409  1.4784
 3610SOL    HW212985   6.412   3.976   8.987  0.3613 -0.5418 -0.4291
 3611SOL     OW12986   0.794   6.699   4.116 -0.4486 -0.6165 -0.3866
 3611SOL    HW112987   0.861   6.727   4.054 -0.4001  0.0353 -0.0581
 3611SOL    HW212988   0.820   6.611   4.143  0.6950 -0.0899  0.2984
 3612SOL     OW12989   2.212   6.398   4.191  0.1305 -0.1379 -0.3758
 3612SOL    HW112990   2.144   6.332   4.176 -0.2269  0.1645 -0.1017
 3612SOL    HW212991   2.170   6.463   4.247  0.5209  0.2614 -0.5458
 3613SOL     OW12992   5.682   3.678   3.388 -0.4815 -0.4792 -1.0739
 3613SOL    HW112993   5.778   3.678   3.398 -0.3321  0.0226 -2.3670
 3613SOL    HW212994   5.660   3.588   3.366 -0.4096 -0.7606 -0.0759
 3614SOL     OW12995   2.907   7.979   3.013 -0.1961 -0.1075 -0.3268
 3614SOL    HW112996   2.817   7.956   2.992 -0.3021  0.5353 -0.5886
 3614SOL    HW212997   2.960   7.913   2.967 -0.4483  0.7586 -1.9214
 3615SOL     OW12998   9.385   8.997   8.174 -0.4445  0.0771  0.2681
 3615SOL    HW112999   9.476   8.969   8.182 -0.2630  0.1129 -1.4300
 3615SOL    HW213000   9.335   8.926   8.214  0.2674 -0.5003  0.1522
 3616SOL     OW13001   7.288   8.662   3.949 -0.7524 -0.1308 -0.0549
 3616SOL    HW113002   7.336   8.581   3.968  1.4459  1.1107  0.0428
 3616SOL    HW213003   7.329   8.696   3.870 -1.4616  1.0271  0.0506
 3617SOL     OW13004   1.355   4.532   8.184 -0.1141 -0.0642 -0.4489
 3617SOL    HW113005   1.310   4.465   8.235  1.0044 -1.6014 -1.3983
 3617SOL    HW213006   1.292   4.556   8.116 -0.8207  0.4649  0.3752
 3618SOL     OW13007   1.194   7.660   0.606 -0.0484  0.5364 -0.2683
 3618SOL    HW113008   1.288   7.646   0.598  0.0025  1.4129 -1.8431
 3618SOL    HW213009   1.158   7.574   0.626  1.1536  0.3593  1.2594
 3619SOL     OW13010   5.604   2.170   6.306 -0.1175  0.1409  1.0859
 3619SOL    HW113011   5.581   2.259   6.334  0.1277 -0.0116  1.7865
 3619SOL    HW213012   5.522   2.122   6.309 -0.6934  0.8251 -1.2998
 3620SOL     OW13013   2.015   1.780   2.597 -0.7097  0.0610  0.2196
 3620SOL    HW113014   1.966   1.711   2.552  1.5539 -2.4019  1.2450
 3620SOL    HW213015   2.012   1.755   2.690  0.7274  0.9630  0.5436
 3621SOL     OW13016   5.048   5.280   5.663  0.0591 -0.5497  0.5187
 3621SOL    HW113017   5.031   5.229   5.742  0.6402 -2.1064 -0.3249
 3621SOL    HW213018   4.965   5.279   5.616  0.3435 -1.6719  0.0017
 3622SOL     OW13019   6.745   5.121   5.838 -0.4421 -0.3566 -0.2737
 3622SOL    HW113020   6.696   5.040   5.831  0.7389 -1.0182 -1.4902
 3622SOL    HW213021   6.781   5.135   5.750 -0.5780  1.4721 -0.0887
 3623SOL     OW13022   2.527   0.820   8.860  0.3033  0.0422  0.1694
 3623SOL    HW113023   2.452   0.873   8.885  0.1649 -0.4221  0.7682
 3623SOL    HW213024   2.539   0.837   8.766 -1.7416 -1.2942 -0.4089
 3624SOL     OW13025   0.285   8.337   5.611 -0.0526 -0.5061  0.2009
 3624SOL    HW113026   0.322   8.357   5.698  0.0869  2.1242 -0.3802
 3624SOL    HW213027   0.191   8.351   5.621 -0.2696 -1.9358  0.3332
 3625SOL     OW13028   8.789   9.352   4.156  0.1779  0.7362 -0.6684
 3625SOL    HW113029   8.698   9.370   4.134 -1.0509 -0.2728  2.9098
 3625SOL    HW213030   8.795   9.256   4.160  0.8254  0.8037  0.9193
 3626SOL     OW13031   7.020   2.966   7.649 -0.0734 -0.3411 -0.5505
 3626SOL    HW113032   7.114   2.952   7.657 -0.1673 -0.5111  0.5106
 3626SOL    HW213033   7.009   3.061   7.646  0.1815 -0.3391 -1.5444
 3627SOL     OW13034   5.569   9.467   9.412  0.0988  0.4122 -0.5190
 3627SOL    HW113035   5.510   9.482   9.338  0.0704  0.6810 -0.4440
 3627SOL    HW213036   5.592   9.375   9.406 -0.4024  0.2830 -0.4973
 3628SOL     OW13037   9.275   3.018   6.536  0.0039 -0.4312 -0.0093
 3628SOL    HW113038   9.211   3.089   6.529  0.6893  0.1862 -0.1838
 3628SOL    HW213039   9.222   2.938   6.538 -0.7666  0.0606 -0.1682
 3629SOL     OW13040   7.284   2.483   8.166 -0.3937  0.1696  0.1629
 3629SOL    HW113041   7.208   2.466   8.111 -0.2820 -0.5538  0.2226
 3629SOL    HW213042   7.248   2.499   8.253 -0.4725 -0.3261  0.2233
 3630SOL     OW13043   2.192   0.947   6.631  0.6497  0.3912 -0.2313
 3630SOL    HW113044   2.189   1.042   6.628 -0.8287  0.3573 -0.6188
 3630SOL    HW213045   2.102   0.920   6.653  1.3237 -0.8780  1.2169
 3631SOL     OW13046   7.435   1.165   5.497 -0.2497  0.5322  0.5517
 3631SOL    HW113047   7.385   1.239   5.530  1.1327  1.4309  0.6932
 3631SOL    HW213048   7.524   1.178   5.531  0.6608  0.2484 -1.5643
 3632SOL     OW13049   1.208   6.352   6.088  0.7811  0.4321 -0.1927
 3632SOL    HW113050   1.289   6.306   6.112  0.3094 -0.3840 -0.1153
 3632SOL    HW213051   1.238   6.437   6.054  1.6884  0.0290 -0.4511
 3633SOL     OW13052   6.184   1.374   8.475  0.0351 -0.2099  0.8110
 3633SOL    HW113053   6.271   1.403   8.502 -0.3817  0.7593  1.1630
 3633SOL    HW213054   6.166   1.299   8.531 -0.1954  0.8552  2.2289
 3634SOL     OW13055   0.532   9.043   7.420  0.0805 -0.1560 -0.3032
 3634SOL    HW113056   0.489   9.021   7.503  0.1053  0.8582 -0.0097
 3634SOL    HW213057   0.482   9.118   7.386 -0.3809 -1.0076 -1.5769
 3635SOL     OW13058   9.081   6.401   0.275 -0.3776  0.0129  0.0870
 3635SOL    HW113059   9.164   6.398   0.322 -0.9458 -0.9348  1.0597
 3635SOL    HW213060   9.033   6.324   0.305 -1.3807  0.2276 -0.8970
 3636SOL     OW13061   1.453   2.197   7.307 -0.2857 -0.2564  0.3657
 3636SOL    HW113062   1.377   2.230   7.260  0.0528  0.8868  0.5658
 3636SOL    HW213063   1.425   2.114   7.344 -1.0981 -0.3523 -0.4237
 3637SOL     OW13064   3.452   7.503   1.005  0.1809 -0.2768  0.2012
 3637SOL    HW113065   3.372   7.539   1.043  0.5951  1.1910 -0.2207
 3637SOL    HW213066   3.435   7.500   0.911 -0.0093 -1.6888  0.2599
 3638SOL     OW13067   2.015   7.513   3.790 -0.2408 -0.5219  0.0945
 3638SOL    HW113068   2.031   7.560   3.872  1.0594 -0.0410 -0.4038
 3638SOL    HW213069   1.923   7.488   3.795 -0.5579  0.6980  1.0905
 3639SOL     OW13070   3.668   1.453   4.470  0.3910  0.0492 -0.1281
 3639SOL    HW113071   3.625   1.496   4.544 -2.4734  1.6232 -2.4698
 3639SOL    HW213072   3.609   1.382   4.446 -0.2959  1.3534 -2.5749
 3640SOL     OW13073   7.581   1.488   3.153 -0.2093  0.2253  0.6196
 3640SOL    HW113074   7.575   1.528   3.066 -1.7966 -2.2810 -0.5297
 3640SOL    HW213075   7.675   1.473   3.166  0.1419  1.5931 -0.1417
 3641SOL     OW13076   3.209   1.228   9.211 -0.2230 -0.0956 -0.3364
 3641SOL    HW113077   3.165   1.260   9.290  0.4941 -0.2863  0.1493
 3641SOL    HW213078   3.218   1.134   9.226  2.5726  0.2540  0.7223
 3642SOL     OW13079   1.725   3.472   4.723  0.2551  0.0836  0.0116
 3642SOL    HW113080   1.660   3.524   4.675  0.6179  0.2036 -0.3520
 3642SOL    HW213081   1.716   3.384   4.687  1.0725  0.3360 -0.8577
 3643SOL     OW13082   6.806   8.174   7.315  0.4770  0.0620  0.1231
 3643SOL    HW113083   6.880   8.201   7.261  0.7271  0.7887  0.8104
 3643SOL    HW213084   6.729   8.205   7.267  0.7375  1.5787  0.6266
 3644SOL     OW13085   1.393   4.192   0.446 -0.3544 -0.1544 -0.2726
 3644SOL    HW113086   1.375   4.271   0.496  1.0403  1.0410 -1.5655
 3644SOL    HW213087   1.308   4.164   0.414 -1.2988 -0.9326  2.5955
 3645SOL     OW13088   0.713   8.429   4.913 -0.1235 -0.1550 -0.3299
 3645SOL    HW113089   0.770   8.465   4.844  1.6327 -0.6576  0.7783
 3645SOL    HW213090   0.774   8.388   4.974 -1.5415  0.8812  1.8901
 3646SOL     OW13091   7.965   2.012   6.208 -0.1929  0.4334  0.2963
 3646SOL    HW113092   7.884   1.968   6.182 -0.5511  0.9457  0.5438
 3646SOL    HW213093   8.011   2.029   6.126 -0.9360  1.3020  0.0533
 3647SOL     OW13094   0.635   3.836   2.591  0.0793 -0.1512  0.3138
 3647SOL    HW113095   0.631   3.764   2.654 -1.4922 -1.2376 -0.9284
 3647SOL    HW213096   0.717   3.822   2.544  0.2211 -0.6066  0.6899
 3648SOL     OW13097   2.647   7.797   1.708  0.2262  0.3924 -0.1289
 3648SOL    HW113098   2.665   7.713   1.751  1.3841  1.1851  1.0397
 3648SOL    HW213099   2.731   7.823   1.670  0.3287  1.7553  0.9309
 3649SOL     OW13100   6.599   8.744   0.761  0.2322  0.2453  0.3162
 3649SOL    HW113101   6.609   8.813   0.826  1.1292  1.3257 -0.8991
 3649SOL    HW213102   6.595   8.663   0.812  1.3559  1.0089  1.6926
 3650SOL     OW13103   6.381   3.334   0.972 -0.0342  0.0879 -0.0463
 3650SOL    HW113104   6.349   3.372   1.054  0.6266  0.5118  0.0166
 3650SOL    HW213105   6.311   3.351   0.909  0.4286  1.8386 -0.1365
 3651SOL     OW13106   8.675   3.261   2.652 -0.1419 -0.4148  0.2578
 3651SOL    HW113107   8.733   3.252   2.577  2.4137 -0.6353  2.1336
 3651SOL    HW213108   8.649   3.171   2.673 -1.7449 -0.2696 -0.9445
 3652SOL     OW13109   8.217   8.568   1.111  0.1495 -0.6963 -0.3367
 3652SOL    HW113110   8.136   8.608   1.080  0.3398 -0.3718 -0.4160
 3652SOL    HW213111   8.266   8.546   1.032  1.2098  1.3043 -0.2944
 3653SOL     OW13112   2.911   9.376   0.121  0.1080  0.0802 -0.0478
 3653SOL    HW113113   2.844   9.409   0.062 -0.0725  0.7514  0.5154
 3653SOL    HW213114   2.863   9.326   0.187  0.3717 -1.2530 -0.8374
 3654SOL     OW13115   1.903   3.586   7.161  0.1177  0.0618  0.3539
 3654SOL    HW113116   1.859   3.508   7.194 -0.2018  0.3315  0.5570
 3654SOL    HW213117   1.996   3.571   7.181  0.1323 -0.5119 -0.0943
 3655SOL     OW13118   0.688   0.430   4.062  0.3650  0.0675 -0.3147
 3655SOL    HW113119   0.732   0.450   4.145  1.3751  2.1455 -1.2648
 3655SOL    HW213120   0.602   0.470   4.070  0.8265  1.1692 -0.5924
 3656SOL     OW13121   2.347   0.644   8.499 -0.3881 -0.0000  0.4397
 3656SOL    HW113122   2.387   0.651   8.585 -1.6888 -1.5111  1.2196
 3656SOL    HW213123   2.364   0.554   8.472  0.3553  0.5688 -1.0893
 3657SOL     OW13124   3.156   0.760   6.117 -0.0442  0.1885 -0.1635
 3657SOL    HW113125   3.205   0.836   6.085  0.1906 -0.0345 -0.3304
 3657SOL    HW213126   3.207   0.684   6.090 -0.0237 -0.0168  0.4400
 3658SOL     OW13127   0.277   8.129   1.678 -0.6082 -0.8584  0.4086
 3658SOL    HW113128   0.343   8.180   1.631  2.3276 -3.1606  1.6932
 3658SOL    HW213129   0.285   8.157   1.769 -2.7963  0.0909  0.3732
 3659SOL     OW13130   9.355   7.955   7.389  0.3477  0.0183  0.3620
 3659SOL    HW113131   9.262   7.966   7.372  0.1966 -0.7880  0.6572
 3659SOL    HW213132   9.361   7.885   7.453  1.1861 -0.3900 -0.1323
 3660SOL     OW13133   0.266   6.014   2.901 -0.1757 -0.4163 -0.6580
 3660SOL    HW113134   0.352   6.055   2.912 -0.0193 -0.6455 -0.9907
 3660SOL    HW213135   0.206   6.088   2.889  0.0475 -0.2668 -0.8862
 3661SOL     OW13136   6.607   7.541   8.681 -0.0668 -0.6340  0.3772
 3661SOL    HW113137   6.697   7.571   8.677  0.4379 -2.1455 -0.5284
 3661SOL    HW213138   6.572   7.578   8.763  1.5044 -0.4175  0.9763
 3662SOL     OW13139   0.600   6.991   3.443  0.2812 -0.5022 -0.2606
 3662SOL    HW113140   0.666   7.052   3.409 -0.6536  0.2643 -0.7397
 3662SOL    HW213141   0.646   6.907   3.448  2.1399  0.5147  2.0510
 3663SOL     OW13142   2.458   5.335   7.549 -0.1545 -0.0870 -0.0717
 3663SOL    HW113143   2.552   5.341   7.565  0.2422 -0.7262 -1.8403
 3663SOL    HW213144   2.417   5.343   7.635  1.4209  1.9079  0.5711
 3664SOL     OW13145   0.689   0.304   7.222  0.1340 -0.5346  0.0393
 3664SOL    HW113146   0.685   0.249   7.301 -0.5620 -0.2877  0.1836
 3664SOL    HW213147   0.709   0.391   7.255  0.1256 -0.4871 -0.0822
 3665SOL     OW13148   8.973   0.733   1.760 -0.3894 -0.3777  0.5682
 3665SOL    HW113149   9.010   0.797   1.821  0.4770  0.6548 -0.9676
 3665SOL    HW213150   9.046   0.676   1.738 -0.7028 -0.7598  0.5011
 3666SOL     OW13151   7.993   4.380   5.015  0.0528  0.3509  0.4011
 3666SOL    HW113152   7.904   4.356   5.040  0.5897 -1.4800  0.6653
 3666SOL    HW213153   8.007   4.335   4.932  0.8693  0.2788  0.5715
 3667SOL     OW13154   4.171   5.089   7.978  0.0854  0.6794 -0.3097
 3667SOL    HW113155   4.135   5.171   7.944  0.0635  1.0156  0.4959
 3667SOL    HW213156   4.195   5.039   7.900  0.4166  1.5893 -0.8029
 3668SOL     OW13157   8.557   6.449   1.575 -0.1546  0.1096 -0.1004
 3668SOL    HW113158   8.462   6.436   1.586 -0.1549 -0.1688 -0.4111
 3668SOL    HW213159   8.579   6.516   1.640 -0.4308 -0.3593  0.4978
 3669SOL     OW13160   5.983   9.194   8.034 -0.0970 -0.6219  0.1760
 3669SOL    HW113161   6.000   9.174   8.127 -1.1088 -0.6949  0.3552
 3669SOL    HW213162   6.067   9.224   8.001  0.4204 -1.1322  0.9798
 3670SOL     OW13163   6.777   0.233   2.972 -0.0112 -0.5284 -1.0458
 3670SOL    HW113164   6.732   0.193   3.046 -3.6839  1.7255 -1.8187
 3670SOL    HW213165   6.826   0.305   3.010  0.7307 -1.2839 -0.5195
 3671SOL     OW13166   8.212   3.841   3.626 -0.5198  0.4593  0.1965
 3671SOL    HW113167   8.236   3.934   3.620  1.9155 -0.1068 -0.0434
 3671SOL    HW213168   8.150   3.828   3.554  0.5916  1.5216 -1.0173
 3672SOL     OW13169   8.834   7.707   3.077 -0.1454 -0.0887  0.1153
 3672SOL    HW113170   8.907   7.754   3.038 -2.3368  1.4280 -2.5108
 3672SOL    HW213171   8.866   7.617   3.087  2.5448  0.8391  0.6406
 3673SOL     OW13172   1.295   5.187   2.664  0.2789 -0.0809  0.2756
 3673SOL    HW113173   1.250   5.125   2.722  0.5759  0.3272  0.9581
 3673SOL    HW213174   1.255   5.272   2.683  0.9426  0.1945  0.4999
 3674SOL     OW13175   4.404   5.411   4.808 -0.2016 -0.0357 -0.6135
 3674SOL    HW113176   4.458   5.459   4.871 -0.5945  1.4513 -1.3582
 3674SOL    HW213177   4.315   5.416   4.844 -0.6318  1.8691 -1.8234
 3675SOL     OW13178   4.403   4.388   8.655  0.2249 -0.4770  0.7677
 3675SOL    HW113179   4.354   4.364   8.576 -1.8722  1.8658  1.2379
 3675SOL    HW213180   4.489   4.414   8.623 -1.3201  2.8069 -1.1994
 3676SOL     OW13181   4.138   5.898   6.074  0.6241  0.2330 -0.0616
 3676SOL    HW113182   4.145   5.904   5.979 -0.1235  0.0570 -0.1281
 3676SOL    HW213183   4.198   5.827   6.098 -0.3937 -0.8206 -0.5611
 3677SOL     OW13184   9.609   1.842   1.441  0.8101 -0.3052 -0.1684
 3677SOL    HW113185   9.513   1.837   1.446  0.8420 -0.6354  0.2688
 3677SOL    HW213186   9.634   1.767   1.386  0.7929  0.0323 -0.6376
 3678SOL     OW13187   7.738   1.256   1.093 -0.4106  0.6707  0.6641
 3678SOL    HW113188   7.748   1.343   1.054 -1.4372  0.3086 -0.4765
 3678SOL    HW213189   7.818   1.243   1.144  0.7778  1.3687 -0.9506
 3679SOL     OW13190   7.656   9.086   2.492  0.1770  0.2670 -0.3600
 3679SOL    HW113191   7.721   9.095   2.422 -1.0872  0.0376 -1.6187
 3679SOL    HW213192   7.684   9.148   2.559  0.9884  1.0911 -1.4239
 3680SOL     OW13193   5.417   7.313   3.010  0.3656 -0.0731 -0.0773
 3680SOL    HW113194   5.337   7.365   3.016  0.0009 -0.4971 -1.0401
 3680SOL    HW213195   5.467   7.336   3.088 -0.2590  0.9323  0.0386
 3681SOL     OW13196   2.176   0.222   6.174 -0.1417  0.0512 -0.2077
 3681SOL    HW113197   2.183   0.301   6.228  2.0877  1.4684 -2.3290
 3681SOL    HW213198   2.198   0.151   6.234 -2.4000  0.9208  1.8206
 3682SOL     OW13199   1.218   4.121   7.387 -0.4347  0.0063  0.3538
 3682SOL    HW113200   1.222   4.177   7.310  0.2538 -0.1224  0.2825
 3682SOL    HW213201   1.300   4.071   7.383 -0.6735 -0.4209  0.8465
 3683SOL     OW13202   0.991   4.453   2.790 -0.3430 -0.1648  0.5078
 3683SOL    HW113203   1.050   4.529   2.786  1.8150 -1.8058 -0.7360
 3683SOL    HW213204   1.030   4.396   2.856  0.0651 -1.7180 -1.0230
 3684SOL     OW13205   4.153   2.232   4.448  0.0976  0.4050  0.3939
 3684SOL    HW113206   4.209   2.183   4.388 -2.0476 -1.6384 -0.0567
 3684SOL    HW213207   4.100   2.288   4.391  0.5910  1.2419  0.7209
 3685SOL     OW13208   0.422   2.528   3.950 -0.4393  0.1818  0.2464
 3685SOL    HW113209   0.407   2.562   4.038  0.5111  0.5040  0.2964
 3685SOL    HW213210   0.394   2.436   3.955 -0.5614  0.2471  0.8358
 3686SOL     OW13211   8.283   7.184   8.804  0.1579 -0.0397  0.6639
 3686SOL    HW113212   8.215   7.248   8.824 -1.0252 -0.6729 -1.0773
 3686SOL    HW213213   8.335   7.178   8.884 -0.4911  2.0983  1.3001
 3687SOL     OW13214   4.612   9.364   2.351  0.0489  0.1243  0.2571
 3687SOL    HW113215   4.576   9.444   2.387 -0.6767  0.7995 -1.8262
 3687SOL    HW213216   4.694   9.391   2.310  0.4020 -0.4368  0.5792
 3688SOL     OW13217   6.823   7.472   5.166  0.0974 -0.5532 -0.1100
 3688SOL    HW113218   6.781   7.516   5.092 -1.4708 -0.0394  1.0435
 3688SOL    HW213219   6.833   7.541   5.232  1.4204 -1.0163  0.2088
 3689SOL     OW13220   7.042   6.164   7.716 -0.2784  0.0195  0.0407
 3689SOL    HW113221   6.952   6.193   7.699 -0.3566  1.1726  2.0035
 3689SOL    HW213222   7.082   6.238   7.761  1.4419 -0.7520 -0.1618
 3690SOL     OW13223   3.125   7.478   0.875  0.2260 -0.1528 -0.6242
 3690SOL    HW113224   3.095   7.565   0.850  1.4853  0.6064  0.4247
 3690SOL    HW213225   3.205   7.465   0.826 -0.1386 -0.8857 -1.0454
 3691SOL     OW13226   1.513   8.023   7.037  0.1890 -0.3192 -0.3209
 3691SOL    HW113227   1.491   8.079   6.963  1.7230  0.0246 -0.5437
 3691SOL    HW213228   1.428   8.000   7.075 -0.5544  0.7053 -1.2834
 3692SOL     OW13229   2.229   5.396   5.588 -0.0736 -0.6155  0.1841
 3692SOL    HW113230   2.208   5.447   5.510  0.6631 -0.0492  0.3422
 3692SOL    HW213231   2.277   5.320   5.555 -1.3498 -1.3347 -0.0707
 3693SOL     OW13232   9.491   5.034   8.302 -0.1619  0.4327 -0.2385
 3693SOL    HW113233   9.538   5.103   8.347 -0.0813 -0.3241  0.8586
 3693SOL    HW213234   9.517   4.953   8.346 -2.3875 -0.0228  0.3585
 3694SOL     OW13235   7.966   4.399   2.983 -0.0133 -0.2105 -0.4742
 3694SOL    HW113236   7.885   4.401   2.932 -0.6083  0.4704  0.4563
 3694SOL    HW213237   7.960   4.318   3.034 -0.8883  0.6099  0.7758
 3695SOL     OW13238   1.035   3.681   0.791 -0.5000  0.8085 -0.8137
 3695SOL    HW113239   1.000   3.595   0.815  0.2119 -0.0046 -2.5039
 3695SOL    HW213240   1.128   3.677   0.815 -1.0603  2.3424  2.0896
 3696SOL     OW13241   4.508   9.085   8.904  0.4200  0.1974 -0.6737
 3696SOL    HW113242   4.597   9.104   8.935  0.2161 -1.7325  1.3573
 3696SOL    HW213243   4.455   9.158   8.935  1.0823  0.8013 -0.9261
 3697SOL     OW13244   9.273   6.701   4.569  0.6056 -0.1726 -0.7356
 3697SOL    HW113245   9.288   6.790   4.601  0.2782 -0.7806  1.2197
 3697SOL    HW213246   9.302   6.703   4.478  0.4101  1.9832 -0.7991
 3698SOL     OW13247   1.849   3.982   0.751  0.0750  0.1740  0.2745
 3698SOL    HW113248   1.929   3.930   0.743  0.0209 -0.0041  0.8652
 3698SOL    HW213249   1.795   3.934   0.813 -0.9637 -0.2797 -0.9442
 3699SOL     OW13250   1.626   4.357   2.746  0.7924 -0.4719  0.6460
 3699SOL    HW113251   1.721   4.361   2.762  0.6894  2.3082  1.0988
 3699SOL    HW213252   1.619   4.347   2.651  1.4761 -3.0814  0.8078
 3700SOL     OW13253   5.850   8.193   0.129 -0.3350  0.1366 -0.2280
 3700SOL    HW113254   5.879   8.236   0.209  0.7525 -0.6158 -0.2057
 3700SOL    HW213255   5.883   8.103   0.135 -0.0623  0.1105 -1.5989
 3701SOL     OW13256   7.817   7.298   2.932  0.2920  0.4423 -0.3571
 3701SOL    HW113257   7.770   7.366   2.884  0.8096 -0.9737 -3.0498
 3701SOL    HW213258   7.901   7.291   2.887  0.1418 -2.1347 -0.3428
 3702SOL     OW13259   6.024   8.454   4.786  0.4548 -0.4575 -0.2406
 3702SOL    HW113260   5.957   8.386   4.791 -0.9115  0.8891  0.5587
 3702SOL    HW213261   6.046   8.474   4.877  0.0637  0.8709 -0.4132
 3703SOL     OW13262   5.862   2.484   3.803 -0.0843 -0.0567  0.1796
 3703SOL    HW113263   5.933   2.445   3.752 -0.3537  1.7535 -1.6821
 3703SOL    HW213264   5.903   2.506   3.887  1.5362  0.7454 -0.7634
 3704SOL     OW13265   1.360   7.636   2.480 -0.4344 -0.5715 -0.2453
 3704SOL    HW113266   1.383   7.557   2.430 -0.6799 -0.8152  0.0230
 3704SOL    HW213267   1.413   7.630   2.560 -1.5095 -1.2145  0.4481
 3705SOL     OW13268   1.344   8.699   2.655  0.7867 -0.2978  0.2100
 3705SOL    HW113269   1.354   8.627   2.592  0.5682  0.3262 -0.5442
 3705SOL    HW213270   1.358   8.657   2.740  0.4106 -1.2889 -0.1939
 3706SOL     OW13271   6.848   7.949   2.820  0.5412  0.0692 -0.0724
 3706SOL    HW113272   6.808   8.035   2.812  0.9862  0.4271  1.2765
 3706SOL    HW213273   6.840   7.910   2.733 -0.2544  1.2074 -0.5235
 3707SOL     OW13274   5.363   7.544   5.758  0.1203  0.0799 -0.4921
 3707SOL    HW113275   5.278   7.509   5.784 -0.3123  1.9414  0.8230
 3707SOL    HW213276   5.426   7.491   5.806 -0.4430  0.2619  0.4743
 3708SOL     OW13277   7.437   5.323   7.042  0.5953 -0.4164 -0.3618
 3708SOL    HW113278   7.346   5.297   7.057 -0.0970  1.3936 -1.0785
 3708SOL    HW213279   7.484   5.294   7.120 -0.8247 -0.3879  0.5385
 3709SOL     OW13280   7.699   2.558   2.334  0.5690 -0.1468  0.1181
 3709SOL    HW113281   7.682   2.465   2.349  2.2456 -0.1475  2.6767
 3709SOL    HW213282   7.621   2.590   2.288 -0.4804 -2.5906  0.0687
 3710SOL     OW13283   1.110   3.682   6.372 -0.4487 -0.1554 -0.4949
 3710SOL    HW113284   1.206   3.686   6.368 -0.4947  3.2090 -1.4793
 3710SOL    HW213285   1.088   3.601   6.326  1.8956 -0.4377 -1.2674
 3711SOL     OW13286   7.468   0.341   8.244 -0.2561  0.9159 -0.3066
 3711SOL    HW113287   7.463   0.433   8.219 -0.0692  0.8463 -0.5992
 3711SOL    HW213288   7.463   0.293   8.162  1.2060  0.7177 -0.3101
 3712SOL     OW13289   9.023   4.986   7.486  0.3170 -0.1542 -0.1194
 3712SOL    HW113290   8.963   5.025   7.422  1.1516  1.3890 -0.0156
 3712SOL    HW213291   9.052   4.904   7.445  0.9361  0.8493 -1.8046
 3713SOL     OW13292   9.446   5.413   5.325  0.4244  0.6560 -1.1726
 3713SOL    HW113293   9.540   5.399   5.330  0.1092 -1.2639  0.7511
 3713SOL    HW213294   9.416   5.358   5.253  0.4013 -1.5130  0.4110
 3714SOL     OW13295   8.743   8.256   4.071 -0.0670 -0.6155 -0.0664
 3714SOL    HW113296   8.785   8.178   4.109 -1.0660 -0.9552  0.3908
 3714SOL    HW213297   8.652   8.250   4.101 -0.2970  0.4111 -0.5392
 3715SOL     OW13298   4.837   5.899   6.243  0.3906  0.3759  0.1552
 3715SOL    HW113299   4.927   5.922   6.221  1.4727 -2.5403  1.0021
 3715SOL    HW213300   4.818   5.949   6.323  0.0609  3.2981 -1.6150
 3716SOL     OW13301   5.370   0.400   5.792  0.5127 -0.6276 -0.1413
 3716SOL    HW113302   5.347   0.482   5.836  0.3695 -0.1140 -1.1410
 3716SOL    HW213303   5.455   0.376   5.828  1.2064  0.7001 -0.8367
 3717SOL     OW13304   7.372   0.598   3.593  0.3828 -0.8143  0.0020
 3717SOL    HW113305   7.441   0.625   3.654 -1.1984 -0.5717  1.7862
 3717SOL    HW213306   7.410   0.610   3.506  2.1588  0.4231  0.8987
 3718SOL     OW13307   2.188   1.165   7.838  0.6282 -0.4541  0.1246
 3718SOL    HW113308   2.274   1.207   7.837  0.4935  0.1137 -3.9842
 3718SOL    HW213309   2.141   1.206   7.766 -2.8235 -1.4031  1.6484
 3719SOL     OW13310   0.133   1.887   0.982  0.1497 -0.1249 -0.8769
 3719SOL    HW113311   0.105   1.798   0.960 -2.0584  0.6773 -1.5502
 3719SOL    HW213312   0.215   1.875   1.031  1.1898 -2.3902 -2.9549
 3720SOL     OW13313   4.884   4.860   1.438  0.1448  0.4481  0.2256
 3720SOL    HW113314   4.847   4.893   1.520 -0.3881  2.5747 -0.8214
 3720SOL    HW213315   4.962   4.914   1.423 -0.2879  0.7343 -1.1407
 3721SOL     OW13316   9.074   8.652   4.101 -0.0751  0.3885  0.0468
 3721SOL    HW113317   9.033   8.584   4.048 -0.2418 -0.0684  0.7503
 3721SOL    HW213318   9.004   8.716   4.115 -0.5535 -0.3591  1.1920
 3722SOL     OW13319   1.560   3.500   1.151  0.2505 -0.1358  0.0070
 3722SOL    HW113320   1.513   3.555   1.089  0.0908 -1.8691 -1.4965
 3722SOL    HW213321   1.492   3.442   1.187  0.3398  0.8209  1.8389
 3723SOL     OW13322   5.181   6.308   2.199 -0.3319 -0.3638 -0.8739
 3723SOL    HW113323   5.182   6.400   2.172 -1.2008 -0.4862 -1.3754
 3723SOL    HW213324   5.117   6.305   2.270 -1.7042 -0.8770 -2.0838
 3724SOL     OW13325   6.113   0.686   0.476 -0.2055  0.5041  0.0281
 3724SOL    HW113326   6.138   0.777   0.463 -0.5303  0.4959 -0.7271
 3724SOL    HW213327   6.046   0.670   0.409 -1.7178  0.3158  1.5245
 3725SOL     OW13328   3.147   4.352   6.773  0.0411 -0.4011 -0.0267
 3725SOL    HW113329   3.240   4.368   6.790 -0.0086 -0.7290  0.5919
 3725SOL    HW213330   3.141   4.347   6.678  0.9737 -2.1303 -0.0353
 3726SOL     OW13331   4.561   8.440   4.738 -0.3116  0.0061  0.7041
 3726SOL    HW113332   4.518   8.500   4.677 -1.2247  0.3741  1.6576
 3726SOL    HW213333   4.497   8.370   4.752  0.5066 -0.8899  0.0638
 3727SOL     OW13334   4.833   2.019   3.522 -0.3216  0.2215 -0.0176
 3727SOL    HW113335   4.894   2.093   3.534  0.9508 -1.0081  1.5736
 3727SOL    HW213336   4.884   1.953   3.475 -0.8677 -0.3129  0.1287
 3728SOL     OW13337   7.698   4.065   5.323  0.2288 -0.1078  0.0616
 3728SOL    HW113338   7.735   3.995   5.269  1.0668  0.9869 -0.8127
 3728SOL    HW213339   7.707   4.144   5.271  1.5835  1.1010  1.9829
 3729SOL     OW13340   7.618   3.555   6.636  0.5555 -0.1972 -0.9953
 3729SOL    HW113341   7.626   3.475   6.688 -1.3450  0.3214  0.1967
 3729SOL    HW213342   7.536   3.545   6.588 -1.1835  2.0363  1.2031
 3730SOL     OW13343   1.738   4.070   8.029  0.2209 -0.1787  0.0628
 3730SOL    HW113344   1.715   4.078   8.121  0.0082  1.3590 -0.0903
 3730SOL    HW213345   1.799   3.997   8.025  0.6232  0.0553  1.5003
 3731SOL     OW13346   8.554   9.326   4.459 -0.1144 -0.5355 -0.3197
 3731SOL    HW113347   8.492   9.254   4.468 -0.9077 -0.1456 -2.1348
 3731SOL    HW213348   8.537   9.382   4.535 -0.6278 -1.4265  0.2371
 3732SOL     OW13349   9.296   8.002   7.755 -0.1561 -0.1263 -0.6742
 3732SOL    HW113350   9.324   7.917   7.720  2.6915  0.4846 -0.1430
 3732SOL    HW213351   9.228   7.980   7.818  0.7570 -2.0976 -0.2876
 3733SOL     OW13352   1.435   6.229   2.356 -0.3161  0.1726 -0.1802
 3733SOL    HW113353   1.399   6.141   2.346 -1.1121  0.4672  0.0488
 3733SOL    HW213354   1.523   6.215   2.391  0.2385 -0.6075 -1.7648
 3734SOL     OW13355   7.974   8.947   3.550 -0.3069 -0.4613 -0.2877
 3734SOL    HW113356   8.030   9.020   3.524  0.2065 -0.5678  0.4677
 3734SOL    HW213357   7.950   8.905   3.468 -0.0486  0.1471 -0.6884
 3735SOL     OW13358   8.037   0.550   2.250  0.0496 -0.0121  0.0552
 3735SOL    HW113359   8.054   0.496   2.327  0.9345 -0.6205 -0.5430
 3735SOL    HW213360   8.121   0.594   2.233  0.5331 -1.5033 -1.7757
 3736SOL     OW13361   4.664   0.999   4.630 -0.3287  0.6119 -0.3683
 3736SOL    HW113362   4.688   0.906   4.629 -0.6949  0.4511  1.6074
 3736SOL    HW213363   4.680   1.028   4.541  0.9201 -1.0621 -0.7610
 3737SOL     OW13364   0.299   8.864   5.801 -0.0293  0.1766 -0.2212
 3737SOL    HW113365   0.287   8.780   5.845  1.1483  0.3926  0.5605
 3737SOL    HW213366   0.305   8.928   5.873 -1.1312  0.9769 -0.8084
 3738SOL     OW13367   7.285   5.123   2.969  0.4004 -0.6249  0.3967
 3738SOL    HW113368   7.326   5.037   2.978  0.8165 -0.5598 -0.7702
 3738SOL    HW213369   7.224   5.114   2.897  0.0197 -0.0928  0.6461
 3739SOL     OW13370   0.343   5.585   5.968 -0.0600  0.2730  0.6217
 3739SOL    HW113371   0.265   5.623   5.928  1.3326  0.8196 -1.7990
 3739SOL    HW213372   0.310   5.518   6.028 -2.3646  0.1645 -0.6736
 3740SOL     OW13373   3.616   7.442   6.602  0.1605  0.0923  0.3188
 3740SOL    HW113374   3.630   7.366   6.659 -1.4758 -0.9053 -0.5021
 3740SOL    HW213375   3.562   7.501   6.654  0.7244  0.3164  0.6577
 3741SOL     OW13376   3.490   1.803   8.193 -0.3858  0.5383  0.1781
 3741SOL    HW113377   3.558   1.775   8.255  0.4629  0.7108 -0.6386
 3741SOL    HW213378   3.449   1.722   8.165 -0.3419  0.4054  0.4939
 3742SOL     OW13379   5.620   8.349   5.100 -0.6450  0.1626 -0.4544
 3742SOL    HW113380   5.618   8.418   5.166  0.1242  0.7899 -1.0741
 3742SOL    HW213381   5.674   8.280   5.140  0.8509  1.0362 -0.8687
 3743SOL     OW13382   7.257   2.363   6.033 -0.2578  0.1939 -0.9120
 3743SOL    HW113383   7.285   2.368   5.942 -1.6122  0.7852 -1.3291
 3743SOL    HW213384   7.280   2.274   6.060  1.4303  0.4555 -1.3696
 3744SOL     OW13385   6.707   0.335   8.304  0.3554 -0.1079  0.0663
 3744SOL    HW113386   6.614   0.343   8.282  0.5991 -1.2794 -1.6290
 3744SOL    HW213387   6.752   0.380   8.234  1.1018 -0.8771  0.0385
 3745SOL     OW13388   5.337   9.514   1.176  0.3076  0.8986  0.0985
 3745SOL    HW113389   5.272   9.581   1.156  0.0218  0.5359 -0.2120
 3745SOL    HW213390   5.291   9.431   1.162  0.8037  0.6398 -0.0238
 3746SOL     OW13391   0.107   2.664   3.956  0.0914 -0.2198  0.3934
 3746SOL    HW113392   0.168   2.738   3.953  1.0264 -1.0077 -0.4546
 3746SOL    HW213393   0.028   2.696   3.914  1.2454 -0.3487 -2.0375
 3747SOL     OW13394   8.366   6.330   8.234 -0.6121 -0.0023  0.0381
 3747SOL    HW113395   8.372   6.239   8.204  0.9786  0.2664 -0.5662
 3747SOL    HW213396   8.306   6.327   8.309  0.5411 -1.8023  0.9594
 3748SOL     OW13397   4.133   8.555   9.167  0.2519  0.2648  0.1691
 3748SOL    HW113398   4.129   8.490   9.237 -0.3455 -1.2385 -1.1829
 3748SOL    HW213399   4.227   8.566   9.150  0.4827  1.6451  2.0207
 3749SOL     OW13400   7.233   4.770   7.348  0.3895  0.1063 -0.6723
 3749SOL    HW113401   7.144   4.761   7.315 -0.5495 -1.3625  1.9265
 3749SOL    HW213402   7.254   4.683   7.383  2.5435  0.6375 -0.5027
 3750SOL     OW13403   0.812   1.736   0.413 -0.1378 -0.4282  0.1033
 3750SOL    HW113404   0.822   1.776   0.500 -2.1033 -0.4350  0.3653
 3750SOL    HW213405   0.800   1.643   0.431  0.7560 -0.6273 -0.2819
 3751SOL     OW13406   2.557   3.810   5.819 -0.1340  0.3445 -0.3548
 3751SOL    HW113407   2.594   3.726   5.794  0.0058 -0.1053  1.2777
 3751SOL    HW213408   2.633   3.866   5.836 -0.1681 -0.0635  1.2977
 3752SOL     OW13409   8.445   6.667   9.009 -0.2869 -0.3544 -0.7364
 3752SOL    HW113410   8.481   6.593   8.960 -1.4856 -0.1171 -2.0360
 3752SOL    HW213411   8.352   6.646   9.020 -1.4320  2.2238 -3.8555
 3753SOL     OW13412   7.825   6.335   2.436  0.8166  0.0664  0.4570
 3753SOL    HW113413   7.808   6.375   2.521  1.3099  0.5386  0.3415
 3753SOL    HW213414   7.854   6.408   2.381 -1.2952  0.1375 -0.6615
 3754SOL     OW13415   3.503   5.933   2.843 -0.7219 -0.5419  0.1855
 3754SOL    HW113416   3.477   5.846   2.875  0.9648 -1.5531 -1.0208
 3754SOL    HW213417   3.424   5.967   2.800 -1.9241 -0.7027  2.1356
 3755SOL     OW13418   4.000   1.110   5.646  0.3122  0.5242  0.3792
 3755SOL    HW113419   3.944   1.035   5.626  0.0802 -0.0210  2.7358
 3755SOL    HW213420   3.964   1.182   5.595 -0.7960 -0.4705 -0.2966
 3756SOL     OW13421   3.859   6.276   0.711 -0.1118 -0.0737  0.1601
 3756SOL    HW113422   3.794   6.301   0.777 -0.2173 -0.0086  0.0318
 3756SOL    HW213423   3.858   6.347   0.648  1.2445  0.7337  0.9899
 3757SOL     OW13424   7.753   1.222   5.930  0.4185 -0.3085 -0.2649
 3757SOL    HW113425   7.738   1.242   5.838 -1.8752 -0.7856 -0.0629
 3757SOL    HW213426   7.705   1.291   5.977  2.0029  0.2427  0.6003
 3758SOL     OW13427   6.487   1.082   3.094 -0.3813 -0.3201  0.0320
 3758SOL    HW113428   6.449   1.145   3.033  0.1327  1.1965  1.2122
 3758SOL    HW213429   6.580   1.084   3.075 -0.3838 -0.9186 -0.0673
 3759SOL     OW13430   0.129   2.393   3.955  0.2612 -0.5146 -0.4267
 3759SOL    HW113431   0.213   2.350   3.965  0.1983 -1.0374 -1.9403
 3759SOL    HW213432   0.147   2.485   3.974  1.2035 -0.5932 -0.8868
 3760SOL     OW13433   8.457   2.714   5.296  0.3542 -0.2231 -0.2143
 3760SOL    HW113434   8.540   2.667   5.288  0.0670 -0.9204  0.6697
 3760SOL    HW213435   8.402   2.678   5.227 -0.4596 -2.5529  1.5190
 3761SOL     OW13436   4.378   7.990   3.821 -0.1476  0.0675  0.1690
 3761SOL    HW113437   4.450   7.948   3.868  0.7091  1.1263 -0.1532
 3761SOL    HW213438   4.317   8.017   3.889 -0.9211 -2.0019  0.3590
 3762SOL     OW13439   2.066   4.750   9.430 -0.0824 -0.2039 -0.0735
 3762SOL    HW113440   2.036   4.804   9.503 -1.8064 -0.1312 -0.7859
 3762SOL    HW213441   2.082   4.812   9.359 -0.9978 -0.5062 -0.5556
 3763SOL     OW13442   0.138   0.142   0.238  0.4723 -0.2125 -0.1012
 3763SOL    HW113443   0.119   0.148   0.145 -0.2971  2.6058  0.1680
 3763SOL    HW213444   0.060   0.102   0.276  0.1563  0.0385 -0.4831
 3764SOL     OW13445   6.340   9.162   7.479  0.2432  0.0860 -0.3791
 3764SOL    HW113446   6.399   9.153   7.553  1.5197  3.3423 -0.8365
 3764SOL    HW213447   6.397   9.166   7.402 -0.8654 -0.4190 -1.2713
 3765SOL     OW13448   0.453   9.151   5.632 -0.6315  0.0776  0.6063
 3765SOL    HW113449   0.440   9.061   5.662 -2.2946 -0.0412 -0.3892
 3765SOL    HW213450   0.543   9.152   5.599 -0.6622 -1.2900  0.4331
 3766SOL     OW13451   1.334   7.423   4.248 -0.0195  0.6522  0.5284
 3766SOL    HW113452   1.423   7.390   4.234 -0.1965 -0.0582  0.9908
 3766SOL    HW213453   1.278   7.359   4.204 -0.2686  1.6910 -0.7309
 3767SOL     OW13454   4.979   5.570   9.394 -0.7711  0.2509  0.4440
 3767SOL    HW113455   4.973   5.650   9.446 -0.1930  0.6348 -0.0720
 3767SOL    HW213456   5.007   5.503   9.457  0.7043  0.8770  0.4848
 3768SOL     OW13457   9.470   8.812   6.963  0.0037  0.0165 -0.1984
 3768SOL    HW113458   9.382   8.847   6.950  0.1376 -0.1622 -1.7337
 3768SOL    HW213459   9.474   8.734   6.908  2.2484  1.9659 -3.1429
 3769SOL     OW13460   3.285   3.283   6.093 -0.4768 -0.3605  0.1372
 3769SOL    HW113461   3.255   3.365   6.055 -0.3648  0.7422  2.2736
 3769SOL    HW213462   3.205   3.233   6.110 -0.7374  0.3474  1.0326
 3770SOL     OW13463   7.729   3.357   3.085  0.0179 -0.8223 -0.1645
 3770SOL    HW113464   7.726   3.343   3.180  0.0027 -1.0960 -0.2042
 3770SOL    HW213465   7.807   3.410   3.071  1.1396 -2.4026 -0.1867
 3771SOL     OW13466   7.711   0.706   5.851 -0.6340  0.5860  0.5480
 3771SOL    HW113467   7.663   0.756   5.917  1.0893  1.9322  0.8521
 3771SOL    HW213468   7.803   0.724   5.870 -0.0433 -0.5548 -1.0501
 3772SOL     OW13469   7.137   8.886   8.175  0.0245  0.2204  0.5182
 3772SOL    HW113470   7.207   8.921   8.231  1.7439 -1.0579 -0.7052
 3772SOL    HW213471   7.091   8.823   8.231 -0.1692  1.0759  1.3438
 3773SOL     OW13472   8.348   5.046   6.191 -0.1556 -0.1085  0.1568
 3773SOL    HW113473   8.407   5.058   6.265 -1.4738  1.2936  1.0194
 3773SOL    HW213474   8.372   5.115   6.129  1.9778 -2.1933 -1.5173
 3774SOL     OW13475   6.705   4.562   4.686 -0.0176  0.7331  0.3673
 3774SOL    HW113476   6.666   4.624   4.624  2.2438  2.7855  0.8154
 3774SOL    HW213477   6.649   4.567   4.764  0.0163  2.1463  0.3320
 3775SOL     OW13478   3.271   5.108   9.192 -0.0842 -0.2273  0.4861
 3775SOL    HW113479   3.184   5.075   9.171 -0.8757  1.8160  0.3446
 3775SOL    HW213480   3.291   5.170   9.122  1.0413  0.0832  1.0619
 3776SOL     OW13481   3.094   6.661   8.017 -0.1445 -0.0115 -0.1668
 3776SOL    HW113482   3.060   6.643   8.104 -0.4937  3.2176  0.4563
 3776SOL    HW213483   3.032   6.722   7.978  0.4786 -0.6747 -2.3764
 3777SOL     OW13484   8.344   4.476   0.549 -0.1454  0.4135 -0.2314
 3777SOL    HW113485   8.311   4.558   0.513 -1.9614 -0.4677 -0.6588
 3777SOL    HW213486   8.277   4.448   0.611  0.9964 -0.2050  0.7770
 3778SOL     OW13487   4.094   8.046   7.728  0.3866 -0.4350 -0.3090
 3778SOL    HW113488   4.107   8.049   7.633 -2.1866 -0.4142 -0.7272
 3778SOL    HW213489   4.107   7.954   7.751 -1.3881 -0.9427 -1.1440
 3779SOL     OW13490   8.428   6.282   2.731 -0.1042 -0.0164 -0.0670
 3779SOL    HW113491   8.334   6.271   2.722 -0.0832  0.4300 -0.8893
 3779SOL    HW213492   8.465   6.221   2.667  0.1476  0.4194 -0.3371
 3780SOL     OW13493   8.925   6.631   5.153 -0.4807  0.6189  0.5196
 3780SOL    HW113494   9.017   6.655   5.146 -0.4003  0.1018 -0.2521
 3780SOL    HW213495   8.883   6.672   5.078 -0.8487  0.6949  0.7642
 3781SOL     OW13496   0.286   3.567   3.233 -0.0587  0.3267 -0.4944
 3781SOL    HW113497   0.332   3.568   3.149  2.8226 -0.0575  0.9836
 3781SOL    HW213498   0.213   3.628   3.220  1.0103  1.2175 -2.8876
 3782SOL     OW13499   2.201   4.529   8.583 -0.0205  0.1781  0.2798
 3782SOL    HW113500   2.263   4.597   8.610 -0.3403  1.8230 -2.6886
 3782SOL    HW213501   2.234   4.449   8.624  3.0001  1.3219  0.3685
 3783SOL     OW13502   6.930   6.366   4.272  0.2678 -0.1755  0.3367
 3783SOL    HW113503   6.976   6.442   4.237  1.9413 -0.6337  1.3918
 3783SOL    HW213504   6.979   6.343   4.352  1.5708 -3.9793 -1.3142
 3784SOL     OW13505   4.718   8.993   3.262  0.2150 -0.0129  0.4450
 3784SOL    HW113506   4.646   8.988   3.325  0.2740 -3.5605  0.4487
 3784SOL    HW213507   4.679   8.968   3.178  1.1869 -0.9424  0.2464
 3785SOL     OW13508   4.806   8.064   9.567  0.1197  0.4165  0.1613
 3785SOL    HW113509   4.838   8.047   9.656  1.2230  1.6041  0.0129
 3785SOL    HW213510   4.883   8.092   9.518 -0.5716  0.2686 -1.0558
 3786SOL     OW13511   6.407   9.403   7.660  0.1348 -0.0821 -0.5161
 3786SOL    HW113512   6.455   9.427   7.739  1.1794 -0.8186 -0.9110
 3786SOL    HW213513   6.416   9.308   7.654  1.5484  0.1257 -2.4492
 3787SOL     OW13514   3.769   7.083   1.509 -0.3435 -0.2988 -0.5521
 3787SOL    HW113515   3.682   7.095   1.548 -0.1895 -1.1770  0.0779
 3787SOL    HW213516   3.805   7.172   1.504 -1.2970  0.0839 -0.8922
 3788SOL     OW13517   5.307   0.499   5.120 -0.5739 -0.4409 -0.0934
 3788SOL    HW113518   5.330   0.480   5.211 -0.7206 -0.5886 -0.0871
 3788SOL    HW213519   5.299   0.595   5.117 -0.9477 -0.4611  0.1412
 3789SOL     OW13520   8.997   4.418   5.493 -0.0217  0.1451 -0.5996
 3789SOL    HW113521   9.071   4.479   5.495  1.0171 -1.0617 -0.6447
 3789SOL    HW213522   8.983   4.401   5.400 -1.4841  1.6302 -0.6994
 3790SOL     OW13523   9.453   6.062   2.260 -0.0617  0.0350 -0.4595
 3790SOL    HW113524   9.384   6.056   2.195 -0.5348 -0.6334  0.0812
 3790SOL    HW213525   9.430   6.137   2.315 -0.2438 -0.0515 -0.4168
 3791SOL     OW13526   8.505   1.185   3.782  0.4058  0.4058  0.1007
 3791SOL    HW113527   8.594   1.165   3.755  0.3412  0.7667 -0.3891
 3791SOL    HW213528   8.462   1.099   3.786  1.3399 -0.0296  2.5123
 3792SOL     OW13529   0.448   5.149   5.985 -0.2397 -0.0579 -0.4594
 3792SOL    HW113530   0.455   5.056   6.007  1.2736  0.1481 -0.0044
 3792SOL    HW213531   0.499   5.159   5.905 -0.9089  0.2754 -0.8513
 3793SOL     OW13532   1.582   7.478   3.494 -0.1002  0.3940  0.2147
 3793SOL    HW113533   1.497   7.470   3.449 -0.5633 -0.1905  1.1499
 3793SOL    HW213534   1.602   7.389   3.523  0.4161  0.6727  0.7461
 3794SOL     OW13535   8.143   4.193   8.246 -0.0520 -0.4617  0.2466
 3794SOL    HW113536   8.059   4.151   8.264  1.7858 -4.8319 -0.0745
 3794SOL    HW213537   8.168   4.232   8.330 -2.0117  0.2767  0.5365
 3795SOL     OW13538   5.510   7.746   6.172 -0.1825  0.3194 -0.1808
 3795SOL    HW113539   5.545   7.806   6.239 -0.2761  0.0270  0.1327
 3795SOL    HW213540   5.537   7.659   6.202 -0.6598  0.1458 -0.2594
 3796SOL     OW13541   1.632   7.172   2.398 -0.3902  0.1077  0.7069
 3796SOL    HW113542   1.631   7.077   2.386 -0.4971  0.3339 -1.3207
 3796SOL    HW213543   1.647   7.208   2.311 -1.7187  2.0035  1.1903
 3797SOL     OW13544   4.485   3.804   4.481 -0.2140  0.6111  0.3416
 3797SOL    HW113545   4.399   3.833   4.451  0.8289  2.2482 -1.2476
 3797SOL    HW213546   4.524   3.762   4.405  0.6490  0.4730  0.8472
 3798SOL     OW13547   8.622   6.590   0.433 -0.2992 -0.7318  0.8564
 3798SOL    HW113548   8.593   6.656   0.496 -0.8487 -1.6959  1.6353
 3798SOL    HW213549   8.545   6.535   0.418 -0.5307  0.1263 -1.5522
 3799SOL     OW13550   1.419   2.263   2.829  0.4282 -0.4961 -0.3757
 3799SOL    HW113551   1.342   2.222   2.870 -1.0073  1.7107 -0.7013
 3799SOL    HW213552   1.406   2.248   2.735 -0.6561  1.4500 -0.5871
 3800SOL     OW13553   3.109   3.647   6.772 -0.2261 -0.1941 -0.1382
 3800SOL    HW113554   3.188   3.603   6.741 -1.0036 -0.5835 -1.6319
 3800SOL    HW213555   3.069   3.684   6.693  0.0586  2.7159  0.9418
 3801SOL     OW13556   4.329   7.279   0.664  1.0210  0.2765  0.1312
 3801SOL    HW113557   4.416   7.241   0.648  0.8912  0.7247 -2.0230
 3801SOL    HW213558   4.327   7.357   0.609 -0.3791  0.8643  0.9809
 3802SOL     OW13559   1.435   8.720   6.885 -0.1306 -0.4219 -0.1278
 3802SOL    HW113560   1.495   8.698   6.814  0.1488 -0.7767  0.2126
 3802SOL    HW213561   1.396   8.637   6.911 -0.2701 -0.2872  0.0992
 3803SOL     OW13562   9.056   1.004   0.637  0.8355  0.3407 -0.5710
 3803SOL    HW113563   9.012   1.037   0.558  0.1513  0.2183 -0.2494
 3803SOL    HW213564   9.132   1.062   0.648 -1.0073  2.7015  0.6960
 3804SOL     OW13565   2.373   5.261   7.212 -0.7642 -0.5881  0.1590
 3804SOL    HW113566   2.413   5.230   7.131 -1.2078 -1.0054  0.0988
 3804SOL    HW213567   2.372   5.356   7.203  1.0609 -0.4939  0.5611
 3805SOL     OW13568   7.027   0.331   6.351 -0.2903 -0.8422  0.3737
 3805SOL    HW113569   6.941   0.296   6.327  0.1375 -1.1142 -0.8532
 3805SOL    HW213570   7.082   0.253   6.358  0.9607 -0.5255 -3.5249
 3806SOL     OW13571   1.520   2.762   9.496 -0.3942 -0.2996  0.0316
 3806SOL    HW113572   1.572   2.682   9.491 -0.6949 -0.4779 -0.2825
 3806SOL    HW213573   1.429   2.732   9.492 -0.5026  0.0815 -0.4871
 3807SOL     OW13574   0.118   4.607   2.878  0.7458  0.5444 -0.0832
 3807SOL    HW113575   0.023   4.616   2.868  0.2688 -0.4034  2.7220
 3807SOL    HW213576   0.140   4.529   2.827 -0.2177  0.0082  0.2983
 3808SOL     OW13577   2.055   0.279   5.484 -0.1618  0.1598  0.4568
 3808SOL    HW113578   2.099   0.220   5.544 -1.1827 -0.0357  1.0425
 3808SOL    HW213579   1.972   0.300   5.528 -0.3529  1.0492 -0.2937
 3809SOL     OW13580   5.841   1.006   5.962  0.7311  0.2034 -0.6395
 3809SOL    HW113581   5.807   0.960   5.886  0.3155  0.2532 -0.4870
 3809SOL    HW213582   5.787   0.975   6.035  1.3796 -0.1445 -0.2960
 3810SOL     OW13583   7.332   8.332   0.421 -0.4512  0.4765 -0.2280
 3810SOL    HW113584   7.259   8.292   0.468  0.9887 -1.9273  0.1435
 3810SOL    HW213585   7.342   8.418   0.461 -2.0254  0.2188  0.8331
 3811SOL     OW13586   4.667   6.430   9.264  0.4438  0.7587 -0.0179
 3811SOL    HW113587   4.661   6.394   9.353 -1.6521 -0.8950 -0.7564
 3811SOL    HW213588   4.761   6.446   9.251  0.7108  2.3311  2.9279
 3812SOL     OW13589   8.921   5.983   8.181  0.7609  0.0727 -0.4793
 3812SOL    HW113590   8.826   5.977   8.192  0.6053  0.4143 -1.5346
 3812SOL    HW213591   8.934   5.972   8.087  1.6722  1.1756 -0.4941
 3813SOL     OW13592   0.414   4.423   1.976  0.3015  0.1033 -0.6225
 3813SOL    HW113593   0.403   4.518   1.987 -1.4259 -0.1352  0.0196
 3813SOL    HW213594   0.341   4.397   1.920  1.1579 -0.7779 -1.3638
 3814SOL     OW13595   0.928   4.129   7.278  0.3364 -0.1784  0.4102
 3814SOL    HW113596   0.981   4.120   7.358 -1.1443  1.1536  1.5964
 3814SOL    HW213597   0.988   4.166   7.214  2.3235 -3.6680 -0.0141
 3815SOL     OW13598   8.242   2.278   7.076 -0.3837 -0.0744 -0.7895
 3815SOL    HW113599   8.252   2.331   7.154 -0.4495 -1.8221  0.4607
 3815SOL    HW213600   8.155   2.239   7.083  0.7896 -2.8142  0.0186
 3816SOL     OW13601   5.082   3.692   3.722 -0.2778  0.0453 -0.3892
 3816SOL    HW113602   5.018   3.747   3.677  0.5826  1.4869  0.0894
 3816SOL    HW213603   5.035   3.659   3.799 -0.3246  1.4931  0.2290
 3817SOL     OW13604   5.522   9.081   6.960  0.7039  0.2578  1.1047
 3817SOL    HW113605   5.439   9.073   7.006 -0.2402 -1.5061 -0.7830
 3817SOL    HW213606   5.509   9.154   6.900 -0.0913 -0.9489 -0.2594
 3818SOL     OW13607   6.970   0.472   2.342  0.1556 -0.3847  0.5756
 3818SOL    HW113608   7.065   0.466   2.332  0.1036  0.6437 -0.8879
 3818SOL    HW213609   6.956   0.471   2.436  1.3516 -3.6220  0.8509
 3819SOL     OW13610   2.236   5.090   3.913 -0.0418 -0.3480 -0.5714
 3819SOL    HW113611   2.246   5.152   3.986 -0.9434 -0.9660  0.1015
 3819SOL    HW213612   2.211   5.145   3.839  3.2558  0.6385 -1.1411
 3820SOL     OW13613   1.118   8.588   0.077  0.0215  0.2052 -0.0322
 3820SOL    HW113614   1.035   8.545   0.056  0.2055  0.7759 -2.2120
 3820SOL    HW213615   1.163   8.594  -0.007  1.5975  1.3165  0.8469
 3821SOL     OW13616   6.273   2.267   8.884 -0.2800 -0.3030 -0.1475
 3821SOL    HW113617   6.299   2.176   8.894  0.5266 -0.3129 -1.8823
 3821SOL    HW213618   6.180   2.263   8.859 -0.4409 -0.5872  0.4751
 3822SOL     OW13619   3.287   9.334   8.865 -0.3154  0.6035  0.3580
 3822SOL    HW113620   3.221   9.320   8.797  0.2518 -0.8854  0.0655
 3822SOL    HW213621   3.370   9.314   8.821  0.0712 -0.2590  1.4371
 3823SOL     OW13622   2.384   7.286   4.021  0.3302  0.0928 -0.2042
 3823SOL    HW113623   2.359   7.362   4.074 -1.2266 -0.4164 -0.1684
 3823SOL    HW213624   2.433   7.230   4.082  0.9771  0.7779 -0.0739
 3824SOL     OW13625   8.816   8.991   8.013  0.1911 -0.0378 -0.1879
 3824SOL    HW113626   8.898   9.036   7.990 -0.8061  0.9519 -2.0249
 3824SOL    HW213627   8.822   8.907   7.967  0.4515 -0.2558  0.2354
 3825SOL     OW13628   0.528   8.811   5.221  0.5725 -0.3886 -0.7578
 3825SOL    HW113629   0.579   8.881   5.263 -0.8885  0.1698  0.1634
 3825SOL    HW213630   0.539   8.735   5.279  1.5756 -0.7303 -1.3769
 3826SOL     OW13631   1.986   7.010   8.509 -0.0637  0.1422  0.2410
 3826SOL    HW113632   2.002   7.078   8.443 -1.7097 -1.2054 -1.6537
 3826SOL    HW213633   2.072   6.970   8.523  0.4645  0.9784 -0.4601
 3827SOL     OW13634   9.134   1.345   8.710  0.0167  0.2418  0.0029
 3827SOL    HW113635   9.104   1.352   8.619 -2.1520  2.1236  0.7494
 3827SOL    HW213636   9.120   1.253   8.733  0.0646 -0.1352 -1.3814
 3828SOL     OW13637   2.630   4.714   3.131 -0.2954 -0.5146  0.5308
 3828SOL    HW113638   2.668   4.676   3.210  1.2038  0.5865  0.3760
 3828SOL    HW213639   2.661   4.657   3.060 -0.5008 -0.7071  0.5954
 3829SOL     OW13640   5.574   7.787   0.189  0.3942 -0.4152  0.2457
 3829SOL    HW113641   5.512   7.716   0.202 -1.5343  1.2276  0.5790
 3829SOL    HW213642   5.592   7.788   0.095 -1.7619  0.3324 -0.2147
 3830SOL     OW13643   9.500   6.962   4.360 -0.8543  0.0454 -0.5376
 3830SOL    HW113644   9.556   6.993   4.288  1.9773  1.8248  2.1209
 3830SOL    HW213645   9.412   6.990   4.336  0.2350  2.0933 -2.5586
 3831SOL     OW13646   0.485   0.134   1.167 -0.1066 -0.0839  0.3603
 3831SOL    HW113647   0.563   0.087   1.196 -0.3318 -0.6233  0.1017
 3831SOL    HW213648   0.431   0.142   1.245  1.0480  2.0451  1.0350
 3832SOL     OW13649   1.657   0.192   2.493  0.2148  0.2414  0.1765
 3832SOL    HW113650   1.608   0.139   2.430  0.3262  1.6257 -1.1552
 3832SOL    HW213651   1.634   0.156   2.578 -2.4158  0.2245 -0.4486
 3833SOL     OW13652   1.267   6.440   7.028  0.2469  0.1927  0.4886
 3833SOL    HW113653   1.241   6.362   7.077  1.8559 -0.6492  0.0720
 3833SOL    HW213654   1.246   6.420   6.937  5.1874 -2.0800 -0.5068
 3834SOL     OW13655   8.992   3.276   5.929 -0.1782 -0.3118  0.0425
 3834SOL    HW113656   8.965   3.219   5.856  0.0538 -0.0487 -0.2535
 3834SOL    HW213657   8.922   3.341   5.935  0.5903  0.6452 -1.0253
 3835SOL     OW13658   2.669   9.148   2.599  0.2047 -0.0706  0.1117
 3835SOL    HW113659   2.594   9.200   2.630  0.8602  1.2450 -0.3996
 3835SOL    HW213660   2.631   9.085   2.538 -0.6235 -0.1480  0.6962
 3836SOL     OW13661   2.572   2.573   4.006  0.0682  0.3615  0.1364
 3836SOL    HW113662   2.512   2.591   3.933  0.2445 -0.3138 -0.1878
 3836SOL    HW213663   2.602   2.483   3.990 -1.2194 -0.4517  1.9868
 3837SOL     OW13664   4.810   2.357   0.833  0.3811  0.1123  0.5790
 3837SOL    HW113665   4.762   2.437   0.852 -1.2644 -0.8608  0.6884
 3837SOL    HW213666   4.792   2.300   0.907 -0.1099 -1.0681 -0.4204
 3838SOL     OW13667   0.613   8.857   7.216 -0.3697  0.3218 -0.6830
 3838SOL    HW113668   0.687   8.917   7.207  0.0202 -0.1116 -0.4560
 3838SOL    HW213669   0.560   8.893   7.287 -0.4365  0.6935 -0.9189
 3839SOL     OW13670   5.674   6.820   4.127 -0.2916  0.2135 -0.3268
 3839SOL    HW113671   5.614   6.848   4.058 -0.0950  0.0670 -0.5599
 3839SOL    HW213672   5.661   6.884   4.198 -1.1144 -0.1405 -0.1519
 3840SOL     OW13673   1.529   6.523   3.444 -0.2879 -0.0074 -0.0991
 3840SOL    HW113674   1.509   6.531   3.351  2.1287  0.1010 -0.6572
 3840SOL    HW213675   1.445   6.541   3.488 -1.1331  1.5117 -2.1780
 3841SOL     OW13676   4.149   1.039   4.478 -0.8796  0.3355  0.7200
 3841SOL    HW113677   4.077   0.979   4.461 -0.1379 -0.5386  0.6371
 3841SOL    HW213678   4.197   1.044   4.395 -0.6555  0.6542  0.8660
 3842SOL     OW13679   6.632   1.742   9.525 -0.0492  0.0778 -0.3927
 3842SOL    HW113680   6.687   1.821   9.531 -0.5902  0.3224  2.5601
 3842SOL    HW213681   6.542   1.775   9.524 -0.2593 -0.4704  0.0397
 3843SOL     OW13682   1.582   5.384   7.062  0.2794 -0.1736  0.0221
 3843SOL    HW113683   1.673   5.364   7.044  0.8641  2.0416  0.2385
 3843SOL    HW213684   1.584   5.446   7.136 -1.4848 -1.1607  0.9798
 3844SOL     OW13685   0.848   6.724   6.958 -0.0989  0.4393 -0.4862
 3844SOL    HW113686   0.910   6.759   6.895  1.5930 -1.5477 -0.0531
 3844SOL    HW213687   0.793   6.665   6.907 -1.1012  1.5470 -0.7133
 3845SOL     OW13688   2.715   8.506   6.962 -0.3804 -0.0762  0.1310
 3845SOL    HW113689   2.734   8.554   6.881  0.5087  0.5934  0.7101
 3845SOL    HW213690   2.731   8.570   7.032 -0.4553 -0.8384  0.8621
 3846SOL     OW13691   1.606   5.069   0.044  0.1801 -0.1537  0.1272
 3846SOL    HW113692   1.651   5.106   0.121  1.4496 -0.4457 -0.4448
 3846SOL    HW213693   1.642   5.118  -0.030 -0.8292 -0.0625 -0.3168
 3847SOL     OW13694   5.098   8.196   5.282  0.1668  0.0316  0.3434
 3847SOL    HW113695   5.048   8.128   5.327  1.1763 -1.0961 -0.1974
 3847SOL    HW213696   5.065   8.193   5.191  0.2437  0.2433  0.3080
 3848SOL     OW13697   8.129   7.287   3.515 -0.6412 -0.3057  0.2027
 3848SOL    HW113698   8.131   7.236   3.596 -0.2469  0.1007  0.4591
 3848SOL    HW213699   8.221   7.295   3.490 -0.6867  0.3330  0.2082
 3849SOL     OW13700   1.871   4.944   1.338 -0.1792  0.0064 -0.2455
 3849SOL    HW113701   1.948   4.892   1.314 -0.9733 -1.4186  0.1350
 3849SOL    HW213702   1.868   5.014   1.274  0.4093 -0.9774 -1.3934
 3850SOL     OW13703   0.131   6.859   3.446 -0.3586 -0.4477  0.7088
 3850SOL    HW113704   0.121   6.808   3.527 -3.4445 -1.4696 -0.1867
 3850SOL    HW213705   0.093   6.803   3.378 -3.0961  2.6008 -0.4989
 3851SOL     OW13706   5.111   6.637   7.616  0.1309  0.0390 -0.2697
 3851SOL    HW113707   5.057   6.707   7.580  0.1433 -0.3986 -1.1621
 3851SOL    HW213708   5.179   6.683   7.667  0.5292  0.7103 -1.3759
 3852SOL     OW13709   2.051   5.975   7.968 -0.6660  0.0043 -0.2236
 3852SOL    HW113710   1.988   5.962   8.039  2.2070  1.2524  2.8825
 3852SOL    HW213711   2.091   5.889   7.956 -2.0668 -0.5179 -1.3634
 3853SOL     OW13712   7.479   4.106   4.540  0.8088 -0.4774 -0.3253
 3853SOL    HW113713   7.435   4.166   4.479 -0.5861  0.1175  1.1917
 3853SOL    HW213714   7.527   4.046   4.483 -0.6573 -0.1388 -2.0328
 3854SOL     OW13715   1.231   1.219   2.528 -0.1514  0.1897 -0.1897
 3854SOL    HW113716   1.273   1.203   2.612 -0.3759 -0.8931 -0.2752
 3854SOL    HW213717   1.304   1.240   2.468 -0.0022  1.0701  0.2773
 3855SOL     OW13718   5.881   8.755   6.727 -0.3200 -0.3263  0.3351
 3855SOL    HW113719   5.966   8.720   6.700  0.0965 -0.4976  1.8048
 3855SOL    HW213720   5.903   8.828   6.785 -1.1823  1.4045 -1.4093
 3856SOL     OW13721   4.403   8.738   5.955 -0.2895 -0.1994  0.0440
 3856SOL    HW113722   4.479   8.737   5.897 -0.0908  0.8262  0.2706
 3856SOL    HW213723   4.383   8.646   5.968  0.7648 -0.4870 -0.2117
 3857SOL     OW13724   0.331   3.318   5.797  0.1937  0.4500  0.0573
 3857SOL    HW113725   0.301   3.231   5.769 -0.4065  1.1775 -1.7658
 3857SOL    HW213726   0.256   3.375   5.778  1.2089  1.6347 -0.4857
 3858SOL     OW13727   0.443   0.718   4.651  0.0621 -0.1956 -0.2578
 3858SOL    HW113728   0.430   0.627   4.677 -1.0391 -0.0526 -0.2732
 3858SOL    HW213729   0.494   0.713   4.570 -0.7867 -0.8437 -0.7651
 3859SOL     OW13730   5.612   1.850   8.639 -0.1003  0.3201 -0.4605
 3859SOL    HW113731   5.523   1.822   8.657 -0.6394  1.3402 -1.3927
 3859SOL    HW213732   5.624   1.833   8.546  0.3067  1.1344 -0.5697
 3860SOL     OW13733   0.720   1.967   5.133 -0.2859  0.1848 -0.4315
 3860SOL    HW113734   0.624   1.970   5.131 -0.3647  1.5044  1.6235
 3860SOL    HW213735   0.746   2.057   5.154  1.4709  0.0565 -1.8761
 3861SOL     OW13736   6.263   2.002   3.811 -0.0134 -0.1569  0.8899
 3861SOL    HW113737   6.187   1.947   3.791  0.3264 -0.2605 -0.2336
 3861SOL    HW213738   6.336   1.958   3.767  0.4463  0.6686  0.8018
 3862SOL     OW13739   1.178   0.564   4.587  0.3234  0.0127 -0.6205
 3862SOL    HW113740   1.184   0.597   4.676  0.3163 -0.9883 -0.2324
 3862SOL    HW213741   1.089   0.530   4.580 -0.7452  2.7665 -2.0103
 3863SOL     OW13742   7.083   8.702   6.964 -0.2881  0.2085 -0.2228
 3863SOL    HW113743   7.034   8.783   6.948  0.0679  0.9147  1.9517
 3863SOL    HW213744   7.056   8.674   7.052  0.5378 -1.3702 -0.4244
 3864SOL     OW13745   4.229   8.372   7.129 -0.2761 -0.3442 -0.7850
 3864SOL    HW113746   4.161   8.431   7.162 -0.7360 -0.4594 -1.5002
 3864SOL    HW213747   4.235   8.303   7.194 -0.7182 -0.2342 -0.6289
 3865SOL     OW13748   8.338   1.022   1.950 -0.1452  0.3159  0.2161
 3865SOL    HW113749   8.371   0.981   1.870  0.7717 -0.1672  0.8186
 3865SOL    HW213750   8.403   1.089   1.971 -0.3494  0.4065  0.5702
 3866SOL     OW13751   3.067   2.850   7.354  0.0069 -0.1279 -0.8397
 3866SOL    HW113752   3.043   2.761   7.326 -1.8854  0.6257 -1.8268
 3866SOL    HW213753   2.999   2.874   7.417 -0.3031  1.0908 -1.6085
 3867SOL     OW13754   6.887   4.877   0.906  0.1296 -0.3744  0.3227
 3867SOL    HW113755   6.926   4.808   0.961 -0.9482 -1.2552  0.0116
 3867SOL    HW213756   6.845   4.936   0.968  0.8689 -0.1013  0.5772
 3868SOL     OW13757   8.900   8.855   0.272 -0.2349 -0.4136  0.0964
 3868SOL    HW113758   8.937   8.767   0.273 -0.7858 -0.6692 -0.6657
 3868SOL    HW213759   8.860   8.862   0.185  1.2980  1.2158 -0.5375
 3869SOL     OW13760   3.920   4.138   0.324  0.2728  0.3198  0.1387
 3869SOL    HW113761   4.001   4.168   0.284  0.5535  1.4557  1.4937
 3869SOL    HW213762   3.860   4.212   0.316 -0.3610 -0.2081 -0.0872
 3870SOL     OW13763   7.506   5.000   3.817 -0.0276 -0.3402  0.0717
 3870SOL    HW113764   7.531   5.054   3.742  1.9716 -0.9101  0.2697
 3870SOL    HW213765   7.447   5.055   3.868 -0.4957  0.4809 -1.3063
 3871SOL     OW13766   5.500   2.880   6.460  0.1192 -0.4825 -0.0015
 3871SOL    HW113767   5.582   2.882   6.510 -0.0486  0.4393  0.2572
 3871SOL    HW213768   5.435   2.849   6.523 -0.0730  0.5793  0.3313
 3872SOL     OW13769   7.064   4.279   1.911  0.4425  0.0642 -0.2159
 3872SOL    HW113770   7.058   4.195   1.866  1.4116 -0.4320  0.5360
 3872SOL    HW213771   7.087   4.341   1.842  1.1363 -0.5502 -0.5595
 3873SOL     OW13772   6.396   0.181   2.729  0.4585  0.1107  0.6701
 3873SOL    HW113773   6.409   0.087   2.713  2.7651  0.8122 -2.6880
 3873SOL    HW213774   6.384   0.188   2.823 -2.1495 -3.7376  0.8770
 3874SOL     OW13775   2.510   1.724   4.699 -0.6643 -0.2530 -0.5691
 3874SOL    HW113776   2.507   1.819   4.713 -0.9702  0.0625 -2.4334
 3874SOL    HW213777   2.459   1.688   4.771  0.4182  0.9025  0.8210
 3875SOL     OW13778   0.763   7.241   0.186  0.1647  0.5537  0.2007
 3875SOL    HW113779   0.720   7.227   0.102  0.0882  0.9848  0.1626
 3875SOL    HW213780   0.851   7.203   0.175  0.1758  0.6653 -0.0953
 3876SOL     OW13781   6.235   2.109   1.240 -0.2897  0.0364  0.0174
 3876SOL    HW113782   6.221   2.112   1.335  3.3191  1.6893  0.6778
 3876SOL    HW213783   6.310   2.051   1.229 -2.5356 -2.7018 -2.3019
 3877SOL     OW13784   1.785   0.829   0.618 -0.1949  0.4088  0.0519
 3877SOL    HW113785   1.759   0.854   0.529  2.1057 -0.6930 -1.0099
 3877SOL    HW213786   1.851   0.894   0.642  0.0022  0.0520  0.4814
 3878SOL     OW13787   7.869   4.195   3.507  0.2866  0.1320 -0.4298
 3878SOL    HW113788   7.799   4.135   3.479  0.8239  0.8007 -3.6291
 3878SOL    HW213789   7.876   4.181   3.601 -3.0357 -1.1295 -0.2128
 3879SOL     OW13790   9.358   0.634   9.605  0.0819  0.0228 -0.1103
 3879SOL    HW113791   9.438   0.674   9.571 -0.1139 -0.3275 -0.9881
 3879SOL    HW213792   9.389   0.563   9.662  0.4125  0.8753  0.8003
 3880SOL     OW13793   7.105   4.724   0.250  0.1280  0.5470  0.3681
 3880SOL    HW113794   7.018   4.764   0.246  0.1868  0.7296  0.8123
 3880SOL    HW213795   7.139   4.749   0.336 -0.2936 -1.3981  1.1478
 3881SOL     OW13796   1.851   6.326   5.542  0.2096  0.6934  0.1295
 3881SOL    HW113797   1.804   6.303   5.462  1.6639 -0.1903 -0.5114
 3881SOL    HW213798   1.786   6.372   5.595 -1.1182  0.2832 -1.0612
 3882SOL     OW13799   8.508   7.088   3.707 -0.0713  0.5993  0.4686
 3882SOL    HW113800   8.507   7.110   3.800  1.2032 -1.2132  0.9760
 3882SOL    HW213801   8.596   7.052   3.692 -0.8041 -0.7194 -1.0199
 3883SOL     OW13802   5.258   1.297   3.839 -0.1365  0.3429  0.2214
 3883SOL    HW113803   5.290   1.300   3.749 -0.6116  1.1975  0.0669
 3883SOL    HW213804   5.174   1.251   3.833  0.0696 -0.0414  0.3021
 3884SOL     OW13805   0.976   6.148   0.023 -0.1093 -0.1789  0.4230
 3884SOL    HW113806   0.938   6.200   0.094 -1.1663 -0.8536  0.3708
 3884SOL    HW213807   0.941   6.060   0.037 -1.5420 -0.0415 -1.7524
 3885SOL     OW13808   3.340   1.717   1.605  0.0794 -0.2408  0.0312
 3885SOL    HW113809   3.306   1.751   1.522 -0.8212  0.6451  0.7323
 3885SOL    HW213810   3.432   1.743   1.606 -0.0012  0.0796 -0.5178
 3886SOL     OW13811   2.337   9.611   4.129  0.8986  0.0600  0.8252
 3886SOL    HW113812   2.427   9.632   4.105  1.9758 -3.5775  1.1056
 3886SOL    HW213813   2.343   9.578   4.219 -0.6511 -0.6935  0.6817
 3887SOL     OW13814   3.598   8.239   9.141  0.6367  0.3047  0.3437
 3887SOL    HW113815   3.566   8.270   9.225 -1.0101  0.0513 -0.1617
 3887SOL    HW213816   3.669   8.299   9.118 -0.5395  1.8967  0.7523
 3888SOL     OW13817   9.244   6.367   6.021  0.5911 -0.1251  0.1517
 3888SOL    HW113818   9.174   6.326   5.972 -0.8952  1.1355  1.1088
 3888SOL    HW213819   9.200   6.433   6.075  2.4705  0.4505  1.0777
 3889SOL     OW13820   0.566   1.020   8.802 -0.1654 -0.2636  0.0684
 3889SOL    HW113821   0.625   0.966   8.749 -0.5547  0.3690 -1.0395
 3889SOL    HW213822   0.549   1.098   8.749 -0.0953  0.6881  1.3833
 3890SOL     OW13823   2.679   2.033   5.680 -0.3464  0.2414  0.3862
 3890SOL    HW113824   2.676   1.971   5.607 -0.3144 -0.2725  0.8184
 3890SOL    HW213825   2.660   1.980   5.758 -0.4294  0.7926  0.7477
 3891SOL     OW13826   3.837   9.102   4.398  0.1171  0.2650  0.4779
 3891SOL    HW113827   3.888   9.093   4.318 -1.5985  1.0922 -0.7851
 3891SOL    HW213828   3.859   9.189   4.432  0.3550  0.1824  0.5332
 3892SOL     OW13829   0.639   0.147   6.726 -0.0509  0.2798  0.2028
 3892SOL    HW113830   0.551   0.110   6.728  0.6067 -1.4676  2.8662
 3892SOL    HW213831   0.641   0.211   6.797  0.8909  0.0742  0.3833
 3893SOL     OW13832   7.914   2.804   3.066 -0.1646  0.1818  0.8073
 3893SOL    HW113833   7.903   2.842   2.980 -0.0043 -1.0753  0.2079
 3893SOL    HW213834   7.845   2.844   3.119 -1.0476  0.0679 -0.2207
 3894SOL     OW13835   3.199   9.562   8.344 -0.1769 -0.1523  0.0185
 3894SOL    HW113836   3.133   9.631   8.345  0.6830  0.6754  0.0840
 3894SOL    HW213837   3.267   9.593   8.285 -0.3728 -1.5264 -0.9856
 3895SOL     OW13838   6.371   9.545   3.442 -0.2161 -0.3067  0.1247
 3895SOL    HW113839   6.422   9.465   3.436 -0.4012 -0.4243  0.1041
 3895SOL    HW213840   6.315   9.533   3.519 -0.3275 -0.2476  0.0546
 3896SOL     OW13841   1.854   7.986   3.749  0.0150  0.5597  0.0653
 3896SOL    HW113842   1.920   8.053   3.765  1.3515 -0.0808 -2.2547
 3896SOL    HW213843   1.899   7.920   3.696 -1.5291 -1.7099  1.4216
 3897SOL     OW13844   5.132   0.703   3.639  0.2723  0.1260  0.0596
 3897SOL    HW113845   5.083   0.689   3.558 -1.5841 -0.5401  1.2253
 3897SOL    HW213846   5.152   0.615   3.671 -1.6431  0.2440  1.7835
 3898SOL     OW13847   8.411   5.977   7.981  0.1084 -0.1883 -0.1215
 3898SOL    HW113848   8.453   5.899   7.945  1.2257 -0.7675  2.2424
 3898SOL    HW213849   8.432   6.046   7.918 -0.9316 -1.6975 -2.2963
 3899SOL     OW13850   1.911   8.381   7.945  0.1588  0.4797 -0.3597
 3899SOL    HW113851   1.945   8.319   8.009  1.8586  0.2628 -1.4111
 3899SOL    HW213852   1.890   8.460   7.995  2.1592  0.5794  0.3891
 3900SOL     OW13853   5.478   3.122   7.723 -0.4041  0.0006  0.0840
 3900SOL    HW113854   5.450   3.106   7.633  1.4497  0.1788 -0.5592
 3900SOL    HW213855   5.565   3.160   7.714  0.4327 -1.3383  2.0102
 3901SOL     OW13856   1.227   8.035   9.279  0.2319 -0.2282 -0.4301
 3901SOL    HW113857   1.250   8.089   9.204  0.2963 -0.4512 -0.5737
 3901SOL    HW213858   1.282   8.067   9.350  2.0590 -1.6668 -1.1179
 3902SOL     OW13859   8.571   7.556   2.501 -0.3858  0.4973 -0.1096
 3902SOL    HW113860   8.499   7.493   2.511 -0.5147  0.7763  0.8174
 3902SOL    HW213861   8.614   7.558   2.587  2.2337 -1.4167 -1.2424
 3903SOL     OW13862   2.143   4.640   2.877  0.4149  0.5083  0.2954
 3903SOL    HW113863   2.156   4.560   2.927  2.3575  0.8249  0.3504
 3903SOL    HW213864   2.115   4.611   2.791 -2.1060 -0.0702  1.1960
 3904SOL     OW13865   0.302   7.490   2.329 -0.5280 -0.4229  0.1792
 3904SOL    HW113866   0.340   7.447   2.406  0.1148 -1.1274 -0.5160
 3904SOL    HW213867   0.368   7.479   2.261 -0.5857  1.1994 -0.1717
 3905SOL     OW13868   7.719   7.646   1.303 -0.0012  0.2304 -0.4985
 3905SOL    HW113869   7.624   7.641   1.298 -0.0945  2.2222 -1.4184
 3905SOL    HW213870   7.738   7.739   1.317  1.7519 -0.3818  1.9360
 3906SOL     OW13871   3.860   9.295   9.623  0.2006 -0.1902 -0.8168
 3906SOL    HW113872   3.880   9.337   9.539 -0.0461  0.6010 -0.4854
 3906SOL    HW213873   3.766   9.310   9.636 -0.2137 -2.0437 -1.3460
 3907SOL     OW13874   8.160   4.582   6.433  0.0015  0.2586 -0.2758
 3907SOL    HW113875   8.251   4.609   6.443  0.0627  0.3470 -1.0122
 3907SOL    HW213876   8.129   4.569   6.523  0.5398  0.8693  0.0064
 3908SOL     OW13877   0.451   1.358   9.109 -0.1976  0.2524  0.1926
 3908SOL    HW113878   0.494   1.421   9.168  1.3845 -1.1317  0.6222
 3908SOL    HW213879   0.406   1.298   9.168 -1.8654  1.0330 -0.2246
 3909SOL     OW13880   1.872   0.195   1.441  0.0715  0.2500 -0.1136
 3909SOL    HW113881   1.897   0.223   1.529 -0.1020 -0.4786  0.1756
 3909SOL    HW213882   1.953   0.199   1.390  0.4896 -0.7653  0.4655
 3910SOL     OW13883   9.181   8.208   5.601  0.3320  0.0825  0.0872
 3910SOL    HW113884   9.154   8.277   5.661  1.1341 -0.0054  0.5585
 3910SOL    HW213885   9.247   8.249   5.546  0.3753 -0.1419 -0.0299
 3911SOL     OW13886   0.517   1.849   2.269  0.3280  0.4386  0.2116
 3911SOL    HW113887   0.437   1.884   2.308  0.8500  1.6970  0.1955
 3911SOL    HW213888   0.490   1.767   2.228 -0.6617  0.1302  1.4054
 3912SOL     OW13889   6.964   2.198   7.215 -0.6091 -0.0672 -0.1217
 3912SOL    HW113890   7.008   2.185   7.299 -1.7276 -1.2355  0.3052
 3912SOL    HW213891   6.880   2.237   7.238 -1.1502 -0.9011 -0.6414
 3913SOL     OW13892   6.184   3.907   1.290 -0.0380 -0.0214  0.4121
 3913SOL    HW113893   6.101   3.935   1.329 -0.7572 -1.4980  0.0241
 3913SOL    HW213894   6.163   3.895   1.197  0.9830  0.9067  0.0373
 3914SOL     OW13895   6.270   1.396   5.328  0.1097  0.0389  0.0358
 3914SOL    HW113896   6.205   1.466   5.335 -0.1448 -0.2352  0.4460
 3914SOL    HW213897   6.353   1.442   5.315  0.0210  0.4398  0.8388
 3915SOL     OW13898   1.285   1.245   0.090  0.5331 -0.2108  0.4284
 3915SOL    HW113899   1.362   1.237   0.146  1.2426  1.9254 -0.1494
 3915SOL    HW213900   1.257   1.336   0.101 -0.6443 -0.3703 -0.9765
 3916SOL     OW13901   8.722   6.761   8.984 -0.7343  0.0827  0.2394
 3916SOL    HW113902   8.692   6.796   9.068  2.1299 -0.8458  1.7916
 3916SOL    HW213903   8.689   6.671   8.982  0.8573 -0.5863  1.4453
 3917SOL     OW13904   2.905   6.614   8.549 -0.7581  0.6748  0.1465
 3917SOL    HW113905   2.873   6.702   8.570 -1.5290  0.5365 -0.3737
 3917SOL    HW213906   2.846   6.555   8.596 -1.0629  0.4202 -0.5363
 3918SOL     OW13907   7.975   9.545   7.172  0.6046  0.7627  0.7361
 3918SOL    HW113908   7.970   9.550   7.076  1.9544  1.0493  0.6606
 3918SOL    HW213909   7.888   9.573   7.202  0.5340  1.8150 -0.3722
 3919SOL     OW13910   1.609   6.613   7.943 -0.1724  0.2209  0.2002
 3919SOL    HW113911   1.546   6.682   7.923 -0.7920  0.3714  2.4394
 3919SOL    HW213912   1.557   6.533   7.943 -0.3338  0.2957  1.6348
 3920SOL     OW13913   4.776   2.115   0.972  0.6590 -0.0498  0.2230
 3920SOL    HW113914   4.712   2.051   1.002 -0.3377  1.6137  1.7991
 3920SOL    HW213915   4.850   2.104   1.032  1.0162 -0.5469 -0.2946
 3921SOL     OW13916   6.319   0.070   8.143  0.4536  0.3930 -0.6830
 3921SOL    HW113917   6.259   0.001   8.116 -2.0716  1.5308  1.5717
 3921SOL    HW213918   6.321   0.131   8.070 -0.5815 -0.0265 -1.0668
 3922SOL     OW13919   7.600   0.748   2.024 -0.2765 -0.2982  0.0166
 3922SOL    HW113920   7.657   0.674   2.007  0.7406  0.6352 -0.7601
 3922SOL    HW213921   7.658   0.818   2.054 -0.9451  0.7639 -1.0582
 3923SOL     OW13922   9.451   1.662   4.683 -0.4833  0.3684  0.5261
 3923SOL    HW113923   9.508   1.728   4.643  0.1024 -0.1389  0.5008
 3923SOL    HW213924   9.425   1.700   4.766 -3.5018  2.4176 -1.1422
 3924SOL     OW13925   1.665   5.813   6.715 -0.1556 -0.2874 -0.1225
 3924SOL    HW113926   1.694   5.819   6.806 -1.8463  1.4939  0.3795
 3924SOL    HW213927   1.676   5.721   6.692  1.8013 -0.4866  1.3294
 3925SOL     OW13928   3.934   6.580   2.147  0.4604 -0.4064 -0.2565
 3925SOL    HW113929   3.852   6.561   2.101  0.1004  0.6729 -0.0847
 3925SOL    HW213930   4.001   6.582   2.078  0.1501 -0.1299 -0.5500
 3926SOL     OW13931   9.121   7.049   9.317  0.2145  0.1588  0.1157
 3926SOL    HW113932   9.098   6.971   9.265 -0.6614  0.0030  0.7069
 3926SOL    HW213933   9.069   7.119   9.278  0.9120  0.4286 -0.3385
 3927SOL     OW13934   1.288   0.764   3.313 -0.0264  0.0528  0.0603
 3927SOL    HW113935   1.262   0.693   3.372 -1.7134 -0.7126 -1.4559
 3927SOL    HW213936   1.340   0.823   3.366 -1.1339 -0.7835  2.1885
 3928SOL     OW13937   8.482   8.003   9.326 -0.0125  0.1786  0.2752
 3928SOL    HW113938   8.485   8.076   9.264 -1.6560  1.1101  1.2146
 3928SOL    HW213939   8.473   7.925   9.271  0.2713  0.8195 -0.7061
 3929SOL     OW13940   0.992   1.366   3.312 -0.4109  0.1454  0.2375
 3929SOL    HW113941   1.059   1.410   3.259 -1.6319  1.3929 -0.3345
 3929SOL    HW213942   0.998   1.274   3.287  0.7639  0.3046 -0.1430
 3930SOL     OW13943   4.305   3.168   1.267  0.0198 -0.1878 -0.3031
 3930SOL    HW113944   4.396   3.188   1.244 -0.0402 -0.1778 -0.5341
 3930SOL    HW213945   4.267   3.252   1.291  0.3156 -0.3224  0.6566
 3931SOL     OW13946   3.364   5.993   7.887 -0.6374  0.5816  0.4033
 3931SOL    HW113947   3.271   5.989   7.863 -0.7223  0.6114  0.7213
 3931SOL    HW213948   3.384   5.906   7.921 -0.4585  0.4690  0.0217
 3932SOL     OW13949   7.311   6.644   0.711  0.1309  0.3639  0.0836
 3932SOL    HW113950   7.406   6.640   0.711  0.0805 -1.6073  0.4393
 3932SOL    HW213951   7.285   6.607   0.796 -0.9623  0.9240  0.0211
 3933SOL     OW13952   6.237   3.617   9.522  0.4814 -0.5172  0.2412
 3933SOL    HW113953   6.287   3.547   9.481 -0.2723  0.1954 -2.0067
 3933SOL    HW213954   6.159   3.627   9.468  0.1951  1.5547  0.9238
 3934SOL     OW13955   7.710   4.839   3.858  0.3007 -0.1103  0.3106
 3934SOL    HW113956   7.644   4.908   3.846 -0.4386 -1.2619 -3.6249
 3934SOL    HW213957   7.759   4.867   3.935 -1.4143  3.5963  0.3041
 3935SOL     OW13958   6.236   0.564   2.165  0.8659  0.6277  0.8529
 3935SOL    HW113959   6.303   0.560   2.233  1.5681 -0.7737  0.1148
 3935SOL    HW213960   6.286   0.559   2.083 -0.1206 -0.3714  0.2933
 3936SOL     OW13961   9.561   5.702   4.464 -0.2145 -0.8531 -0.1075
 3936SOL    HW113962   9.511   5.735   4.388 -1.7939 -1.2151  0.7272
 3936SOL    HW213963   9.523   5.748   4.539  0.1760 -1.7319  0.6462
 3937SOL     OW13964   5.757   9.572   3.888  0.1839 -0.0699 -1.1192
 3937SOL    HW113965   5.673   9.557   3.931 -0.2096  0.9792 -1.4803
 3937SOL    HW213966   5.750   9.661   3.853  1.9679  0.5839  0.0464
 3938SOL     OW13967   6.163   3.497   3.259 -0.4294  0.4231 -0.3166
 3938SOL    HW113968   6.242   3.465   3.302 -0.7857 -0.3602 -0.2340
 3938SOL    HW213969   6.195   3.557   3.192  0.3681 -1.1622 -1.4261
 3939SOL     OW13970   4.514   8.580   7.690  0.4579 -0.2893  0.3436
 3939SOL    HW113971   4.454   8.539   7.752 -0.2215  0.7486  0.4103
 3939SOL    HW213972   4.518   8.672   7.718 -0.2831  0.3398 -1.4177
 3940SOL     OW13973   3.912   4.425   2.261  0.3662  0.4754  0.1231
 3940SOL    HW113974   3.980   4.374   2.305 -1.3466 -1.3773  0.8078
 3940SOL    HW213975   3.847   4.359   2.234 -1.2460  2.1539 -0.2997
 3941SOL     OW13976   6.147   0.143   7.332  0.4716  0.2275  0.3833
 3941SOL    HW113977   6.083   0.208   7.302  1.6540  1.1272 -0.2853
 3941SOL    HW213978   6.094   0.068   7.358 -0.8057  0.2730 -1.7818
 3942SOL     OW13979   4.299   9.386   0.071 -0.0956 -0.1068  0.1505
 3942SOL    HW113980   4.368   9.322   0.090 -1.3616 -1.4675  0.3720
 3942SOL    HW213981   4.264   9.359  -0.014 -1.3824 -0.4140  0.7488
 3943SOL     OW13982   2.921   5.362   9.130 -0.6974 -0.0304  0.2060
 3943SOL    HW113983   2.957   5.447   9.107  0.0955 -0.3614  0.1842
 3943SOL    HW213984   2.936   5.354   9.224  2.0855 -1.4057 -0.2435
 3944SOL     OW13985   3.740   8.568   5.747 -0.4414  0.2866  0.2545
 3944SOL    HW113986   3.691   8.585   5.667 -0.9454  0.3747  0.5801
 3944SOL    HW213987   3.780   8.483   5.734 -0.6364  0.2416 -0.0345
 3945SOL     OW13988   2.627   4.922   3.331  0.2101 -0.5104 -0.0574
 3945SOL    HW113989   2.695   4.942   3.396  0.2887 -1.0989  0.0453
 3945SOL    HW213990   2.639   4.829   3.311 -0.2026 -0.4808 -0.4667
 3946SOL     OW13991   3.350   8.841   3.262  0.4058  0.3288  0.4211
 3946SOL    HW113992   3.402   8.764   3.283 -0.6879 -0.0770  1.8033
 3946SOL    HW213993   3.275   8.835   3.320 -1.7513  0.3458 -2.1843
 3947SOL     OW13994   1.527   0.758   7.648 -0.4035 -0.2444 -0.4221
 3947SOL    HW113995   1.526   0.780   7.741 -1.5478 -0.0546 -0.4663
 3947SOL    HW213996   1.561   0.668   7.646  2.8338  0.8564 -0.1322
 3948SOL     OW13997   8.020   4.919   0.158 -0.2441  0.8066  0.2291
 3948SOL    HW113998   7.956   4.977   0.117 -1.2013  0.4326  1.1421
 3948SOL    HW213999   7.978   4.889   0.238  2.3223  3.1684  2.7067
 3949SOL     OW14000   3.421   7.742   0.338 -0.1549 -0.2960  0.2488
 3949SOL    HW114001   3.505   7.766   0.377 -0.0097  1.0379 -0.8028
 3949SOL    HW214002   3.397   7.818   0.285 -1.0939 -1.4259 -1.0036
 3950SOL     OW14003   6.193   7.594   7.945  0.4193 -1.3492 -0.4694
 3950SOL    HW114004   6.197   7.648   7.866 -1.5567  0.1373  0.3646
 3950SOL    HW214005   6.134   7.523   7.923  1.7999 -2.3707 -1.0593
 3951SOL     OW14006   8.331   6.995   7.021  0.5351  0.1913 -0.2073
 3951SOL    HW114007   8.405   6.939   7.044  0.6674 -0.2994 -1.7376
 3951SOL    HW214008   8.345   7.075   7.072  0.2018 -1.2112  2.2157
 3952SOL     OW14009   6.537   2.958   3.450  0.5332  0.9275 -0.0458
 3952SOL    HW114010   6.467   2.896   3.471  0.9015  0.4384 -0.2323
 3952SOL    HW214011   6.618   2.910   3.468  0.8305  1.2144 -0.5748
 3953SOL     OW14012   7.597   9.391   4.010 -0.2940  0.4654  0.1392
 3953SOL    HW114013   7.575   9.482   4.031 -1.5734  0.2074  0.0220
 3953SOL    HW214014   7.513   9.345   4.013  0.3428 -0.7331  0.2716
 3954SOL     OW14015   5.966   5.915   5.658 -0.1688  0.8678 -0.5340
 3954SOL    HW114016   5.889   5.972   5.663 -0.8165 -0.0698  0.5908
 3954SOL    HW214017   5.993   5.903   5.749  0.2271 -0.2625 -0.7892
 3955SOL     OW14018   8.367   5.296   2.752 -0.7734  0.5248 -0.3760
 3955SOL    HW114019   8.448   5.255   2.782 -1.1874 -0.7623 -0.9388
 3955SOL    HW214020   8.380   5.389   2.768  0.0568  0.1631  1.3107
 3956SOL     OW14021   1.249   9.265   5.027  0.1111 -0.6400  0.3957
 3956SOL    HW114022   1.230   9.172   5.021  1.3103 -0.9136  0.5855
 3956SOL    HW214023   1.345   9.271   5.023  0.0896  0.5351  0.9789
 3957SOL     OW14024   3.435   7.488   9.406  0.3741 -0.3239  0.7662
 3957SOL    HW114025   3.357   7.434   9.393  0.9190 -1.3892  1.7752
 3957SOL    HW214026   3.400   7.576   9.420 -0.5854 -0.5925  0.1998
 3958SOL     OW14027   8.037   5.947   7.998 -0.3672  0.1615 -0.3956
 3958SOL    HW114028   7.951   5.904   8.001 -0.3936  0.2128 -0.4032
 3958SOL    HW214029   8.031   6.016   8.064  0.3867 -1.1249  1.0672
 3959SOL     OW14030   2.699   3.688   8.339  0.3340 -0.0607 -0.6127
 3959SOL    HW114031   2.618   3.682   8.389 -0.9399  1.1184 -2.4350
 3959SOL    HW214032   2.768   3.692   8.405 -1.3820  3.7420  1.2197
 3960SOL     OW14033   8.455   4.571   6.339 -0.6202 -0.1813  0.6164
 3960SOL    HW114034   8.439   4.479   6.319  1.1860 -0.5622  0.7390
 3960SOL    HW214035   8.430   4.618   6.260 -1.5683 -0.7591  0.5558
 3961SOL     OW14036   5.849   6.797   1.729 -0.1233 -0.1215  0.1302
 3961SOL    HW114037   5.909   6.811   1.801  1.4595 -1.3929 -0.8896
 3961SOL    HW214038   5.764   6.783   1.771  0.4514  0.6608  1.6368
 3962SOL     OW14039   5.752   2.595   6.680  0.2021  0.7598 -0.2482
 3962SOL    HW114040   5.740   2.689   6.665 -0.9654  0.4676 -1.3485
 3962SOL    HW214041   5.836   2.588   6.725  1.0494  2.2112 -1.5285
 3963SOL     OW14042   1.993   6.587   8.221  0.5611  0.1853 -0.3447
 3963SOL    HW114043   2.038   6.576   8.305  0.4867  0.3666 -0.2791
 3963SOL    HW214044   1.931   6.658   8.237 -0.2555 -0.5398 -0.2154
 3964SOL     OW14045   0.413   2.028   9.166 -0.1000  0.4881  0.0092
 3964SOL    HW114046   0.419   2.114   9.126  0.0235  0.1823 -0.6398
 3964SOL    HW214047   0.504   1.999   9.173 -0.0884  0.6736  0.8320
 3965SOL     OW14048   2.895   9.185   6.535 -0.3078 -0.1477 -0.1518
 3965SOL    HW114049   2.889   9.204   6.628  1.7467 -0.0023 -0.0173
 3965SOL    HW214050   2.804   9.189   6.504 -1.0231 -0.1829  1.8148
 3966SOL     OW14051   2.929   0.820   8.159 -0.1837 -0.0535 -0.0078
 3966SOL    HW114052   3.008   0.870   8.139 -0.2548  0.5062  1.0521
 3966SOL    HW214053   2.872   0.835   8.083 -0.0669  1.2011  0.1309
 3967SOL     OW14054   6.177   6.783   9.564 -0.9416 -0.3049  0.0043
 3967SOL    HW114055   6.172   6.732   9.645 -1.2691 -1.3751 -0.6806
 3967SOL    HW214056   6.267   6.770   9.533 -1.1831 -0.8967 -0.4474
 3968SOL     OW14057   3.145   8.871   2.578 -0.3648  0.0636 -0.3662
 3968SOL    HW114058   3.171   8.945   2.524 -0.5198  0.5897  0.2750
 3968SOL    HW214059   3.049   8.874   2.578 -0.3959 -0.7117 -1.1275
 3969SOL     OW14060   1.348   6.116   9.451  0.0529 -0.2090 -0.3961
 3969SOL    HW114061   1.327   6.145   9.540  2.1655 -1.5126  0.6324
 3969SOL    HW214062   1.400   6.187   9.414 -0.2506  0.0474 -0.3322
 3970SOL     OW14063   1.802   3.390   8.374 -0.8735 -0.1943 -0.1507
 3970SOL    HW114064   1.761   3.312   8.412  3.5784 -1.9973  1.5869
 3970SOL    HW214065   1.812   3.369   8.281 -2.8126 -0.0856 -0.4291
 3971SOL     OW14066   1.985   8.402   5.414 -0.4381  0.5077 -0.4815
 3971SOL    HW114067   1.932   8.404   5.334 -0.2889 -1.4218 -0.6690
 3971SOL    HW214068   1.922   8.381   5.483 -0.2618  0.3533 -0.3685
 3972SOL     OW14069   7.043   2.922   2.021  0.0745  0.1277  0.0557
 3972SOL    HW114070   7.134   2.935   2.047  0.0815 -1.5409  0.9572
 3972SOL    HW214071   6.995   2.916   2.103 -0.3970 -1.9316 -0.3101
 3973SOL     OW14072   3.695   1.508   0.472  0.3753  0.5588 -0.3491
 3973SOL    HW114073   3.632   1.510   0.544  0.7406  2.3208 -0.0290
 3973SOL    HW214074   3.698   1.598   0.441  1.4235  0.1396 -1.5216
 3974SOL     OW14075   8.361   4.152   9.624  0.5472  0.5312  1.0903
 3974SOL    HW114076   8.314   4.171   9.705 -2.9189  1.5497 -0.9366
 3974SOL    HW214077   8.363   4.056   9.619 -2.6835  0.3785  0.6953
 3975SOL     OW14078   3.587   9.630   5.632  0.1617 -0.0791 -0.4106
 3975SOL    HW114079   3.524   9.558   5.635 -1.6360  1.4645  1.3977
 3975SOL    HW214080   3.630   9.629   5.717 -0.5693  1.5099  0.0141
 3976SOL     OW14081   3.155   9.321   5.641 -0.0838 -0.1936  0.3311
 3976SOL    HW114082   3.149   9.261   5.716 -1.7887 -1.4875 -0.7716
 3976SOL    HW214083   3.093   9.391   5.661 -0.3856 -0.4299  0.2314
 3977SOL     OW14084   6.964   3.524   9.025 -0.0609  0.2196  0.4243
 3977SOL    HW114085   6.908   3.447   9.036  0.5666 -0.4956 -1.0678
 3977SOL    HW214086   6.946   3.554   8.936  2.6296 -0.6870 -0.5360
 3978SOL     OW14087   5.982   0.269   7.558 -0.3815 -0.1811 -0.2690
 3978SOL    HW114088   5.940   0.334   7.502 -0.0439  0.1323 -0.1612
 3978SOL    HW214089   5.912   0.209   7.583 -0.9264  0.7631  0.5239
 3979SOL     OW14090   3.241   9.615   5.514 -0.5282  0.0031 -0.4244
 3979SOL    HW114091   3.197   9.543   5.560  2.0929 -1.0131  0.6525
 3979SOL    HW214092   3.236   9.688   5.575  0.7615 -0.6337  0.4955
 3980SOL     OW14093   2.710   6.689   7.971 -0.7932  0.0874 -0.1725
 3980SOL    HW114094   2.742   6.670   7.882  2.4302  3.9453 -0.1157
 3980SOL    HW214095   2.731   6.610   8.021  1.6770 -0.5065 -1.9546
 3981SOL     OW14096   9.182   1.240   0.266 -0.1462 -0.2905  0.1061
 3981SOL    HW114097   9.139   1.268   0.185  1.0415 -0.3410 -0.5685
 3981SOL    HW214098   9.239   1.313   0.290  0.4054 -0.7480  0.2297
 3982SOL     OW14099   9.584   6.192   5.460  0.2408  0.3302  0.7238
 3982SOL    HW114100   9.628   6.127   5.405  0.1604  0.8982 -0.0306
 3982SOL    HW214101   9.537   6.248   5.398  0.3983  1.1782  1.3518
 3983SOL     OW14102   8.740   8.264   4.603  0.1104 -0.8579 -0.2350
 3983SOL    HW114103   8.684   8.330   4.644  0.0154 -0.2969 -1.2411
 3983SOL    HW214104   8.739   8.191   4.665 -1.6475 -0.8310 -0.1747
 3984SOL     OW14105   1.230   7.418   6.565  0.3065 -0.2589  0.2643
 3984SOL    HW114106   1.213   7.501   6.520 -1.3018 -0.1387  1.0522
 3984SOL    HW214107   1.235   7.441   6.657  1.2788 -0.8578  0.3811
 3985SOL     OW14108   6.348   6.460   8.881 -0.3964  0.7652 -0.1477
 3985SOL    HW114109   6.314   6.512   8.808  1.0513  0.9163 -0.7582
 3985SOL    HW214110   6.380   6.524   8.944 -0.5253  0.6197  0.0690
 3986SOL     OW14111   7.701   8.921   4.790  0.2073  0.2162  0.0929
 3986SOL    HW114112   7.662   8.949   4.707  1.1659 -1.6838 -1.0762
 3986SOL    HW214113   7.792   8.948   4.785  0.2751  0.0726  0.5088
 3987SOL     OW14114   2.238   3.900   7.293  0.0055  0.1164  0.2550
 3987SOL    HW114115   2.191   3.923   7.374  1.3483 -1.0732  1.4475
 3987SOL    HW214116   2.212   3.809   7.276 -1.0966  0.6969 -1.2978
 3988SOL     OW14117   4.560   5.396   4.588  0.3109 -0.1545 -0.8455
 3988SOL    HW114118   4.518   5.453   4.524 -0.2761 -0.3410 -0.6291
 3988SOL    HW214119   4.503   5.399   4.665  2.6928  2.7743  1.0311
 3989SOL     OW14120   7.082   7.190   3.454  0.6579  0.2406 -0.2721
 3989SOL    HW114121   7.118   7.115   3.501  1.5729  0.4363 -0.6483
 3989SOL    HW214122   7.018   7.227   3.515  0.6110 -0.4938  0.1465
 3990SOL     OW14123   4.218   0.293   5.963 -0.3350 -0.4039 -0.0647
 3990SOL    HW114124   4.229   0.306   6.057  0.1654 -1.3772  0.0215
 3990SOL    HW214125   4.266   0.213   5.944 -1.5659 -0.9766 -0.9113
 3991SOL     OW14126   7.639   0.581   1.472 -0.2674  0.0707 -0.3381
 3991SOL    HW114127   7.587   0.551   1.546  1.7910 -1.9129  0.4186
 3991SOL    HW214128   7.590   0.553   1.395 -0.8509 -0.7747  0.3313
 3992SOL     OW14129   0.854   9.438   9.044  0.1604 -0.2194 -0.2267
 3992SOL    HW114130   0.851   9.385   8.965  0.2876 -0.3479 -0.1461
 3992SOL    HW214131   0.827   9.525   9.016 -0.8143 -0.5061 -0.2095
 3993SOL     OW14132   2.365   6.750   8.188 -0.2619  0.2125  0.1602
 3993SOL    HW114133   2.401   6.810   8.123  0.5802  0.3049  0.6997
 3993SOL    HW214134   2.346   6.670   8.140  2.0911 -0.3865  0.1251
 3994SOL     OW14135   5.658   0.638   1.473  0.4499 -0.0272 -0.3401
 3994SOL    HW114136   5.659   0.719   1.524  0.5750 -0.3513  0.1825
 3994SOL    HW214137   5.659   0.568   1.538  1.3203 -0.4558 -0.7906
 3995SOL     OW14138   6.979   7.031   2.742  0.6008 -0.5747 -0.0687
 3995SOL    HW114139   6.975   7.119   2.704  0.3265 -0.5435  0.0301
 3995SOL    HW214140   7.006   7.046   2.833  2.9461 -0.7620 -0.6567
 3996SOL     OW14141   3.529   1.759   3.672  0.0236  0.0572  0.5372
 3996SOL    HW114142   3.568   1.699   3.608  0.0176  0.0148  0.5739
 3996SOL    HW214143   3.557   1.726   3.757  1.1124  0.8623  0.5115
 3997SOL     OW14144   2.643   7.687   2.806  0.3981 -0.0087 -0.1779
 3997SOL    HW114145   2.689   7.609   2.775 -0.6886 -0.3708 -0.9603
 3997SOL    HW214146   2.574   7.653   2.863 -0.2003  0.3396 -0.6729
 3998SOL     OW14147   7.506   7.426   2.237  0.0471  0.0270 -0.0834
 3998SOL    HW114148   7.567   7.423   2.164 -1.4081 -0.8027 -1.3339
 3998SOL    HW214149   7.561   7.425   2.315  1.6293 -1.3657 -1.1386
 3999SOL     OW14150   2.454   9.593   3.566  0.4570  0.2363 -0.4254
 3999SOL    HW114151   2.461   9.531   3.639  1.1454  0.6529 -0.1307
 3999SOL    HW214152   2.365   9.582   3.534  0.0816  0.1728  0.6011
 4000SOL     OW14153   7.427   1.298   1.958  0.1574  0.3845 -0.2050
 4000SOL    HW114154   7.490   1.325   2.025  0.6087 -1.1621  0.0353
 4000SOL    HW214155   7.389   1.217   1.993  1.3101 -1.1643 -2.3467
 4001SOL     OW14156   5.665   4.856   4.239 -0.4790  0.6657  0.5242
 4001SOL    HW114157   5.719   4.783   4.210 -0.8921  1.3832 -2.3720
 4001SOL    HW214158   5.621   4.823   4.318  0.3706 -1.7024  0.0985
 4002SOL     OW14159   6.533   5.520   5.524 -0.2480 -0.3063  0.6694
 4002SOL    HW114160   6.486   5.465   5.586  0.9169 -0.1119  1.7831
 4002SOL    HW214161   6.610   5.551   5.573  0.3055  0.4836 -0.6330
 4003SOL     OW14162   9.289   0.383   4.102 -0.7503 -0.1613  1.1684
 4003SOL    HW114163   9.195   0.369   4.094 -0.6462 -0.6111  0.6174
 4003SOL    HW214164   9.299   0.475   4.125 -1.3961 -0.5060  2.9749
 4004SOL     OW14165   9.316   5.920   8.730 -0.0545  0.4316  0.2929
 4004SOL    HW114166   9.358   6.006   8.737  1.6804 -0.2905 -0.4955
 4004SOL    HW214167   9.375   5.861   8.777  0.1824 -0.7368 -1.3875
 4005SOL     OW14168   8.680   6.961   6.203 -0.7657  0.4348  0.3103
 4005SOL    HW114169   8.735   6.969   6.282  0.6133 -0.8550 -0.4615
 4005SOL    HW214170   8.672   6.867   6.189 -1.8225  0.6358 -0.5404
 4006SOL     OW14171   1.891   4.387   2.761  0.0739  0.2376  0.8800
 4006SOL    HW114172   1.908   4.298   2.731 -0.3967  0.1116  0.9810
 4006SOL    HW214173   1.942   4.443   2.702 -2.2363  0.1304 -1.3981
 4007SOL     OW14174   5.423   8.544   2.831  0.1580 -0.0989  0.1332
 4007SOL    HW114175   5.437   8.639   2.831  0.3539 -0.1253  0.4760
 4007SOL    HW214176   5.329   8.534   2.849  0.2657  0.0187  0.7755
 4008SOL     OW14177   4.746   7.940   5.195 -0.6269  0.2334  0.3673
 4008SOL    HW114178   4.747   8.026   5.236  1.8279  0.4032  0.1079
 4008SOL    HW214179   4.775   7.956   5.105 -1.7205 -0.6954 -0.1921
 4009SOL     OW14180   8.645   5.634   8.265  0.3547  0.0373 -0.2132
 4009SOL    HW114181   8.665   5.586   8.184  1.6920 -0.6097  0.4753
 4009SOL    HW214182   8.552   5.616   8.281  0.2053 -0.2501 -1.3224
 4010SOL     OW14183   1.263   7.075   2.011  0.1420 -0.5670  0.3942
 4010SOL    HW114184   1.253   6.983   2.037  1.9577 -0.8893  0.0785
 4010SOL    HW214185   1.337   7.075   1.951 -0.4560  0.9836 -0.3959
 4011SOL     OW14186   6.866   1.647   8.027 -0.5357  0.1878  0.2259
 4011SOL    HW114187   6.900   1.557   8.030  0.0497  0.3632 -0.8643
 4011SOL    HW214188   6.775   1.638   8.057 -0.6629 -0.8639 -0.4132
 4012SOL     OW14189   1.631   4.337   7.771 -0.0128  0.0403  0.0437
 4012SOL    HW114190   1.578   4.355   7.848  1.1327 -0.9248  1.1075
 4012SOL    HW214191   1.721   4.350   7.800  0.3916  2.2179 -1.8556
 4013SOL     OW14192   3.616   1.487   8.967 -0.2257  0.1857 -0.0826
 4013SOL    HW114193   3.558   1.428   9.016 -1.4690  0.6089 -1.0005
 4013SOL    HW214194   3.685   1.430   8.935 -0.2597 -0.3851  0.8080
 4014SOL     OW14195   1.676   4.029   9.567  0.5108 -0.0505  0.3170
 4014SOL    HW114196   1.732   4.004   9.639  0.8146 -0.4277 -0.0485
 4014SOL    HW214197   1.723   4.002   9.488 -0.1264 -0.2735  0.0005
 4015SOL     OW14198   3.003   2.127   5.852  0.1252  0.0006  0.0220
 4015SOL    HW114199   2.951   2.202   5.880  0.4117  0.1646  0.1212
 4015SOL    HW214200   3.002   2.132   5.756 -0.9146 -0.6027 -0.0018
 4016SOL     OW14201   9.327   1.080   4.906  0.2460 -0.0320  0.6695
 4016SOL    HW114202   9.331   1.105   4.998  0.9791 -1.2284  0.9790
 4016SOL    HW214203   9.418   1.078   4.877 -0.0184  1.2246 -0.3560
 4017SOL     OW14204   3.183   7.318   6.689 -0.3668  0.0024  0.1429
 4017SOL    HW114205   3.265   7.268   6.693 -1.4003 -1.8335  3.9912
 4017SOL    HW214206   3.116   7.252   6.673 -1.3087  1.1301 -0.6819
 4018SOL     OW14207   7.489   7.577   3.269  0.2132  0.8053  0.0257
 4018SOL    HW114208   7.429   7.562   3.196  0.3735  0.5443 -0.0535
 4018SOL    HW214209   7.475   7.504   3.328  2.7151 -1.0892 -1.5132
 4019SOL     OW14210   8.701   4.850   3.222  0.0085  0.5678  0.4580
 4019SOL    HW114211   8.751   4.931   3.224 -0.5778  0.9512  0.0269
 4019SOL    HW214212   8.736   4.802   3.146 -1.7507  1.8408 -1.2655
 4020SOL     OW14213   4.761   2.957   5.107 -0.2954  0.1846  0.4051
 4020SOL    HW114214   4.784   3.032   5.162  0.8443  0.1875 -0.0439
 4020SOL    HW214215   4.710   2.995   5.035  2.0747  0.9157 -0.9864
 4021SOL     OW14216   3.902   0.030   3.784  0.2895  0.2495  0.3096
 4021SOL    HW114217   3.945  -0.052   3.758  0.4348 -0.1109  1.6099
 4021SOL    HW214218   3.875   0.015   3.874 -0.5290  1.3078  0.2551
 4022SOL     OW14219   4.741   4.564   7.082  0.1477  0.2149  0.1598
 4022SOL    HW114220   4.804   4.495   7.063 -0.3048  0.1794 -1.3858
 4022SOL    HW214221   4.669   4.549   7.020  0.1075  2.1409 -0.3484
 4023SOL     OW14222   1.035   6.498   4.500  0.2979  0.2020 -0.4111
 4023SOL    HW114223   1.006   6.520   4.589 -1.3556 -0.3282 -0.7831
 4023SOL    HW214224   1.124   6.532   4.495 -0.0232  1.3670  1.0329
 4024SOL     OW14225   4.189   7.117   3.138 -0.4245 -0.9029  0.1374
 4024SOL    HW114226   4.106   7.106   3.093 -0.4264  1.7083 -0.6780
 4024SOL    HW214227   4.174   7.190   3.199  1.5460  0.6162 -1.0341
 4025SOL     OW14228   0.644   0.593   0.777  0.1408  0.7464 -0.0968
 4025SOL    HW114229   0.565   0.541   0.792  1.0261 -0.5612  0.2020
 4025SOL    HW214230   0.655   0.645   0.857  1.2947 -1.4336  1.2570
 4026SOL     OW14231   7.713   7.069   6.542  0.5788 -0.4262  0.1066
 4026SOL    HW114232   7.751   7.069   6.629  3.2197 -3.3364 -0.8811
 4026SOL    HW214233   7.632   7.018   6.551  0.6914 -0.4708  0.9031
 4027SOL     OW14234   2.510   8.726   5.539 -0.5191  0.1937 -0.5559
 4027SOL    HW114235   2.476   8.659   5.599 -0.4625 -1.5068 -2.2980
 4027SOL    HW214236   2.578   8.680   5.489  0.0056  1.7727 -1.3567
 4028SOL     OW14237   3.542   7.502   2.261 -0.3025 -0.2697 -0.0283
 4028SOL    HW114238   3.447   7.493   2.265 -0.1622 -2.8540 -0.8177
 4028SOL    HW214239   3.565   7.479   2.172  1.0481  1.1682 -0.0954
 4029SOL     OW14240   1.801   0.653   0.846 -0.3775  0.4588  0.2561
 4029SOL    HW114241   1.806   0.708   0.768  0.4151  1.1335  0.7712
 4029SOL    HW214242   1.892   0.630   0.865 -0.6332 -0.3550  0.5277
 4030SOL     OW14243   3.748   1.938   3.917 -0.3652 -0.2689 -0.1205
 4030SOL    HW114244   3.804   2.014   3.931 -1.6147  0.7608 -0.4826
 4030SOL    HW214245   3.679   1.946   3.982 -1.1453 -0.4527 -0.8994
 4031SOL     OW14246   1.480   2.458   8.586  0.2584 -0.0391  0.1603
 4031SOL    HW114247   1.516   2.484   8.671 -1.7146  1.6564  0.5618
 4031SOL    HW214248   1.401   2.408   8.608 -0.6982  1.0586 -0.5922
 4032SOL     OW14249   1.135   4.730   1.189 -0.3672 -0.5108  0.3521
 4032SOL    HW114250   1.208   4.757   1.246  0.0904  0.0099 -0.4545
 4032SOL    HW214251   1.140   4.634   1.187  0.7900 -0.4627 -0.2866
 4033SOL     OW14252   8.346   7.915   1.514  0.3887 -0.0594  0.4606
 4033SOL    HW114253   8.408   7.984   1.493  0.9347 -0.8149 -0.4461
 4033SOL    HW214254   8.398   7.848   1.559 -0.0348 -0.1256  0.8645
 4034SOL     OW14255   0.644   5.586   0.543 -0.3014  0.0445 -0.3778
 4034SOL    HW114256   0.735   5.616   0.544 -0.5663  1.0207  2.3694
 4034SOL    HW214257   0.642   5.515   0.607 -1.2749 -0.7353 -1.2437
 4035SOL     OW14258   1.417   6.597   1.016  0.4266 -0.3723  0.2025
 4035SOL    HW114259   1.336   6.566   1.056  0.9673 -1.7628  0.2446
 4035SOL    HW214260   1.390   6.630   0.930 -0.2514 -0.3214  0.4261
 4036SOL     OW14261   6.482   4.605   4.925  0.4052 -0.6542  0.1162
 4036SOL    HW114262   6.505   4.539   4.991 -0.3762 -0.7646  0.2926
 4036SOL    HW214263   6.431   4.670   4.973  0.7626 -0.1729 -0.1586
 4037SOL     OW14264   5.386   8.680   3.587  0.3533 -0.4359  0.4289
 4037SOL    HW114265   5.398   8.638   3.672 -1.7892 -1.5005  0.2590
 4037SOL    HW214266   5.308   8.639   3.550  0.6697  0.6808 -1.6518
 4038SOL     OW14267   5.190   8.643   2.076  1.0981 -0.5179  0.3331
 4038SOL    HW114268   5.236   8.629   2.159  1.5645 -2.1779 -0.1614
 4038SOL    HW214269   5.130   8.569   2.070 -0.3565  0.6523  0.0928
 4039SOL     OW14270   3.152   1.983   5.217  0.1321 -0.2986  0.0029
 4039SOL    HW114271   3.197   1.913   5.264  0.7848  0.5125  0.6296
 4039SOL    HW214272   3.081   2.009   5.275  0.2857 -0.0177  0.0700
 4040SOL     OW14273   9.395   3.050   6.261 -0.9775 -0.1751  0.5512
 4040SOL    HW114274   9.354   2.987   6.201 -1.0164 -0.3757  0.7854
 4040SOL    HW214275   9.345   3.041   6.342 -0.6656 -0.1977  0.7421
 4041SOL     OW14276   0.310   1.227   7.867  0.0059  0.0546 -0.1922
 4041SOL    HW114277   0.363   1.261   7.939  0.1352 -0.9123  0.1722
 4041SOL    HW214278   0.220   1.254   7.888  0.0773 -0.0215  0.2024
 4042SOL     OW14279   2.449   6.577   8.647 -0.4329 -0.2779 -0.0592
 4042SOL    HW114280   2.482   6.594   8.558  0.5459 -1.4485  0.0587
 4042SOL    HW214281   2.475   6.654   8.697 -0.2460  0.0122 -0.5898
 4043SOL     OW14282   2.634   2.195   1.117 -0.3453  0.1598  0.0286
 4043SOL    HW114283   2.713   2.236   1.082 -0.2994  0.6456  0.6826
 4043SOL    HW214284   2.663   2.109   1.147  0.0541  0.5410  0.7532
 4044SOL     OW14285   1.966   1.039   0.717 -0.2367 -0.3038 -0.1321
 4044SOL    HW114286   2.045   1.075   0.757  0.5851 -2.1026 -0.0336
 4044SOL    HW214287   1.907   1.022   0.790  0.0652 -0.7475  0.0144
 4045SOL     OW14288   3.901   4.681   2.149  0.4307  0.7094  0.6852
 4045SOL    HW114289   3.826   4.680   2.090 -0.6376  2.2671  1.9410
 4045SOL    HW214290   3.905   4.592   2.185 -2.1998  1.1180  2.2316
 4046SOL     OW14291   7.239   1.162   8.552  0.0788 -0.4805 -0.3851
 4046SOL    HW114292   7.176   1.179   8.621  0.7853  0.5814  0.0338
 4046SOL    HW214293   7.215   1.223   8.482  0.9731  0.3739  0.0210
 4047SOL     OW14294   1.783   4.789   1.748  0.1106 -0.1293 -0.5224
 4047SOL    HW114295   1.709   4.828   1.794  0.0213  0.1710 -0.9263
 4047SOL    HW214296   1.760   4.696   1.738  0.1683 -0.2215  0.1128
 4048SOL     OW14297   0.370   4.369   3.673  0.2276 -0.0910 -0.2506
 4048SOL    HW114298   0.406   4.426   3.605  1.5113 -0.9584 -0.3377
 4048SOL    HW214299   0.276   4.384   3.669  0.4640  1.4239 -0.7904
 4049SOL     OW14300   8.890   6.612   0.882  0.3607  0.2357 -0.1963
 4049SOL    HW114301   8.981   6.597   0.856  0.4091  2.2702 -1.4674
 4049SOL    HW214302   8.840   6.597   0.801 -0.3682 -0.1916  0.3210
 4050SOL     OW14303   0.830   0.116   9.495 -0.2386 -0.3923  0.2008
 4050SOL    HW114304   0.814   0.024   9.512 -1.0763  0.0382  1.9473
 4050SOL    HW214305   0.776   0.137   9.419 -2.0731 -0.7810  1.3391
 4051SOL     OW14306   3.828   8.572   8.611  0.0679 -0.5740  0.4122
 4051SOL    HW114307   3.886   8.646   8.591  1.5059 -1.0916  2.2568
 4051SOL    HW214308   3.755   8.612   8.658 -0.5486 -0.0403 -0.9453
 4052SOL     OW14309   9.404   0.709   8.623 -0.3332 -0.6582  0.1426
 4052SOL    HW114310   9.381   0.697   8.715 -0.2412 -1.0995  0.1074
 4052SOL    HW214311   9.496   0.684   8.617 -0.9860 -3.1148 -0.5416
 4053SOL     OW14312   5.543   9.398   6.034 -0.0369  0.7302 -0.6051
 4053SOL    HW114313   5.471   9.352   5.991  0.1827 -0.8323  0.5949
 4053SOL    HW214314   5.622   9.351   6.007  0.1226 -0.2036  1.2557
 4054SOL     OW14315   4.602   5.458   4.101 -0.1557  0.0685  0.5125
 4054SOL    HW114316   4.639   5.456   4.190 -1.3841  3.8316  1.2964
 4054SOL    HW214317   4.507   5.454   4.115 -0.3758  1.1130 -0.5850
 4055SOL     OW14318   5.693   5.213   1.242 -0.7362  0.0514  0.4932
 4055SOL    HW114319   5.727   5.220   1.331 -2.0305  0.7026  0.9510
 4055SOL    HW214320   5.600   5.194   1.252 -0.4605 -2.3151 -0.7456
 4056SOL     OW14321   5.233   3.646   6.072 -0.3059 -0.0852 -0.9193
 4056SOL    HW114322   5.298   3.714   6.058  1.0703 -1.2165 -0.2380
 4056SOL    HW214323   5.245   3.619   6.163 -0.9224 -1.1336 -1.1262
 4057SOL     OW14324   4.947   6.163   7.509  0.6887 -0.1428 -0.0481
 4057SOL    HW114325   4.981   6.220   7.441 -1.0770  1.1555  0.0689
 4057SOL    HW214326   4.853   6.159   7.492  0.4849 -1.3791  1.1636
 4058SOL     OW14327   6.251   4.803   4.601 -0.1455 -0.0161 -0.2391
 4058SOL    HW114328   6.266   4.712   4.627  2.2076  0.3626 -0.0636
 4058SOL    HW214329   6.224   4.797   4.509  1.4904 -0.8538 -0.7128
 4059SOL     OW14330   4.519   1.592   4.913 -0.3400 -0.4329  0.5831
 4059SOL    HW114331   4.477   1.522   4.963 -1.0597 -0.8359 -0.5580
 4059SOL    HW214332   4.599   1.553   4.879 -1.6534 -1.3356 -1.6175
 4060SOL     OW14333   3.820   2.314   7.357 -0.0756  0.3566 -0.1641
 4060SOL    HW114334   3.771   2.314   7.439 -1.1421 -1.1215 -0.7666
 4060SOL    HW214335   3.825   2.222   7.331  1.2261  0.6775 -1.2019
 4061SOL     OW14336   4.823   2.407   3.234 -0.4611 -0.3406 -0.4434
 4061SOL    HW114337   4.762   2.363   3.293 -0.4164 -0.7375 -0.6908
 4061SOL    HW214338   4.797   2.379   3.147  1.1174 -1.8811 -0.4731
 4062SOL     OW14339   5.821   6.594   4.068  0.0996 -0.0749 -0.0507
 4062SOL    HW114340   5.777   6.668   4.109  1.8956  0.7440  0.5153
 4062SOL    HW214341   5.826   6.617   3.976 -1.1164 -0.4501 -0.2314
 4063SOL     OW14342   6.829   4.087   7.673  0.3948  0.0822  0.0204
 4063SOL    HW114343   6.833   4.149   7.600 -0.8532  2.3187  1.7196
 4063SOL    HW214344   6.864   4.005   7.637 -1.2790  0.6816 -3.4230
 4064SOL     OW14345   1.504   2.805   1.747 -0.3817  0.3097 -0.2880
 4064SOL    HW114346   1.411   2.802   1.769  0.1426 -1.3182  2.0213
 4064SOL    HW214347   1.532   2.894   1.769 -1.4707  1.0470 -1.6964
 4065SOL     OW14348   4.105   1.802   8.104  0.0391  0.2708  0.2058
 4065SOL    HW114349   4.110   1.720   8.056  3.0462  1.0993 -1.1444
 4065SOL    HW214350   4.048   1.858   8.051  0.1427 -0.0911 -0.2899
 4066SOL     OW14351   3.695   8.269   8.354 -0.3054 -0.7936 -0.1002
 4066SOL    HW114352   3.733   8.189   8.389  0.3094 -0.1143  0.8422
 4066SOL    HW214353   3.692   8.329   8.429 -1.8377 -0.3182 -0.5105
 4067SOL     OW14354   1.745   5.375   3.086  0.1631 -0.0271  0.3518
 4067SOL    HW114355   1.667   5.349   3.135  0.6172 -2.7487 -0.2519
 4067SOL    HW214356   1.818   5.340   3.138  1.0803  2.4617  0.9058
 4068SOL     OW14357   1.456   2.589   7.333  0.5668  0.0094 -0.3591
 4068SOL    HW114358   1.414   2.532   7.398 -0.0786 -0.0553 -0.8163
 4068SOL    HW214359   1.548   2.592   7.359  0.3056  0.0533  0.6040
 4069SOL     OW14360   5.780   5.116   6.503  0.1501 -0.2322  0.4430
 4069SOL    HW114361   5.781   5.211   6.512  0.7655 -0.3453  1.7908
 4069SOL    HW214362   5.691   5.090   6.525  0.2505 -0.0383  1.1129
 4070SOL     OW14363   5.023   4.150   9.162 -0.1796  0.6551  0.4734
 4070SOL    HW114364   4.993   4.170   9.073  2.2660  0.0313 -0.5477
 4070SOL    HW214365   5.094   4.212   9.177  0.8392 -0.6520  1.1495
 4071SOL     OW14366   8.397   5.911   5.071  0.5217 -0.3334  0.0492
 4071SOL    HW114367   8.458   5.859   5.123  1.0336 -0.2293 -0.4343
 4071SOL    HW214368   8.446   5.933   4.992  0.3509  0.9584  0.2791
 4072SOL     OW14369   1.118   6.739   0.009 -0.3897  0.3079 -0.2473
 4072SOL    HW114370   1.031   6.713  -0.021 -0.8351  0.5685  0.7673
 4072SOL    HW214371   1.157   6.658   0.044  0.6706 -0.3225 -2.6229
 4073SOL     OW14372   5.116   6.330   1.109 -0.2415 -0.1318  0.1903
 4073SOL    HW114373   5.123   6.261   1.175  0.0004  0.6847  1.0442
 4073SOL    HW214374   5.043   6.385   1.139  1.3647  1.6232  1.1450
 4074SOL     OW14375   9.417   2.817   1.829  0.4716 -0.4051 -0.6484
 4074SOL    HW114376   9.362   2.769   1.767  0.9647  0.2481 -1.6158
 4074SOL    HW214377   9.505   2.809   1.795  0.8471 -0.5314  0.3076
 4075SOL     OW14378   5.248   3.609   1.371  0.2014 -0.6335 -0.1603
 4075SOL    HW114379   5.189   3.657   1.429  2.5372 -0.2254  2.0746
 4075SOL    HW214380   5.224   3.639   1.283 -2.2412  0.1803  0.6834
 4076SOL     OW14381   5.274   2.988   0.077 -0.1420 -0.0765 -0.1513
 4076SOL    HW114382   5.330   3.041   0.020 -0.1371 -1.6401 -1.6828
 4076SOL    HW214383   5.311   3.001   0.164  0.9387  1.0472 -0.7362
 4077SOL     OW14384   9.001   4.647   9.472 -0.0059 -0.3430  0.4111
 4077SOL    HW114385   8.922   4.686   9.434  0.6829  0.2880 -0.4135
 4077SOL    HW214386   9.027   4.707   9.541  1.6261  1.3055 -1.5110
 4078SOL     OW14387   4.459   2.157   4.848  0.2436  0.3193  0.2888
 4078SOL    HW114388   4.517   2.082   4.842  0.4151  0.4841 -0.1731
 4078SOL    HW214389   4.442   2.181   4.757 -1.6070 -0.5476  0.3572
 4079SOL     OW14390   9.352   1.094   8.446 -0.0326 -0.0281 -0.1166
 4079SOL    HW114391   9.390   1.113   8.360 -0.5930 -0.0700 -0.3786
 4079SOL    HW214392   9.425   1.105   8.507  0.0377  1.4319 -0.4283
 4080SOL     OW14393   6.866   2.780   4.396  0.6131  0.0068 -0.2251
 4080SOL    HW114394   6.882   2.787   4.302  1.0818 -0.1224 -0.1570
 4080SOL    HW214395   6.944   2.736   4.430  0.3704 -0.0989  0.2003
 4081SOL     OW14396   0.192   3.823   1.262  0.3432 -0.1105 -0.0873
 4081SOL    HW114397   0.251   3.888   1.224  0.9813 -0.2665  0.5896
 4081SOL    HW214398   0.213   3.742   1.217  1.1091 -0.2991  0.5856
 4082SOL     OW14399   8.575   0.695   0.785  0.0773  0.5385  0.0921
 4082SOL    HW114400   8.646   0.637   0.814 -0.2027 -0.2477 -0.7322
 4082SOL    HW214401   8.620   0.770   0.746  0.4756  0.0004 -0.5165
 4083SOL     OW14402   3.514   1.628   3.347  0.9807 -0.1312  0.1972
 4083SOL    HW114403   3.554   1.555   3.393  0.5060 -0.5222 -0.0014
 4083SOL    HW214404   3.545   1.619   3.257 -0.2574 -0.9747 -0.1684
 4084SOL     OW14405   4.856   7.318   9.517  0.3503  0.5287  0.1506
 4084SOL    HW114406   4.901   7.264   9.582  1.2705  1.9738  0.7517
 4084SOL    HW214407   4.858   7.266   9.437  1.5429 -0.1725  0.6216
 4085SOL     OW14408   1.975   0.223   2.546 -0.0043  0.4556 -0.3000
 4085SOL    HW114409   2.014   0.145   2.507  2.4401  1.8602 -0.8815
 4085SOL    HW214410   1.887   0.227   2.509  0.2135 -1.3964 -1.1324
 4086SOL     OW14411   6.813   9.164   6.934 -0.7516 -0.3126  0.1634
 4086SOL    HW114412   6.721   9.184   6.919 -0.4739  0.0517 -1.1518
 4086SOL    HW214413   6.829   9.191   7.025 -1.2349  2.4179 -0.4649
 4087SOL     OW14414   7.631   6.794   0.637  0.3615  0.1809  0.1001
 4087SOL    HW114415   7.552   6.790   0.583  0.2607  1.9164  0.0588
 4087SOL    HW214416   7.673   6.709   0.624  0.4431  0.5500 -2.9088
 4088SOL     OW14417   9.017   4.774   5.314  0.2559  0.1332  0.7774
 4088SOL    HW114418   8.988   4.831   5.243 -1.0598 -0.5594  0.7309
 4088SOL    HW214419   9.085   4.720   5.275  1.2123  1.3492  0.7060
 4089SOL     OW14420   4.344   4.023   3.686 -0.9209  0.4617 -0.1272
 4089SOL    HW114421   4.328   3.930   3.669  0.9518  0.2351 -0.9092
 4089SOL    HW214422   4.417   4.046   3.629  0.9943  1.5074  2.5029
 4090SOL     OW14423   0.411   4.118   8.865 -0.0860  0.1366 -0.2449
 4090SOL    HW114424   0.445   4.076   8.786 -1.1359  1.2276 -1.3248
 4090SOL    HW214425   0.374   4.201   8.835  0.7076  1.2403  1.6188
 4091SOL     OW14426   6.297   6.488   6.128  0.1449  0.9463  0.1742
 4091SOL    HW114427   6.263   6.574   6.107  0.3229  1.1227  0.5976
 4091SOL    HW214428   6.384   6.485   6.087  0.0825  0.9170  0.0447
 4092SOL     OW14429   1.802   0.427   5.571  0.0255 -0.7357 -0.1139
 4092SOL    HW114430   1.768   0.499   5.623 -0.0343  0.2927 -1.5335
 4092SOL    HW214431   1.777   0.447   5.481  1.4533 -1.6603 -0.7672
 4093SOL     OW14432   1.840   5.894   5.565  0.4083 -1.3568 -0.7585
 4093SOL    HW114433   1.898   5.900   5.489  0.9190 -1.8180 -0.4151
 4093SOL    HW214434   1.760   5.939   5.538  1.0953 -0.2895 -1.0743
 4094SOL     OW14435   8.313   1.643   2.082  0.2375 -0.1089 -0.3689
 4094SOL    HW114436   8.321   1.578   2.013 -0.7739  0.4588 -1.0405
 4094SOL    HW214437   8.237   1.696   2.057  0.4540  0.7232  0.6592
 4095SOL     OW14438   9.096   4.709   0.523 -0.3257 -0.1399 -0.0803
 4095SOL    HW114439   9.107   4.786   0.580  1.3972 -0.6586  0.3557
 4095SOL    HW214440   9.154   4.725   0.449  1.8336 -1.9547  1.0973
 4096SOL     OW14441   0.745   1.047   7.311  0.2951 -0.3992 -0.2663
 4096SOL    HW114442   0.685   1.075   7.379 -0.1162 -1.1411 -0.3136
 4096SOL    HW214443   0.735   1.113   7.242 -0.7766 -0.7300 -0.4503
 4097SOL     OW14444   9.113   3.504   5.040  0.5033  0.1327 -0.1886
 4097SOL    HW114445   9.118   3.562   5.115 -0.2405 -0.3764  0.2643
 4097SOL    HW214446   9.056   3.432   5.068  1.9018 -1.1605 -0.5129
 4098SOL     OW14447   0.090   0.688   0.742  0.0353 -1.1196  0.4063
 4098SOL    HW114448   0.165   0.745   0.762 -0.8873  0.0308  0.7272
 4098SOL    HW214449   0.014   0.744   0.756 -0.8542 -0.7590 -4.1195
 4099SOL     OW14450   7.190   9.203   6.778 -0.0811  0.1115 -0.0553
 4099SOL    HW114451   7.118   9.157   6.736  0.4185 -1.1709  0.4333
 4099SOL    HW214452   7.208   9.153   6.858  1.2782  0.4568 -0.1177
 4100SOL     OW14453   0.966   2.802   1.513 -0.0375  0.1459  0.3370
 4100SOL    HW114454   0.899   2.755   1.464 -0.7082  1.0096  0.3955
 4100SOL    HW214455   0.919   2.838   1.589  0.4779  0.8118  0.3512
 4101SOL     OW14456   1.851   7.852   1.559  0.3250  0.3754 -0.7768
 4101SOL    HW114457   1.860   7.771   1.609  2.1105  2.0706  1.8990
 4101SOL    HW214458   1.772   7.893   1.594  0.6203  0.7742 -0.5687
 4102SOL     OW14459   7.200   8.059   8.555  0.1766  0.3474  0.2922
 4102SOL    HW114460   7.266   8.127   8.564  1.2419 -0.6594  0.4433
 4102SOL    HW214461   7.226   8.011   8.476 -0.7004  0.2760  0.0356
 4103SOL     OW14462   6.487   7.639   3.749 -0.0312 -0.4411 -0.2334
 4103SOL    HW114463   6.415   7.634   3.812 -0.0803  0.3723 -0.2190
 4103SOL    HW214464   6.449   7.681   3.672  0.4288 -0.0140 -0.2266
 4104SOL     OW14465   0.817   0.144   1.034  0.5741 -0.0963  0.5164
 4104SOL    HW114466   0.784   0.091   0.962  0.2674  1.5210 -0.5811
 4104SOL    HW214467   0.795   0.094   1.113  1.2814 -2.0895 -0.4896
 4105SOL     OW14468   2.290   8.379   4.309  0.6704  0.1315 -0.1530
 4105SOL    HW114469   2.373   8.402   4.350  1.0921  0.6641 -1.2516
 4105SOL    HW214470   2.257   8.305   4.360  0.3654  1.7508  2.1332
 4106SOL     OW14471   8.685   6.433   7.995  0.4510 -0.4675 -0.1406
 4106SOL    HW114472   8.623   6.481   7.941  0.6375 -0.0728 -0.0035
 4106SOL    HW214473   8.651   6.441   8.084  0.4659 -0.6174 -0.1199
 4107SOL     OW14474   4.769   0.834   3.249  0.2341  0.3241 -0.1151
 4107SOL    HW114475   4.807   0.817   3.163  0.2365  3.8015 -0.9345
 4107SOL    HW214476   4.828   0.897   3.290 -0.2982 -0.4844  2.0667
 4108SOL     OW14477   3.208   5.272   4.009  0.6196  0.2950  0.6256
 4108SOL    HW114478   3.259   5.259   3.929  0.1854  0.9876  0.2359
 4108SOL    HW214479   3.267   5.319   4.068  0.9037 -0.1287  0.6903
 4109SOL     OW14480   4.957   8.645   7.158  0.4856  0.2503  0.8554
 4109SOL    HW114481   5.042   8.621   7.121  0.0187 -0.5601  0.2792
 4109SOL    HW214482   4.951   8.596   7.240 -0.8742 -2.5409 -0.7703
 4110SOL     OW14483   0.679   0.505   5.181 -0.1321  0.5839 -0.0060
 4110SOL    HW114484   0.699   0.434   5.121 -1.0538  0.4490 -0.1727
 4110SOL    HW214485   0.758   0.559   5.182  0.9025 -0.8710  0.7598
 4111SOL     OW14486   2.667   0.985   3.764 -0.4320  0.5591  0.1780
 4111SOL    HW114487   2.680   0.935   3.845 -0.2465  0.2185 -0.0571
 4111SOL    HW214488   2.589   0.946   3.725 -0.9175  1.1754  0.5275
 4112SOL     OW14489   4.496   4.962   3.715  0.1226  0.6543  0.4785
 4112SOL    HW114490   4.538   4.892   3.665  2.3111  3.4102 -1.9600
 4112SOL    HW214491   4.519   4.944   3.806  0.4058 -1.8459 -0.0065
 4113SOL     OW14492   2.490   0.820   6.539  0.1741  0.3576  0.6585
 4113SOL    HW114493   2.522   0.894   6.488 -0.2332  0.0918  0.0024
 4113SOL    HW214494   2.564   0.758   6.539 -0.1001 -0.0010 -0.3495
 4114SOL     OW14495   4.763   2.294   1.292 -0.2877  0.6282 -0.3624
 4114SOL    HW114496   4.716   2.289   1.375 -0.8980 -0.6403 -0.7470
 4114SOL    HW214497   4.845   2.248   1.308 -0.2310  0.7383 -0.3420
 4115SOL     OW14498   1.083   7.021   1.201 -0.3096 -0.1712  0.0755
 4115SOL    HW114499   1.173   7.037   1.172 -0.4457  0.5154  0.0165
 4115SOL    HW214500   1.054   7.105   1.236 -0.9158 -0.4001  0.1284
 4116SOL     OW14501   6.748   9.377   0.500  0.5066 -0.1194 -0.2309
 4116SOL    HW114502   6.726   9.417   0.584 -0.4988 -2.5704  0.7678
 4116SOL    HW214503   6.840   9.399   0.487 -0.2741  3.7630 -0.6262
 4117SOL     OW14504   8.512   7.434   0.519  0.0791  0.9035  0.7909
 4117SOL    HW114505   8.432   7.426   0.571 -0.6346  1.0829 -0.2606
 4117SOL    HW214506   8.583   7.427   0.583 -0.7672  0.4547  1.6982
 4118SOL     OW14507   7.431   9.146   2.341  0.1760  0.1682  0.2151
 4118SOL    HW114508   7.505   9.094   2.370  0.5588  0.1825 -0.6812
 4118SOL    HW214509   7.450   9.235   2.371  0.7383  0.2524 -0.3786
 4119SOL     OW14510   5.963   1.795   0.015 -0.2939 -0.2222  0.7822
 4119SOL    HW114511   5.869   1.785   0.001 -0.2930 -2.1560  1.7939
 4119SOL    HW214512   5.980   1.888  -0.001 -2.1856 -0.0221 -0.3967
 4120SOL     OW14513   8.581   6.989   2.154  0.4890  0.2632 -0.1415
 4120SOL    HW114514   8.642   6.921   2.124  2.3633  1.4870  0.6977
 4120SOL    HW214515   8.557   6.962   2.242  0.8726  0.4338  0.0188
 4121SOL     OW14516   9.206   6.554   3.771  0.1541 -0.1061  0.1342
 4121SOL    HW114517   9.287   6.595   3.740 -0.1405 -0.4244 -1.1016
 4121SOL    HW214518   9.235   6.482   3.826  0.7121  2.3672  3.3997
 4122SOL     OW14519   6.549   9.408   1.043  0.0653  0.2506  0.7106
 4122SOL    HW114520   6.472   9.462   1.031 -1.5128 -1.5860  1.9176
 4122SOL    HW214521   6.571   9.377   0.955 -1.0546  0.1776  0.4493
 4123SOL     OW14522   8.369   5.909   2.455  0.2626 -0.7142  0.1916
 4123SOL    HW114523   8.375   5.818   2.487  2.9253 -1.3625 -1.7571
 4123SOL    HW214524   8.441   5.954   2.499  0.2524 -0.0920 -0.4200
 4124SOL     OW14525   9.591   1.532   1.248 -0.2312  0.3390  0.0461
 4124SOL    HW114526   9.675   1.575   1.231 -0.4452  0.5443 -0.4991
 4124SOL    HW214527   9.614   1.440   1.260  0.3028  0.6681  1.8013
 4125SOL     OW14528   3.202   6.817   3.679  0.3394  0.4754  0.2195
 4125SOL    HW114529   3.230   6.739   3.631  0.8708  0.7156  0.1403
 4125SOL    HW214530   3.106   6.814   3.675  0.2496 -1.2661  1.9295
 4126SOL     OW14531   7.751   1.758   6.499 -0.5535 -0.2277  0.2911
 4126SOL    HW114532   7.824   1.749   6.438 -0.9749 -0.6679 -0.1481
 4126SOL    HW214533   7.732   1.852   6.499  0.1233 -0.0840  0.5441
 4127SOL     OW14534   1.950   8.078   3.362  0.3084  0.0184  0.4590
 4127SOL    HW114535   2.010   8.124   3.421  0.4873  0.6475 -0.1943
 4127SOL    HW214536   1.882   8.142   3.342  1.2059  0.4690 -1.4203
 4128SOL     OW14537   5.325   6.296   3.816 -0.5607 -0.3168 -0.3644
 4128SOL    HW114538   5.234   6.285   3.843 -0.2768  0.4706  1.0369
 4128SOL    HW214539   5.376   6.257   3.888  0.2113 -1.0867 -1.3054
 4129SOL     OW14540   2.615   0.438   9.310  0.3811  0.2526 -0.5641
 4129SOL    HW114541   2.608   0.347   9.281 -0.8526  0.0941  0.1837
 4129SOL    HW214542   2.666   0.432   9.391  0.5129  0.2670 -0.6442
 4130SOL     OW14543   6.430   1.225   0.747 -0.3742  0.5236  0.9021
 4130SOL    HW114544   6.518   1.228   0.785 -0.5426 -0.1149  1.3441
 4130SOL    HW214545   6.425   1.139   0.705 -0.9979  0.3219  1.3896
 4131SOL     OW14546   0.083   7.814   8.321  0.2506  0.3821 -0.5545
 4131SOL    HW114547   0.094   7.832   8.415 -0.5306  1.3086 -0.6249
 4131SOL    HW214548   0.162   7.766   8.297  0.4489  0.0972  0.5877
 4132SOL     OW14549   6.579   5.123   3.613 -0.4568 -0.1448 -0.1011
 4132SOL    HW114550   6.499   5.072   3.610 -0.5523 -0.0247  0.3126
 4132SOL    HW214551   6.581   5.171   3.530  0.2223 -1.6863 -1.0326
 4133SOL     OW14552   6.618   7.824   2.283  0.4918  0.1067 -0.4074
 4133SOL    HW114553   6.604   7.735   2.313 -0.9793  0.4186 -0.1109
 4133SOL    HW214554   6.532   7.855   2.256  1.0192  1.3517 -0.7573
 4134SOL     OW14555   6.195   4.797   2.335  0.0404 -0.2012 -0.1265
 4134SOL    HW114556   6.160   4.710   2.356  1.9174 -0.5967  1.6901
 4134SOL    HW214557   6.156   4.855   2.399  0.8809 -0.2318  0.4300
 4135SOL     OW14558   5.060   5.731   4.598 -0.0360 -0.3468 -0.6402
 4135SOL    HW114559   5.071   5.704   4.690  0.2006  1.2932 -0.1570
 4135SOL    HW214560   5.146   5.716   4.559  0.4659  0.8470 -0.0466
 4136SOL     OW14561   0.670   1.968   9.507 -0.0313 -0.0371 -0.7783
 4136SOL    HW114562   0.678   1.985   9.601  1.8409  1.0270 -1.0997
 4136SOL    HW214563   0.635   2.049   9.471 -0.5800 -0.3853 -1.0339
 4137SOL     OW14564   4.337   3.179   7.946  0.3324  0.0297  0.3666
 4137SOL    HW114565   4.359   3.242   7.877  0.4248 -0.3653  0.0317
 4137SOL    HW214566   4.410   3.186   8.009 -0.2442  1.1194  0.9539
 4138SOL     OW14567   6.819   8.804   0.302 -0.6783  0.4467 -0.3282
 4138SOL    HW114568   6.793   8.746   0.373 -1.1646  0.4895 -0.4655
 4138SOL    HW214569   6.754   8.875   0.304 -0.2356  0.8537 -0.3188
 4139SOL     OW14570   7.923   9.239   3.620  0.2185 -0.4292 -0.1099
 4139SOL    HW114571   7.932   9.335   3.620  0.7414 -0.4728  0.0190
 4139SOL    HW214572   7.859   9.221   3.688  0.9615 -0.2281  0.6654
 4140SOL     OW14573   0.055   1.262   5.936 -0.1097  0.1780 -0.0662
 4140SOL    HW114574   0.012   1.345   5.960 -1.3006 -0.4239 -0.0497
 4140SOL    HW214575   0.129   1.289   5.882 -0.5733  1.2527 -0.2050
 4141SOL     OW14576   2.594   8.146   0.935  0.7888  0.7787 -0.2784
 4141SOL    HW114577   2.548   8.122   0.855  2.5052 -1.5673 -0.6667
 4141SOL    HW214578   2.627   8.063   0.970  1.5267  1.9266  1.9734
 4142SOL     OW14579   1.277   3.564   3.748  0.1446  0.1833  0.7697
 4142SOL    HW114580   1.226   3.502   3.696  0.9925 -0.0302  0.1911
 4142SOL    HW214581   1.348   3.592   3.691  0.0232  1.3778  1.1662
 4143SOL     OW14582   6.216   4.215   4.984 -0.4087 -0.3414 -0.5638
 4143SOL    HW114583   6.305   4.227   5.017 -0.3320 -0.3839 -0.7596
 4143SOL    HW214584   6.225   4.211   4.889 -0.6776  0.1470 -0.6103
 4144SOL     OW14585   4.395   0.905   7.987 -0.1286 -0.3844  0.1783
 4144SOL    HW114586   4.425   0.844   7.920  1.2531  0.8031 -0.3383
 4144SOL    HW214587   4.456   0.893   8.060  0.6465  0.9066 -0.2339
 4145SOL     OW14588   0.195   2.027   2.981  0.0998 -0.0857  0.1044
 4145SOL    HW114589   0.129   1.976   2.934 -0.6557 -0.1679  1.2154
 4145SOL    HW214590   0.234   1.965   3.043  0.2249  0.3096  0.4284
 4146SOL     OW14591   6.965   9.598   5.291 -0.0959  0.5339  0.6129
 4146SOL    HW114592   6.994   9.593   5.200 -1.3778  1.0832  0.1507
 4146SOL    HW214593   7.039   9.639   5.337  1.0510 -0.8689  0.0782
 4147SOL     OW14594   2.233   8.068   4.065  0.4480  0.7358  0.2992
 4147SOL    HW114595   2.201   8.026   4.145 -0.8247  2.8496  0.9634
 4147SOL    HW214596   2.221   8.001   3.998 -0.2540 -0.4388  1.5228
 4148SOL     OW14597   1.665   4.111   6.286 -0.1686  0.3787  0.1688
 4148SOL    HW114598   1.570   4.099   6.286 -0.0580 -0.6196 -0.7962
 4148SOL    HW214599   1.680   4.184   6.226 -0.3622  1.0088  0.8696
 4149SOL     OW14600   6.861   3.315   3.165 -0.2224 -0.2416 -0.6427
 4149SOL    HW114601   6.807   3.369   3.108 -0.3027 -2.2162 -2.5754
 4149SOL    HW214602   6.805   3.242   3.190  0.6360 -0.7689 -0.2081
 4150SOL     OW14603   7.027   6.764   4.474  0.3311  0.1953  0.0134
 4150SOL    HW114604   6.946   6.778   4.524  0.6809  0.9399  0.3969
 4150SOL    HW214605   7.002   6.777   4.383  0.1382  1.0367  0.1773
 4151SOL     OW14606   8.115   0.514   4.064 -0.2148 -0.4042  0.1535
 4151SOL    HW114607   8.187   0.452   4.080 -0.5723 -0.7630  0.4227
 4151SOL    HW214608   8.038   0.468   4.098 -1.0271 -1.1703 -2.5293
 4152SOL     OW14609   2.902   2.885   1.961  0.0882 -0.6281 -0.3218
 4152SOL    HW114610   2.992   2.862   1.935  0.2928 -0.2509  0.0418
 4152SOL    HW214611   2.893   2.850   2.049  0.3863  0.6079  0.2191
 4153SOL     OW14612   2.997   2.546   4.215 -0.4651  0.5133 -0.6992
 4153SOL    HW114613   2.932   2.488   4.256  1.2262  0.6539  2.4312
 4153SOL    HW214614   3.048   2.488   4.159 -0.3828 -0.5569  0.4379
 4154SOL     OW14615   5.400   9.402   2.684  0.1182  0.5681 -0.5942
 4154SOL    HW114616   5.352   9.472   2.727  0.0453  0.0969  0.1053
 4154SOL    HW214617   5.450   9.445   2.615  1.4116  1.5524  0.9013
 4155SOL     OW14618   0.958   5.739   3.880  0.2944  0.0014  0.4925
 4155SOL    HW114619   1.015   5.675   3.922  0.5863 -0.1919 -0.1901
 4155SOL    HW214620   0.904   5.774   3.951  0.8183 -0.2823  1.0322
 4156SOL     OW14621   5.788   0.768   9.107  0.0137 -0.0667 -0.1651
 4156SOL    HW114622   5.702   0.731   9.129 -0.2689  0.3362 -0.5525
 4156SOL    HW214623   5.839   0.694   9.074  0.0605 -0.4512  0.7411
 4157SOL     OW14624   2.741   3.939   3.491  0.1336  0.0333  0.2705
 4157SOL    HW114625   2.787   4.017   3.523  2.2417  0.1145 -2.6366
 4157SOL    HW214626   2.793   3.865   3.523 -1.1390 -0.2093  1.9239
 4158SOL     OW14627   0.107   8.460   2.075  0.1288 -0.6117 -0.1937
 4158SOL    HW114628   0.182   8.502   2.032 -0.5479 -0.0112 -0.8363
 4158SOL    HW214629   0.075   8.397   2.010 -1.8951  1.4369 -1.3421
 4159SOL     OW14630   1.697   6.246   2.480  0.4832 -0.2545  0.8475
 4159SOL    HW114631   1.650   6.304   2.540  1.2314 -0.0126  1.2294
 4159SOL    HW214632   1.786   6.282   2.478  0.4269 -0.1580 -0.5607
 4160SOL     OW14633   2.862   0.039   0.309  0.3309  0.4991 -0.4888
 4160SOL    HW114634   2.872   0.087   0.391  3.3410  0.8892 -0.9773
 4160SOL    HW214635   2.942   0.058   0.260 -1.2179  0.0454 -3.4308
 4161SOL     OW14636   6.784   0.770   2.948 -0.7130 -0.5241  0.0864
 4161SOL    HW114637   6.736   0.689   2.964  0.4835 -1.1025  0.8619
 4161SOL    HW214638   6.815   0.761   2.858  0.9237 -1.7678  0.7321
 4162SOL     OW14639   5.505   9.080   0.620  0.1700  0.1215 -0.0495
 4162SOL    HW114640   5.550   9.160   0.592 -0.6339  0.0258 -1.7362
 4162SOL    HW214641   5.573   9.027   0.662  0.7764  1.5289  0.8115
 4163SOL     OW14642   6.214   3.555   6.132  0.2271  0.5665 -0.2031
 4163SOL    HW114643   6.269   3.590   6.062  0.4464  1.4506  0.3928
 4163SOL    HW214644   6.219   3.621   6.201 -0.3628 -0.0700  0.4588
 4164SOL     OW14645   5.615   0.915   8.235 -0.4009  0.8969 -0.2839
 4164SOL    HW114646   5.625   0.820   8.221 -3.2528  0.5789 -0.8303
 4164SOL    HW214647   5.581   0.923   8.324 -0.1571  1.4101 -0.2347
 4165SOL     OW14648   3.208   9.218   3.017  0.1436  0.1174  0.0485
 4165SOL    HW114649   3.281   9.160   3.041  3.2512  2.1869 -3.4764
 4165SOL    HW214650   3.180   9.186   2.932  0.7974  2.6505 -1.1910
 4166SOL     OW14651   1.627   4.454   3.043 -0.4358 -0.0699  0.1099
 4166SOL    HW114652   1.702   4.408   3.081 -1.0976 -0.8004  0.5489
 4166SOL    HW214653   1.587   4.500   3.116 -0.7104 -0.0933 -0.0231
 4167SOL     OW14654   5.636   0.344   9.562 -0.3995 -0.8021  0.4237
 4167SOL    HW114655   5.644   0.335   9.467 -2.2234 -2.2064  0.3376
 4167SOL    HW214656   5.585   0.268   9.588 -0.8020  0.1009  2.4067
 4168SOL     OW14657   8.708   7.184   3.374 -0.7749 -0.7502 -0.3195
 4168SOL    HW114658   8.786   7.155   3.326 -2.0298 -1.9281 -1.7669
 4168SOL    HW214659   8.686   7.110   3.430 -0.5698 -0.2130  0.4865
 4169SOL     OW14660   5.136   5.276   4.165 -0.0919 -0.3607  0.2421
 4169SOL    HW114661   5.191   5.216   4.115  1.2225  0.7994  0.2325
 4169SOL    HW214662   5.114   5.346   4.103 -1.4783 -0.7291  0.2892
 4170SOL     OW14663   6.726   0.845   8.816  0.2296 -0.2058  0.6225
 4170SOL    HW114664   6.692   0.767   8.773  0.6134 -0.4790  0.8007
 4170SOL    HW214665   6.816   0.852   8.785 -0.0896  0.7175 -0.1300
 4171SOL     OW14666   2.126   3.026   1.517 -0.0380  0.7451 -0.5999
 4171SOL    HW114667   2.039   2.990   1.532  0.0412  0.2011 -1.3759
 4171SOL    HW214668   2.148   3.072   1.598 -0.4646 -0.3061  0.1314
 4172SOL     OW14669   3.767   9.542   3.542  0.1867 -0.1039 -0.1555
 4172SOL    HW114670   3.819   9.616   3.513 -0.8262  0.2766 -1.0746
 4172SOL    HW214671   3.813   9.465   3.509  0.8699  0.1422  0.2079
 4173SOL     OW14672   7.130   7.445   0.144  0.1673  0.2631 -0.5573
 4173SOL    HW114673   7.050   7.397   0.164 -1.2402  2.6297 -0.0839
 4173SOL    HW214674   7.118   7.475   0.053 -0.2287  1.9079  0.0088
 4174SOL     OW14675   8.958   0.811   8.435  0.2502 -0.9386  0.0958
 4174SOL    HW114676   8.976   0.733   8.488 -0.6238  0.7711  3.1252
 4174SOL    HW214677   9.042   0.856   8.428  1.1995 -2.8839 -3.2619
 4175SOL     OW14678   7.076   3.602   6.812  0.1844 -0.2889  0.0646
 4175SOL    HW114679   6.999   3.635   6.766 -0.4899  0.1288  1.4166
 4175SOL    HW214680   7.080   3.655   6.892  1.3658 -0.9082  0.4391
 4176SOL     OW14681   3.092   6.655   1.499 -0.2175  1.0619 -0.2036
 4176SOL    HW114682   3.025   6.592   1.472  0.8468 -1.7911  3.0797
 4176SOL    HW214683   3.170   6.631   1.448  0.1666 -0.3437  0.9932
 4177SOL     OW14684   8.179   2.921   2.935  0.6140 -0.4975 -0.0502
 4177SOL    HW114685   8.133   2.909   2.851  1.5052  1.3081 -0.8551
 4177SOL    HW214686   8.130   2.991   2.978 -0.3064 -1.9412  1.3349
 4178SOL     OW14687   9.273   9.143   2.229 -0.2481  0.2909 -0.0657
 4178SOL    HW114688   9.285   9.141   2.324 -0.9174  1.1109  0.0464
 4178SOL    HW214689   9.281   9.051   2.202 -0.2424  0.0240  0.8084
 4179SOL     OW14690   8.058   1.197   0.513  0.0192  0.1669  0.4278
 4179SOL    HW114691   8.003   1.157   0.580 -1.3904  1.9262  0.3905
 4179SOL    HW214692   8.025   1.287   0.505  1.7635  0.7526 -0.8717
 4180SOL     OW14693   5.282   7.132   2.547 -0.5078 -0.3510 -0.7461
 4180SOL    HW114694   5.228   7.074   2.493 -0.6790  0.3722 -1.3698
 4180SOL    HW214695   5.266   7.219   2.511  2.0995 -0.2324 -1.8632
 4181SOL     OW14696   1.179   5.726   4.898 -0.1904 -0.0189  0.0351
 4181SOL    HW114697   1.240   5.722   4.972 -0.1572 -0.3079 -0.0076
 4181SOL    HW214698   1.228   5.769   4.828 -0.0911 -0.1032  0.0531
 4182SOL     OW14699   4.085   0.195   8.821 -0.4721 -0.8577 -0.1094
 4182SOL    HW114700   4.023   0.265   8.837  0.0754 -0.6269  1.1002
 4182SOL    HW214701   4.066   0.165   8.732 -0.3308  1.1985 -0.8715
 4183SOL     OW14702   3.060   1.800   4.071  0.0694 -0.2582  0.4123
 4183SOL    HW114703   3.107   1.767   3.995 -1.3060 -0.5886 -0.3356
 4183SOL    HW214704   3.103   1.760   4.146  2.5585  1.3944 -0.0128
 4184SOL     OW14705   7.092   8.759   2.397 -0.4153  0.0796  0.1925
 4184SOL    HW114706   7.124   8.717   2.317 -0.4928 -1.0849  0.7587
 4184SOL    HW214707   6.997   8.749   2.393 -0.3147 -1.6623  1.3105
 4185SOL     OW14708   4.744   3.188   4.409 -0.2524  0.1251  0.3031
 4185SOL    HW114709   4.687   3.143   4.348  0.0918  0.5495 -0.3511
 4185SOL    HW214710   4.685   3.228   4.473 -0.8256  1.7218 -1.1334
 4186SOL     OW14711   6.932   7.004   8.373 -0.0815 -0.1865 -0.1020
 4186SOL    HW114712   7.009   7.004   8.317  1.1695 -1.7445  1.5027
 4186SOL    HW214713   6.867   6.953   8.324  1.0162 -1.6169 -0.1218
 4187SOL     OW14714   9.045   0.628   9.152  0.0033 -0.0723 -0.0890
 4187SOL    HW114715   9.129   0.635   9.198 -0.0202  1.6138 -0.2210
 4187SOL    HW214716   9.016   0.538   9.168  0.4380  0.1487  2.3845
 4188SOL     OW14717   0.504   7.780   8.857  0.3619 -0.1919  0.0995
 4188SOL    HW114718   0.541   7.695   8.882 -0.5726 -0.2925  1.2628
 4188SOL    HW214719   0.452   7.806   8.933 -0.1252  0.9843 -0.6106
 4189SOL     OW14720   7.104   2.846   7.183 -0.1872 -0.8814 -0.0222
 4189SOL    HW114721   7.062   2.767   7.216 -0.6592 -0.3120  0.7670
 4189SOL    HW214722   7.047   2.875   7.111 -0.7481 -0.5302  0.5542
 4190SOL     OW14723   7.508   4.014   6.710 -0.2306  0.7550 -0.5188
 4190SOL    HW114724   7.525   3.959   6.633  1.5455 -1.3250  1.2101
 4190SOL    HW214725   7.456   3.958   6.768  0.6901  1.2639  0.8419
 4191SOL     OW14726   5.512   1.974   0.731  0.5790  0.1059 -0.1122
 4191SOL    HW114727   5.564   2.052   0.749  0.5933  0.2242 -0.6514
 4191SOL    HW214728   5.511   1.967   0.635  1.7176 -1.3190 -0.0513
 4192SOL     OW14729   2.374   7.415   7.956 -0.4853 -0.7011 -0.3859
 4192SOL    HW114730   2.282   7.430   7.933  0.0275  1.3527 -1.2396
 4192SOL    HW214731   2.409   7.502   7.973  0.3848 -1.6838  3.8723
 4193SOL     OW14732   5.142   4.729   0.523 -0.2069  0.0182 -0.2275
 4193SOL    HW114733   5.104   4.727   0.610 -0.7176  1.9390 -0.3623
 4193SOL    HW214734   5.139   4.821   0.497  0.5924 -0.3981 -1.9863
 4194SOL     OW14735   0.064   0.016   8.620  0.1299 -0.3291 -0.6711
 4194SOL    HW114736   0.074   0.054   8.533 -0.2963  0.2864 -0.4623
 4194SOL    HW214737   0.032   0.089   8.674 -1.1266 -1.0782 -0.3502
 4195SOL     OW14738   9.257   0.240   2.795 -0.9278 -0.5008 -0.7315
 4195SOL    HW114739   9.230   0.330   2.773  0.1383 -0.0343 -0.1790
 4195SOL    HW214740   9.192   0.211   2.859 -0.2241  0.5833  0.5221
 4196SOL     OW14741   4.498   6.133   3.658 -0.3406  0.4954 -0.7281
 4196SOL    HW114742   4.528   6.203   3.600 -0.3527  2.1452  1.1766
 4196SOL    HW214743   4.577   6.106   3.706 -0.5088 -0.2207 -0.8410
 4197SOL     OW14744   4.898   1.168   9.083  0.1007 -0.0394 -0.1615
 4197SOL    HW114745   4.828   1.216   9.039  0.0327  1.7338  1.7396
 4197SOL    HW214746   4.970   1.166   9.020 -0.9850 -0.2273 -1.4275
 4198SOL     OW14747   2.886   2.412   5.425 -0.3720 -0.1590  0.1537
 4198SOL    HW114748   2.803   2.365   5.439 -0.6328 -0.1641 -1.2433
 4198SOL    HW214749   2.875   2.456   5.340  1.1504 -0.3913 -0.2013
 4199SOL     OW14750   7.996   2.600   8.964 -0.0931 -0.0566  0.1725
 4199SOL    HW114751   8.076   2.648   8.943 -0.4417  1.3324  1.7856
 4199SOL    HW214752   7.967   2.563   8.881  2.6759 -1.3913 -0.3182
 4200SOL     OW14753   3.213   4.619   1.804  0.1652 -0.2504 -0.1108
 4200SOL    HW114754   3.183   4.604   1.715 -0.0280 -2.3271  0.2530
 4200SOL    HW214755   3.133   4.623   1.856  0.3358 -0.5439  0.1748
 4201SOL     OW14756   5.132   9.305   1.150 -0.4038  0.2196 -0.3054
 4201SOL    HW114757   5.112   9.219   1.187 -0.3232  0.8406  1.2713
 4201SOL    HW214758   5.048   9.337   1.117 -0.7629  0.2007  0.5759
 4202SOL     OW14759   1.001   6.367   6.304  0.1958  0.0120 -0.1056
 4202SOL    HW114760   0.930   6.427   6.280  0.7303  0.5174 -0.4211
 4202SOL    HW214761   1.063   6.372   6.232  0.9444  0.1821  0.5275
 4203SOL     OW14762   9.478   1.924   5.273 -0.2656 -0.4925 -0.3107
 4203SOL    HW114763   9.433   1.958   5.351 -1.1883 -2.2664 -0.0085
 4203SOL    HW214764   9.556   1.881   5.308 -0.0105 -0.1910 -0.5077
 4204SOL     OW14765   1.199   8.625   3.041  0.4482  0.4076 -0.6212
 4204SOL    HW114766   1.105   8.608   3.042  0.1011  2.0808  0.8637
 4204SOL    HW214767   1.216   8.672   3.123  2.4769  0.6862 -1.1285
 4205SOL     OW14768   7.850   2.073   1.502  0.2158  0.3460  0.1343
 4205SOL    HW114769   7.935   2.115   1.492  0.3220  0.1150  0.0582
 4205SOL    HW214770   7.791   2.144   1.527  0.1774  0.7384 -1.0142
 4206SOL     OW14771   3.348   6.963   4.384  0.1630  0.0366  0.3701
 4206SOL    HW114772   3.342   6.892   4.448 -0.3103 -0.6405 -0.3876
 4206SOL    HW214773   3.274   6.947   4.325  2.3071 -1.2422 -2.1820
 4207SOL     OW14774   7.466   0.037   0.641 -0.0598 -0.1199  0.1593
 4207SOL    HW114775   7.461  -0.007   0.556 -3.7275 -0.7819  0.5415
 4207SOL    HW214776   7.431   0.125   0.624  0.2328  0.1205  0.7906
 4208SOL     OW14777   1.497   3.702   7.151 -0.1810 -0.1477  0.1243
 4208SOL    HW114778   1.418   3.722   7.100 -0.2242 -0.8651 -0.0956
 4208SOL    HW214779   1.567   3.748   7.105 -0.4915  0.6672  0.4394
 4209SOL     OW14780   9.308   3.363   8.369  0.1334 -0.2075 -0.1621
 4209SOL    HW114781   9.302   3.411   8.452 -1.6926  0.1898 -0.4813
 4209SOL    HW214782   9.294   3.272   8.393 -0.4420 -0.0869 -0.0257
 4210SOL     OW14783   5.362   3.999   9.250  0.2561  0.1825 -0.1838
 4210SOL    HW114784   5.439   3.958   9.289  1.0549  0.5151 -1.3515
 4210SOL    HW214785   5.322   4.048   9.322  1.0128 -0.1670  0.4894
 4211SOL     OW14786   1.606   3.102   4.124  0.1921  0.0102 -0.2419
 4211SOL    HW114787   1.691   3.145   4.122  0.3360 -0.2612 -0.0035
 4211SOL    HW214788   1.625   3.012   4.149  0.0855 -0.6523 -2.3537
 4212SOL     OW14789   1.778   0.137   5.415  0.0948  0.5796 -0.2646
 4212SOL    HW114790   1.789   0.192   5.337  1.0100 -0.1108 -0.6290
 4212SOL    HW214791   1.692   0.163   5.449 -0.3393  0.8801 -1.5107
 4213SOL     OW14792   7.657   5.628   6.748  0.4410  0.2861 -0.2617
 4213SOL    HW114793   7.740   5.583   6.760  0.9097  1.1999  0.0504
 4213SOL    HW214794   7.604   5.604   6.824  1.0415  0.9963  0.3998
 4214SOL     OW14795   1.506   6.321   3.900 -0.4645 -0.6247 -0.5578
 4214SOL    HW114796   1.566   6.272   3.956  0.5862  1.6686  0.4353
 4214SOL    HW214797   1.558   6.394   3.868 -2.3807  0.7328 -0.7069
 4215SOL     OW14798   0.320   4.548   3.459  0.5367  0.1486  0.7105
 4215SOL    HW114799   0.398   4.579   3.413 -0.1342  2.0471  0.7864
 4215SOL    HW214800   0.247   4.570   3.401  0.0107 -1.5257  0.6787
 4216SOL     OW14801   8.951   0.299   0.496 -0.3882 -0.4528 -0.1722
 4216SOL    HW114802   8.922   0.258   0.415 -1.9074  1.1336 -0.4817
 4216SOL    HW214803   9.047   0.296   0.492 -0.4518 -1.2010 -1.5742
 4217SOL     OW14804   3.808   1.812   9.474  0.3238 -0.1756  0.2440
 4217SOL    HW114805   3.796   1.814   9.569  0.0745  0.6583  0.2019
 4217SOL    HW214806   3.900   1.837   9.461  0.0392  0.9178  0.2218
 4218SOL     OW14807   1.844   7.336   1.870  0.6524 -0.0829 -0.1650
 4218SOL    HW114808   1.839   7.406   1.935  0.1750 -1.5561  1.4628
 4218SOL    HW214809   1.920   7.283   1.897 -1.1697 -2.3057  0.9624
 4219SOL     OW14810   1.909   1.488   7.618  0.1554  0.6309 -0.3324
 4219SOL    HW114811   1.914   1.578   7.649 -1.2028  1.3815 -2.1612
 4219SOL    HW214812   1.816   1.468   7.614  0.4255 -1.5065  1.6474
 4220SOL     OW14813   2.679   0.655   2.785  0.2084  0.4211 -0.0150
 4220SOL    HW114814   2.664   0.596   2.859  2.3890  1.3356  1.2409
 4220SOL    HW214815   2.593   0.693   2.767 -1.1311 -2.5618 -0.4404
 4221SOL     OW14816   8.455   6.484   4.211  0.0895  0.1049 -0.2644
 4221SOL    HW114817   8.412   6.521   4.289 -0.7433 -1.1660 -0.0844
 4221SOL    HW214818   8.408   6.402   4.195  1.2879 -0.4273 -1.1758
 4222SOL     OW14819   7.157   2.867   0.899 -0.2071  0.3215  0.1882
 4222SOL    HW114820   7.111   2.912   0.969  2.3569 -0.1472  2.2929
 4222SOL    HW214821   7.198   2.792   0.941  3.5517  1.4038 -1.1944
 4223SOL     OW14822   8.686   9.226   5.476  0.3607  0.0828  0.0224
 4223SOL    HW114823   8.755   9.183   5.426  0.8971  0.4353  0.4420
 4223SOL    HW214824   8.706   9.319   5.468 -1.7050  0.4545 -2.2583
 4224SOL     OW14825   4.851   2.661   0.020 -0.3101  0.4390  0.4471
 4224SOL    HW114826   4.896   2.648  -0.063  0.3819 -1.2092  1.0404
 4224SOL    HW214827   4.765   2.620   0.007  0.7793 -2.3541  1.3471
 4225SOL     OW14828   2.310   6.770   4.024  0.1344  0.2379 -0.0508
 4225SOL    HW114829   2.219   6.746   4.042  0.3740  0.6574  1.9277
 4225SOL    HW214830   2.352   6.687   4.000 -0.8446  0.1219 -1.5571
 4226SOL     OW14831   8.137   5.765   2.653  0.3481 -0.3000 -0.5738
 4226SOL    HW114832   8.151   5.724   2.567 -0.1771 -1.5733 -0.0767
 4226SOL    HW214833   8.090   5.699   2.703 -0.0781  0.7465  0.4416
 4227SOL     OW14834   8.745   1.269   5.012  0.2935 -0.0467  0.2744
 4227SOL    HW114835   8.815   1.331   5.030 -0.3998  1.0240 -0.5381
 4227SOL    HW214836   8.761   1.239   4.923  0.0267 -0.2150  0.2802
 4228SOL     OW14837   5.540   6.562   2.457  0.5924 -0.8412 -0.2999
 4228SOL    HW114838   5.525   6.635   2.516  1.5933 -0.7823 -0.1154
 4228SOL    HW214839   5.595   6.598   2.387 -0.4598 -0.9425 -1.2151
 4229SOL     OW14840   0.046   6.655   1.076 -0.1044 -0.1330 -0.4850
 4229SOL    HW114841   0.124   6.606   1.050  0.8950  1.7188 -1.2060
 4229SOL    HW214842  -0.022   6.589   1.087  0.8646 -1.5734 -2.4677
 4230SOL     OW14843   2.281   4.038   2.510  0.0717  0.3827  0.5431
 4230SOL    HW114844   2.242   4.047   2.597 -0.5435  0.9420  0.2223
 4230SOL    HW214845   2.261   4.120   2.466  0.9051  0.3456  0.0745
 4231SOL     OW14846   7.025   9.066   1.613  0.1657 -0.1063 -0.1717
 4231SOL    HW114847   6.991   8.977   1.605  0.9951 -0.5264  0.6960
 4231SOL    HW214848   6.950   9.122   1.598 -0.4736 -0.9663 -0.2588
 4232SOL     OW14849   1.385   1.473   9.350  0.1205  0.6119 -0.7227
 4232SOL    HW114850   1.308   1.517   9.387  0.2106  0.2341 -0.0629
 4232SOL    HW214851   1.446   1.544   9.330  0.5084  0.7825  0.9001
 4233SOL     OW14852   1.455   2.129   9.248 -0.2797  0.0502 -0.1731
 4233SOL    HW114853   1.548   2.110   9.241 -0.3389 -0.5095  0.4179
 4233SOL    HW214854   1.449   2.198   9.314 -0.4856 -2.2379  2.3892
 4234SOL     OW14855   7.730   6.829   6.905  0.7737  0.0412  0.3805
 4234SOL    HW114856   7.796   6.826   6.835  0.2359 -0.4009 -0.1202
 4234SOL    HW214857   7.780   6.817   6.986  1.2541 -0.8618 -0.0357
 4235SOL     OW14858   7.889   8.793   8.180  0.0111 -0.1685  0.0406
 4235SOL    HW114859   7.962   8.811   8.120  0.1836 -2.8922 -0.7124
 4235SOL    HW214860   7.906   8.705   8.212 -2.6736 -0.6774  0.2933
 4236SOL     OW14861   9.062   3.828   1.995 -0.2635  0.4682 -0.0934
 4236SOL    HW114862   9.075   3.899   1.933  1.7522 -0.7863 -1.2184
 4236SOL    HW214863   9.100   3.859   2.077 -2.2938  1.8521  0.4097
 4237SOL     OW14864   2.174   3.888   7.582 -0.0150 -0.9470  0.6305
 4237SOL    HW114865   2.177   3.976   7.618 -0.4756 -0.0147 -1.4621
 4237SOL    HW214866   2.266   3.858   7.584  0.1327 -0.4744  1.4090
 4238SOL     OW14867   7.465   5.392   4.769 -0.0417  0.4744 -0.2788
 4238SOL    HW114868   7.459   5.313   4.823  1.2569 -1.0573 -2.1977
 4238SOL    HW214869   7.378   5.401   4.730  0.2862 -1.2834 -1.5864
 4239SOL     OW14870   6.492   2.795   6.434 -0.0464  0.6837  0.2216
 4239SOL    HW114871   6.577   2.821   6.469  0.3894 -1.1339  0.6321
 4239SOL    HW214872   6.432   2.802   6.508  0.1425  0.2156  0.4240
 4240SOL     OW14873   5.424   6.920   1.640 -0.3140 -0.6050 -0.1652
 4240SOL    HW114874   5.492   6.930   1.574 -0.9790  0.7272 -0.6920
 4240SOL    HW214875   5.453   6.847   1.694  1.8873  0.3498  0.0575
 4241SOL     OW14876   6.440   5.294   6.716  0.3388  0.1115 -0.4611
 4241SOL    HW114877   6.487   5.219   6.753  0.1174 -0.5386 -1.4553
 4241SOL    HW214878   6.353   5.260   6.696 -0.2174  1.0185  0.3436
 4242SOL     OW14879   4.951   8.651   6.512  0.8334 -0.1691  0.3643
 4242SOL    HW114880   5.002   8.729   6.490 -0.3350  0.3836 -0.4604
 4242SOL    HW214881   4.860   8.676   6.496  0.3361 -1.3198  1.2627
 4243SOL     OW14882   0.711   1.179   6.631 -0.6960 -0.1086  0.1647
 4243SOL    HW114883   0.638   1.154   6.688  0.5067 -1.8357  1.0760
 4243SOL    HW214884   0.781   1.118   6.655  0.7338  0.8540 -1.3461
 4244SOL     OW14885   6.430   2.559   8.715  0.6194  0.0956  0.8246
 4244SOL    HW114886   6.505   2.618   8.725  1.2054 -0.6575  0.9880
 4244SOL    HW214887   6.468   2.472   8.720 -0.1502 -0.3042 -0.0250
 4245SOL     OW14888   0.707   7.280   1.352  0.1228 -0.4505  0.0339
 4245SOL    HW114889   0.739   7.369   1.338  0.5898 -0.7564 -0.8788
 4245SOL    HW214890   0.723   7.234   1.270 -0.6529 -1.2265  0.2939
 4246SOL     OW14891   5.513   7.401   9.079  0.2741 -0.5189  0.7992
 4246SOL    HW114892   5.499   7.348   9.158 -0.2015 -0.5941  0.6658
 4246SOL    HW214893   5.454   7.475   9.089 -0.6035 -1.0959 -0.0083
 4247SOL     OW14894   5.590   1.556   2.896 -0.0238  0.4155 -0.0175
 4247SOL    HW114895   5.542   1.612   2.836 -0.9071 -0.8290 -0.5129
 4247SOL    HW214896   5.523   1.503   2.939  0.8009 -0.4722  0.2218
 4248SOL     OW14897   7.715   8.234   3.574  0.0677  0.1046 -0.3525
 4248SOL    HW114898   7.647   8.300   3.560 -0.5389 -0.6288 -1.0565
 4248SOL    HW214899   7.669   8.163   3.619 -0.1684 -1.2065 -2.5035
 4249SOL     OW14900   6.350   2.053   6.887  0.0164 -0.2312  0.1195
 4249SOL    HW114901   6.257   2.065   6.909 -0.0795 -1.0192  0.1719
 4249SOL    HW214902   6.350   2.029   6.795  0.0758 -1.2851  0.3793
 4250SOL     OW14903   7.183   8.219   2.790 -0.3468 -0.0234 -0.2896
 4250SOL    HW114904   7.128   8.192   2.716 -1.2305 -2.0690  1.0241
 4250SOL    HW214905   7.252   8.272   2.750  0.6298 -2.9739 -2.9482
 4251SOL     OW14906   4.405   4.858   4.322  0.4731 -0.9250 -0.2084
 4251SOL    HW114907   4.438   4.945   4.298  0.3533 -0.9867 -0.6061
 4251SOL    HW214908   4.311   4.871   4.335  0.6990 -0.6501  1.3881
 4252SOL     OW14909   6.904   7.487   0.424 -0.3427 -0.5009 -0.0279
 4252SOL    HW114910   6.917   7.546   0.349 -0.0520 -1.6393 -0.9096
 4252SOL    HW214911   6.918   7.400   0.388 -0.6065 -1.1082  1.2835
 4253SOL     OW14912   2.144   0.311   3.059  0.3171 -0.8504  0.0579
 4253SOL    HW114913   2.175   0.313   3.150  1.6967 -1.4370 -0.3754
 4253SOL    HW214914   2.065   0.366   3.060  0.9058  0.0412  1.3825
 4254SOL     OW14915   5.955   8.611   3.114 -0.3579 -0.3947 -0.0468
 4254SOL    HW114916   5.965   8.608   3.209 -0.5277  1.0215  0.0308
 4254SOL    HW214917   5.884   8.548   3.096  0.9080 -2.0737  0.5297
 4255SOL     OW14918   1.330   9.607   4.612 -0.0501 -0.4582 -0.7705
 4255SOL    HW114919   1.268   9.570   4.675 -0.0225  2.8772  1.4634
 4255SOL    HW214920   1.415   9.598   4.653  0.6553 -2.1348 -2.4159
 4256SOL     OW14921   1.678   7.066   9.573  0.2307  0.6019  1.2672
 4256SOL    HW114922   1.749   7.007   9.601 -0.0507 -0.7130 -0.5804
 4256SOL    HW214923   1.722   7.148   9.552  0.8766  0.5358  2.2715
 4257SOL     OW14924   2.483   5.801   4.145 -0.0314  0.6241  1.0080
 4257SOL    HW114925   2.403   5.851   4.129 -0.6849 -0.5649  0.3782
 4257SOL    HW214926   2.523   5.789   4.059  0.7254  1.0398  1.2958
 4258SOL     OW14927   3.705   7.878   6.679  0.2576 -0.3278  0.4448
 4258SOL    HW114928   3.717   7.837   6.764 -0.0824 -1.3573  0.0098
 4258SOL    HW214929   3.742   7.966   6.689  0.2939 -0.4659  1.6203
 4259SOL     OW14930   7.980   2.179   5.758 -0.6403 -0.2876  0.1726
 4259SOL    HW114931   7.957   2.271   5.747 -0.1194  0.0600  1.7778
 4259SOL    HW214932   8.003   2.149   5.670 -0.6593  1.1535 -0.3414
 4260SOL     OW14933   6.308   8.616   0.397  0.6054 -0.0508 -0.3211
 4260SOL    HW114934   6.340   8.526   0.406 -0.7329 -0.4665  0.6597
 4260SOL    HW214935   6.386   8.670   0.404  1.4370 -1.1398 -0.9407
 4261SOL     OW14936   8.930   6.991   7.384  0.1048 -0.2351 -0.1289
 4261SOL    HW114937   8.846   7.034   7.401 -0.1261 -0.8541  0.3749
 4261SOL    HW214938   8.960   6.964   7.471 -0.0169 -1.5293 -0.4619
 4262SOL     OW14939   4.115   8.133   3.020  0.2485  0.1752  0.0203
 4262SOL    HW114940   4.035   8.183   3.004  0.5354  0.5710 -0.1981
 4262SOL    HW214941   4.138   8.153   3.111  0.0940  0.0572  0.0842
 4263SOL     OW14942   8.103   5.173   8.465 -0.7254 -0.2979  0.3197
 4263SOL    HW114943   8.124   5.259   8.429  0.2774 -0.7122 -0.1146
 4263SOL    HW214944   8.099   5.115   8.389 -0.4423 -0.8217  0.6969
 4264SOL     OW14945   0.633   3.546   7.734  0.0772 -0.1516  0.1139
 4264SOL    HW114946   0.702   3.510   7.790  0.3008 -0.3171 -0.2620
 4264SOL    HW214947   0.556   3.492   7.751  0.6452 -1.3951 -1.1013
 4265SOL     OW14948   0.709   1.879   8.886  0.6023  0.2805  0.3055
 4265SOL    HW114949   0.667   1.794   8.898  2.3982 -0.7221 -0.2389
 4265SOL    HW214950   0.711   1.918   8.974 -1.7975  0.5762  0.2855
 4266SOL     OW14951   7.681   8.055   9.572 -0.0750  0.1829 -0.2089
 4266SOL    HW114952   7.710   7.983   9.629  0.5226  0.9087  0.4383
 4266SOL    HW214953   7.705   8.026   9.484 -0.3356 -0.6419 -0.0232
 4267SOL     OW14954   0.684   1.288   9.503 -0.2506  0.0230 -0.6749
 4267SOL    HW114955   0.746   1.215   9.505 -1.4911 -1.0772  0.9282
 4267SOL    HW214956   0.701   1.337   9.584  0.3270  1.3482 -1.5604
 4268SOL     OW14957   8.439   2.844   0.505 -0.0436 -0.6160  0.2430
 4268SOL    HW114958   8.450   2.762   0.458 -0.0585 -0.1542 -0.5756
 4268SOL    HW214959   8.499   2.837   0.579  0.5713 -1.0216 -0.2860
 4269SOL     OW14960   7.735   9.068   0.296 -0.1491  0.2817  0.0471
 4269SOL    HW114961   7.821   9.106   0.309  0.0292  0.0619 -0.4884
 4269SOL    HW214962   7.680   9.141   0.266 -0.0424  0.3199 -0.0529
 4270SOL     OW14963   8.910   5.852   2.251  0.3795 -0.1466  0.3245
 4270SOL    HW114964   8.998   5.832   2.284 -0.1833 -1.7476  0.9608
 4270SOL    HW214965   8.883   5.772   2.206 -0.0294  0.9918 -1.5580
 4271SOL     OW14966   9.579   1.257   3.361  0.3028 -0.4735  0.0602
 4271SOL    HW114967   9.588   1.350   3.341 -0.8467 -0.3789 -0.0792
 4271SOL    HW214968   9.667   1.222   3.351  0.1614 -0.1459 -3.7165
 4272SOL     OW14969   5.727   5.972   4.287 -0.5492  0.3467  0.3637
 4272SOL    HW114970   5.756   6.062   4.268  1.1494 -0.1761  0.3579
 4272SOL    HW214971   5.647   5.962   4.236  0.2997  1.2271 -1.2161
 4273SOL     OW14972   5.010   2.051   0.036 -0.4543  0.6393  0.3354
 4273SOL    HW114973   4.949   2.037   0.108 -0.5733  2.4842  0.6493
 4273SOL    HW214974   4.992   2.140   0.006  1.0835  0.7031 -0.5319
 4274SOL     OW14975   2.042   0.509   7.129  0.3248 -0.3657 -0.1164
 4274SOL    HW114976   2.134   0.512   7.153  0.6943 -0.6059 -1.4289
 4274SOL    HW214977   2.014   0.600   7.125  1.1086 -0.1614 -1.8411
 4275SOL     OW14978   8.949   7.134   3.165 -0.2733 -0.0529  0.2650
 4275SOL    HW114979   9.026   7.090   3.130 -1.0336 -3.3504  2.2968
 4275SOL    HW214980   8.875   7.095   3.118 -0.9150  0.3120  0.9421
 4276SOL     OW14981   8.043   2.286   9.365 -0.2977  0.3628  0.2080
 4276SOL    HW114982   8.049   2.379   9.387 -0.2261  1.1364 -2.6665
 4276SOL    HW214983   8.021   2.285   9.272 -1.9595 -2.5280  0.5204
 4277SOL     OW14984   8.230   5.654   0.862 -0.4137 -0.2900 -0.1304
 4277SOL    HW114985   8.196   5.632   0.775  0.0465  0.6319 -0.5456
 4277SOL    HW214986   8.306   5.597   0.873  0.1888  0.3673 -0.7976
 4278SOL     OW14987   2.032   0.106   7.639 -0.1616  0.6464  0.7116
 4278SOL    HW114988   2.079   0.181   7.675  1.2188 -0.2051  0.7275
 4278SOL    HW214989   2.069   0.030   7.683 -0.9073 -0.1343  0.0394
 4279SOL     OW14990   3.769   5.473   5.822 -0.2635 -0.1402  0.9692
 4279SOL    HW114991   3.841   5.501   5.878  0.7042  1.6279 -0.9996
 4279SOL    HW214992   3.800   5.393   5.780 -0.1685 -0.3440  1.4298
 4280SOL     OW14993   5.840   4.402   0.073 -0.8049  0.4935  0.2877
 4280SOL    HW114994   5.882   4.446  -0.001  0.4742 -2.4008 -0.8613
 4280SOL    HW214995   5.911   4.356   0.117 -2.3023 -2.9789 -0.5451
 4281SOL     OW14996   3.747   6.971   8.008  0.1699 -0.7805  0.3944
 4281SOL    HW114997   3.767   7.062   8.031 -1.4423 -0.0869 -0.7296
 4281SOL    HW214998   3.832   6.928   8.005  1.0601  0.8965  0.1497
 4282SOL     OW14999   1.893   5.131   1.123 -0.1689  0.2316  0.3889
 4282SOL    HW115000   1.841   5.103   1.047  0.9996  2.1927 -1.2646
 4282SOL    HW215001   1.894   5.227   1.116  3.2212  0.3269  0.5466
 4283SOL     OW15002   3.962   8.465   8.357  0.2191  0.0627  0.3760
 4283SOL    HW115003   3.919   8.401   8.414  0.8916 -0.6756  0.0671
 4283SOL    HW215004   3.942   8.435   8.269 -1.7280  1.7881  0.1410
 4284SOL     OW15005   6.141   3.766   7.650 -0.0532  0.0337 -0.6598
 4284SOL    HW115006   6.186   3.781   7.567  0.6471 -0.6833 -0.4235
 4284SOL    HW215007   6.061   3.720   7.626  0.1225 -0.1236 -0.9452
 4285SOL     OW15008   6.243   6.353   4.708 -0.0714  0.4961 -0.1350
 4285SOL    HW115009   6.277   6.288   4.770  0.0416  0.2346 -0.4688
 4285SOL    HW215010   6.218   6.427   4.763  0.4099  0.4281  0.1858
 4286SOL     OW15011   4.523   1.252   5.816  0.0111  0.1482 -0.0143
 4286SOL    HW115012   4.462   1.314   5.775  0.6022 -0.4471 -1.8885
 4286SOL    HW215013   4.578   1.307   5.872 -0.6003  1.0692 -0.2852
 4287SOL     OW15014   1.852   2.685   2.925 -0.6261 -0.0510 -0.0966
 4287SOL    HW115015   1.802   2.621   2.874 -0.0952 -1.0238  0.5821
 4287SOL    HW215016   1.938   2.687   2.883 -0.5001 -0.1209  0.1599
 4288SOL     OW15017   7.700   4.677   8.594  0.7155 -0.0091  0.2128
 4288SOL    HW115018   7.749   4.700   8.673  2.3325  0.0843 -0.7699
 4288SOL    HW215019   7.763   4.626   8.542  0.8091  2.5583 -2.4093
 4289SOL     OW15020   3.021   7.477   9.127 -0.0894 -0.3389 -1.0519
 4289SOL    HW115021   2.955   7.429   9.077 -1.0287  0.2521 -0.4045
 4289SOL    HW215022   3.098   7.420   9.125 -1.5085 -2.5045  0.7261
 4290SOL     OW15023   6.464   6.105   7.929  0.4492 -0.1270  0.2058
 4290SOL    HW115024   6.541   6.049   7.919  0.2710 -0.3068 -0.1615
 4290SOL    HW215025   6.391   6.044   7.939  0.1902  0.0263 -0.6670
 4291SOL     OW15026   8.466   8.215   5.298 -0.7235  0.0501 -0.1490
 4291SOL    HW115027   8.404   8.274   5.341 -0.0582 -0.1726  1.1604
 4291SOL    HW215028   8.455   8.132   5.345  3.1053  0.8915  2.7686
 4292SOL     OW15029   3.035   3.822   6.600 -0.2159  0.1261  0.3617
 4292SOL    HW115030   2.947   3.837   6.567 -0.3844  0.2697  0.8709
 4292SOL    HW215031   3.068   3.909   6.622 -0.3030 -0.0122  1.0624
 4293SOL     OW15032   3.385   0.803   4.400  0.0944  0.1704  0.6704
 4293SOL    HW115033   3.310   0.755   4.365 -1.0573  0.9840  1.9150
 4293SOL    HW215034   3.459   0.776   4.345 -1.1630 -0.3731 -0.8347
 4294SOL     OW15035   2.464   5.251   9.187 -0.1858 -0.0561  0.2414
 4294SOL    HW115036   2.559   5.240   9.186 -0.0663  0.5110  2.3063
 4294SOL    HW215037   2.450   5.344   9.172 -0.3881 -0.0344  0.5655
 4295SOL     OW15038   3.666   8.676   2.089  0.0749 -0.2125 -0.1731
 4295SOL    HW115039   3.611   8.692   2.166 -1.4072 -0.8132 -1.0524
 4295SOL    HW215040   3.604   8.671   2.017  1.4401  0.3867 -1.4327
 4296SOL     OW15041   5.710   5.994   6.298 -0.4099 -0.2917  0.1712
 4296SOL    HW115042   5.649   6.051   6.250  0.6457 -1.3305 -2.6084
 4296SOL    HW215043   5.653   5.945   6.358 -2.3843 -0.9910 -2.0742
 4297SOL     OW15044   6.269   6.481   0.983 -0.2668 -0.2621  0.1884
 4297SOL    HW115045   6.286   6.558   0.929 -1.5904 -0.2826 -0.2906
 4297SOL    HW215046   6.355   6.438   0.990  0.6050  1.4908  0.8829
 4298SOL     OW15047   0.929   7.508   0.083  0.4353 -0.0248 -0.3144
 4298SOL    HW115048   1.013   7.547   0.105 -0.1043  1.0666 -0.1298
 4298SOL    HW215049   0.876   7.581   0.050 -0.5186 -0.6373 -0.1900
 4299SOL     OW15050   0.233   8.279   4.495  0.1590 -0.3377  0.2984
 4299SOL    HW115051   0.277   8.221   4.558 -0.2574 -1.3790 -0.3421
 4299SOL    HW215052   0.188   8.219   4.435  0.1603  0.6448 -0.7111
 4300SOL     OW15053   6.848   9.006   6.069 -0.2124 -0.3536 -0.1948
 4300SOL    HW115054   6.770   8.987   6.016 -0.6708 -0.1778  0.4031
 4300SOL    HW215055   6.914   9.032   6.005 -1.3861  2.0463 -0.5403
 4301SOL     OW15056   1.842   0.843   4.471  0.1886  0.1136  0.2651
 4301SOL    HW115057   1.792   0.823   4.392  0.6628  0.2417 -0.0682
 4301SOL    HW215058   1.920   0.789   4.464  0.4256  0.4318  0.4448
 4302SOL     OW15059   3.866   0.151   3.440 -0.1544  0.1085  0.2783
 4302SOL    HW115060   3.901   0.190   3.520  0.1022 -1.6669  1.0705
 4302SOL    HW215061   3.936   0.160   3.376 -0.7324  2.4802 -0.1298
 4303SOL     OW15062   1.422   5.210   4.168  0.0106  0.2054 -0.2401
 4303SOL    HW115063   1.403   5.174   4.255 -1.8704  0.1870 -0.5977
 4303SOL    HW215064   1.501   5.164   4.140 -0.9335 -1.9041  0.3207
 4304SOL     OW15065   0.890   2.918   9.352  0.2247  0.0960  0.8045
 4304SOL    HW115066   0.823   2.971   9.310 -1.8147 -1.6233  1.6875
 4304SOL    HW215067   0.969   2.932   9.299 -1.1028  1.3207 -0.9597
 4305SOL     OW15068   7.552   3.699   5.428 -0.4549 -0.1892 -0.5035
 4305SOL    HW115069   7.556   3.752   5.507  0.6653 -0.2454 -0.5090
 4305SOL    HW215070   7.643   3.688   5.402 -0.8235  1.1918 -2.7016
 4306SOL     OW15071   8.150   3.934   9.304 -0.2187  0.3360  0.3619
 4306SOL    HW115072   8.059   3.911   9.325 -0.7237  1.4245 -0.5463
 4306SOL    HW215073   8.198   3.852   9.314 -1.7057 -0.8351 -1.4458
 4307SOL     OW15074   9.130   7.815   6.399 -0.2158 -0.3748  0.4372
 4307SOL    HW115075   9.211   7.787   6.357 -0.7412 -0.9391 -0.2149
 4307SOL    HW215076   9.130   7.770   6.483 -0.2928 -1.1242  0.0492
 4308SOL     OW15077   4.388   1.804   3.105  0.0833  0.2329 -0.1385
 4308SOL    HW115078   4.431   1.869   3.049 -0.7861  0.7575 -0.2074
 4308SOL    HW215079   4.315   1.851   3.145 -0.6046 -0.7186 -0.2462
 4309SOL     OW15080   9.319   1.951   4.781  0.1635  0.0279 -0.0068
 4309SOL    HW115081   9.384   1.961   4.850 -1.6815  1.0842  1.6903
 4309SOL    HW215082   9.258   1.886   4.816  0.6658 -1.5194 -1.8843
 4310SOL     OW15083   7.308   9.020   1.981 -0.4314  0.6076  0.1523
 4310SOL    HW115084   7.228   8.996   1.933 -0.3078 -0.8834  0.6520
 4310SOL    HW215085   7.276   9.055   2.063 -0.5889  0.2321  0.2544
 4311SOL     OW15086   3.033   8.779   8.170 -0.1601 -0.2933  0.2372
 4311SOL    HW115087   2.964   8.817   8.115  0.3500  1.5987  0.8259
 4311SOL    HW215088   2.993   8.701   8.209 -1.5612  0.0894 -0.3902
 4312SOL     OW15089   2.754   9.192   5.800  0.2541 -0.4444 -0.0762
 4312SOL    HW115090   2.705   9.110   5.810  0.3414 -0.3393  1.5763
 4312SOL    HW215091   2.697   9.259   5.838  0.1453  0.3007 -1.4880
 4313SOL     OW15092   9.167   5.847   0.915 -0.3852  0.5069  0.0203
 4313SOL    HW115093   9.135   5.775   0.969  0.2731  0.0405 -0.1954
 4313SOL    HW215094   9.168   5.811   0.826 -0.2332  0.8513 -0.1184
 4314SOL     OW15095   2.531   5.418   1.809 -0.3407  0.2267 -0.1683
 4314SOL    HW115096   2.474   5.427   1.885  1.7380 -2.6092  1.9434
 4314SOL    HW215097   2.480   5.366   1.747 -1.5489  1.3979 -0.1987
 4315SOL     OW15098   2.242   6.303   1.987 -0.0190 -0.4510 -0.0114
 4315SOL    HW115099   2.216   6.395   1.976 -0.6913 -0.7051 -0.5802
 4315SOL    HW215100   2.264   6.296   2.080  1.0392  0.5321 -0.1532
 4316SOL     OW15101   3.749   5.565   0.597  0.1095  0.0641  0.4576
 4316SOL    HW115102   3.662   5.571   0.636  0.6374  0.1300  1.6665
 4316SOL    HW215103   3.806   5.535   0.668  1.4908  2.1988  0.3673
 4317SOL     OW15104   0.718   2.693   8.920 -0.1361  0.4025  0.2331
 4317SOL    HW115105   0.791   2.714   8.979  0.2367  1.1794 -0.4803
 4317SOL    HW215106   0.645   2.747   8.952 -0.9064 -1.5141  1.9041
 4318SOL     OW15107   9.420   3.238   3.387 -0.1209 -0.4747  0.0762
 4318SOL    HW115108   9.411   3.320   3.340 -0.4675 -1.2800 -1.3154
 4318SOL    HW215109   9.459   3.262   3.471  0.6576  0.9795 -0.6705
 4319SOL     OW15110   2.789   1.341   4.238  0.5449 -0.1421 -0.2337
 4319SOL    HW115111   2.808   1.382   4.322 -0.1454 -1.3168  0.5390
 4319SOL    HW215112   2.728   1.401   4.195  0.4389  0.1927  0.3708
 4320SOL     OW15113   5.240   6.356   9.290  0.1774 -0.5257 -0.4799
 4320SOL    HW115114   5.183   6.283   9.316  0.1359 -0.3076  0.0622
 4320SOL    HW215115   5.323   6.315   9.266  0.0543 -0.7780 -0.4759
 4321SOL     OW15116   2.509   3.981   7.873  0.9183  0.7321 -0.1311
 4321SOL    HW115117   2.548   3.926   7.941  1.5602  0.0228 -1.0488
 4321SOL    HW215118   2.420   3.998   7.905  0.7923 -0.6034  0.3274
 4322SOL     OW15119   2.509   7.887   5.177 -0.4767 -0.1408 -0.0466
 4322SOL    HW115120   2.418   7.907   5.201 -0.2225  1.1381 -0.0870
 4322SOL    HW215121   2.542   7.835   5.250 -1.7439 -2.1569 -0.8312
 4323SOL     OW15122   2.436   2.163   3.650 -0.3489  0.1438  0.1604
 4323SOL    HW115123   2.518   2.113   3.646 -0.3445  0.1424  0.2759
 4323SOL    HW215124   2.403   2.147   3.738 -0.8276 -0.4206 -0.1153
 4324SOL     OW15125   1.791   2.818   3.173  0.2503  0.2077  0.1348
 4324SOL    HW115126   1.805   2.912   3.167 -0.1970  0.2331 -0.5710
 4324SOL    HW215127   1.732   2.797   3.101 -1.3872 -0.2728  1.5308
 4325SOL     OW15128   7.427   2.422   0.981  0.0054 -0.5576  0.2128
 4325SOL    HW115129   7.391   2.510   0.977  0.5323 -0.3660 -2.0693
 4325SOL    HW215130   7.425   2.398   1.073  1.2660  2.4429  1.1183
 4326SOL     OW15131   2.337   5.096   1.283  0.3414 -0.6130  0.3330
 4326SOL    HW115132   2.312   5.088   1.192 -1.0031 -0.8527  0.7040
 4326SOL    HW215133   2.261   5.133   1.327  1.1029 -0.1211  1.2967
 4327SOL     OW15134   4.317   9.285   4.428 -0.1714 -0.7377  0.8372
 4327SOL    HW115135   4.273   9.294   4.343 -0.7718  0.3811  1.2463
 4327SOL    HW215136   4.247   9.263   4.489  0.3489 -2.1418  0.9652
 4328SOL     OW15137   6.686   9.017   6.683 -0.4332 -0.0423 -0.1033
 4328SOL    HW115138   6.615   8.953   6.682 -0.3181 -0.1676 -1.1985
 4328SOL    HW215139   6.764   8.967   6.659  0.1294  0.0049  1.4933
 4329SOL     OW15140   8.117   0.766   8.355  0.0330  0.3097 -0.2200
 4329SOL    HW115141   8.140   0.702   8.287  1.0661  0.3741  0.0505
 4329SOL    HW215142   8.101   0.714   8.433 -1.4702  0.2095 -0.5653
 4330SOL     OW15143   7.264   8.399   5.041 -0.0772 -0.1416 -0.1248
 4330SOL    HW115144   7.352   8.386   5.006 -0.2177 -1.9836  0.1213
 4330SOL    HW215145   7.269   8.363   5.130 -0.5815  1.5143  0.6127
 4331SOL     OW15146   0.151   5.083   0.410  0.1592  0.1779  0.2146
 4331SOL    HW115147   0.065   5.125   0.410  0.0788  0.0824 -1.4934
 4331SOL    HW215148   0.212   5.153   0.434 -0.2703  0.5464  0.2404
 4332SOL     OW15149   7.811   8.910   6.339  0.7566  0.3135 -0.0039
 4332SOL    HW115150   7.843   8.953   6.418 -0.2858 -1.4604  1.4879
 4332SOL    HW215151   7.776   8.980   6.285 -0.6743  1.4074  2.1950
 4333SOL     OW15152   0.635   8.075   0.248  0.3225 -0.1360  0.6253
 4333SOL    HW115153   0.714   8.037   0.287 -0.1590 -1.6360  0.1966
 4333SOL    HW215154   0.593   8.002   0.202 -0.6980  0.9043 -0.1559
 4334SOL     OW15155   0.914   0.691   4.094  0.0246  0.0916  0.7164
 4334SOL    HW115156   1.001   0.682   4.054 -0.6730 -0.3672 -0.7794
 4334SOL    HW215157   0.893   0.603   4.126 -1.3967 -0.7949 -2.3015
 4335SOL     OW15158   7.627   5.417   8.462 -0.0447 -0.1618  0.5569
 4335SOL    HW115159   7.565   5.470   8.412  0.4334  0.3473  0.5010
 4335SOL    HW215160   7.616   5.329   8.427 -1.4591 -0.2824  1.2392
 4336SOL     OW15161   2.976   1.296   8.670  0.3482 -0.2623 -0.1213
 4336SOL    HW115162   2.928   1.371   8.705  0.3421 -0.7365  0.9390
 4336SOL    HW215163   2.931   1.274   8.588 -0.1070  0.4272 -0.0601
 4337SOL     OW15164   0.972   1.127   9.218  0.0554 -0.4628 -0.1243
 4337SOL    HW115165   0.948   1.213   9.252 -0.9820 -0.8726  0.2219
 4337SOL    HW215166   1.058   1.139   9.180  0.6877  0.3483  1.4564
 4338SOL     OW15167   5.230   4.110   3.551  0.3069 -0.5519  0.5740
 4338SOL    HW115168   5.238   4.078   3.641 -1.6606 -0.7100  0.7411
 4338SOL    HW215169   5.288   4.185   3.546  2.0283 -1.7731  1.3397
 4339SOL     OW15170   6.760   0.330   6.671  0.0533  0.8687 -0.3912
 4339SOL    HW115171   6.776   0.308   6.763  0.3427  1.5809 -0.2620
 4339SOL    HW215172   6.781   0.249   6.623 -1.3210  0.0935  0.2632
 4340SOL     OW15173   1.007   3.553   9.507 -0.5485  0.2950  0.0676
 4340SOL    HW115174   1.043   3.519   9.425 -0.0569  0.7619  0.0792
 4340SOL    HW215175   1.062   3.515   9.575  0.5399  1.7019  0.0383
 4341SOL     OW15176   5.047   8.327   0.622 -0.4627 -0.5532 -0.2675
 4341SOL    HW115177   4.964   8.303   0.580 -0.8026 -1.1734  0.7023
 4341SOL    HW215178   5.024   8.399   0.680 -0.1791 -0.2811 -0.4906
 4342SOL     OW15179   4.676   2.653   1.628 -0.4044  0.1781  0.1245
 4342SOL    HW115180   4.584   2.630   1.638 -0.7963  1.9248  0.9456
 4342SOL    HW215181   4.717   2.631   1.712 -0.6415  1.7126  0.6730
 4343SOL     OW15182   4.286   8.573   8.838 -0.6213  0.4660 -0.4485
 4343SOL    HW115183   4.289   8.606   8.928 -1.2349 -1.9808  0.5573
 4343SOL    HW215184   4.289   8.652   8.783 -0.5419  2.0489  1.7042
 4344SOL     OW15185   8.456   3.477   9.487 -0.1860 -0.0605  0.1022
 4344SOL    HW115186   8.413   3.562   9.478  0.1090  0.1743  0.8699
 4344SOL    HW215187   8.444   3.453   9.579 -1.5237 -1.5332 -0.3994
 4345SOL     OW15188   6.034   6.563   1.329 -0.1544 -0.3725 -0.0618
 4345SOL    HW115189   6.022   6.584   1.236 -2.4227  0.4167  0.3348
 4345SOL    HW215190   5.975   6.489   1.344 -0.6116  0.1885  0.9668
 4346SOL     OW15191   2.008   6.874   6.273 -0.5038 -0.2816 -0.4297
 4346SOL    HW115192   2.083   6.849   6.327 -2.6122 -2.7773  1.6543
 4346SOL    HW215193   2.036   6.952   6.226  2.9070 -0.3610  1.2187
 4347SOL     OW15194   6.216   9.484   8.803  0.6895 -0.2496  0.0288
 4347SOL    HW115195   6.142   9.497   8.744  0.8891 -0.1956 -0.2065
 4347SOL    HW215196   6.254   9.571   8.814 -0.5677  0.1383  1.8440
 4348SOL     OW15197   5.724   6.694   3.007  0.6734 -0.2150  0.2478
 4348SOL    HW115198   5.819   6.697   2.996  0.6570 -1.1878 -0.3036
 4348SOL    HW215199   5.690   6.685   2.917  0.1356 -1.2280  0.5404
 4349SOL     OW15200   3.425   1.007   9.368 -0.5806 -0.3940  0.2915
 4349SOL    HW115201   3.506   1.019   9.318 -0.0108 -1.5843  0.8882
 4349SOL    HW215202   3.426   1.077   9.433  0.0565 -0.5149  0.4129
 4350SOL     OW15203   4.519   3.637   6.060 -0.5738  0.0347  0.3408
 4350SOL    HW115204   4.511   3.675   5.973 -1.4763  0.2886  0.5273
 4350SOL    HW215205   4.578   3.562   6.048 -0.7129  0.0480 -0.4886
 4351SOL     OW15206   8.404   5.996   0.709 -0.7069 -0.1167  0.1285
 4351SOL    HW115207   8.423   6.078   0.662  2.3300 -1.4370 -1.1990
 4351SOL    HW215208   8.461   5.998   0.785 -2.3981  0.0112  1.4524
 4352SOL     OW15209   2.226   9.424   6.973  0.2464 -0.6004  0.0813
 4352SOL    HW115210   2.197   9.476   7.047 -0.5663  0.5078 -0.9758
 4352SOL    HW215211   2.319   9.407   6.990  0.1190 -0.2322  1.2452
 4353SOL     OW15212   1.588   0.232   1.511  0.2090 -0.2938  0.0894
 4353SOL    HW115213   1.570   0.204   1.600  0.5399 -0.2639  0.1683
 4353SOL    HW215214   1.680   0.208   1.497 -0.4816 -2.6098 -1.0998
 4354SOL     OW15215   6.937   4.675   9.368  0.0306  0.4884  0.1407
 4354SOL    HW115216   6.945   4.766   9.396  2.2506  0.6719 -0.8596
 4354SOL    HW215217   6.854   4.671   9.322 -0.0791  2.0261  0.1571
 4355SOL     OW15218   3.256   0.631   4.693  0.4523  0.3301  0.5632
 4355SOL    HW115219   3.349   0.648   4.681  0.4663  0.1024  0.3543
 4355SOL    HW215220   3.247   0.537   4.683  0.3115  0.2530  1.3241
 4356SOL     OW15221   7.132   2.308   6.426 -0.2809  0.4020  1.0564
 4356SOL    HW115222   7.175   2.378   6.376  1.3208  0.9287  3.0340
 4356SOL    HW215223   7.041   2.336   6.433 -0.4618  0.5361 -1.0854
 4357SOL     OW15224   1.320   5.741   6.093  0.3043  0.3141  0.6839
 4357SOL    HW115225   1.323   5.645   6.091 -0.0907  0.2772  1.3442
 4357SOL    HW215226   1.236   5.761   6.137 -1.4905  0.9844 -2.7191
 4358SOL     OW15227   3.364   1.403   1.194  0.2245  0.0314 -0.7376
 4358SOL    HW115228   3.426   1.331   1.205 -1.2225 -0.9983  1.3108
 4358SOL    HW215229   3.312   1.379   1.118 -0.2984 -1.1849 -0.0212
 4359SOL     OW15230   1.420   4.079   1.545 -0.0606 -0.3393 -0.2253
 4359SOL    HW115231   1.368   4.003   1.518  0.6523 -1.0466  0.3683
 4359SOL    HW215232   1.470   4.103   1.466 -0.3783 -0.4040 -0.4492
 4360SOL     OW15233   3.923   0.861   2.669 -0.0131 -0.2796  0.4904
 4360SOL    HW115234   3.913   0.902   2.583  1.7976 -0.7698 -0.0042
 4360SOL    HW215235   3.955   0.932   2.725 -1.2731  0.0605  0.8097
 4361SOL     OW15236   0.139   7.407   2.649 -0.9390  0.6598  0.2876
 4361SOL    HW115237   0.086   7.342   2.693 -0.1854  0.7110  1.3010
 4361SOL    HW215238   0.076   7.468   2.611 -1.6102  0.1630  0.5939
 4362SOL     OW15239   6.295   1.310   3.965 -0.2304  0.0767  0.2571
 4362SOL    HW115240   6.321   1.380   4.025 -2.2001 -0.1005  1.4263
 4362SOL    HW215241   6.271   1.237   4.023 -0.9712 -0.5431 -0.8051
 4363SOL     OW15242   6.347   5.382   1.649  0.1540  0.5973 -0.1914
 4363SOL    HW115243   6.256   5.387   1.621 -0.2734  0.0680  1.0443
 4363SOL    HW215244   6.387   5.463   1.617 -0.9776  1.2665  0.0549
 4364SOL     OW15245   5.322   1.921   2.163 -0.2713  0.0276  0.1635
 4364SOL    HW115246   5.412   1.947   2.142 -0.8871  0.0665 -2.7979
 4364SOL    HW215247   5.331   1.831   2.195  1.1105  1.2059  3.6170
 4365SOL     OW15248   3.154   8.905   6.748 -0.0634 -0.4570 -0.3451
 4365SOL    HW115249   3.149   8.954   6.666  0.1356 -0.9577 -0.6673
 4365SOL    HW215250   3.114   8.820   6.727  0.2026 -0.6720  0.0144
 4366SOL     OW15251   4.356   1.708   2.187 -0.6577  0.0792 -0.4865
 4366SOL    HW115252   4.411   1.677   2.115 -0.1894 -0.7702  0.2164
 4366SOL    HW215253   4.272   1.663   2.173 -0.9061  0.6998 -1.0616
 4367SOL     OW15254   5.398   3.289   5.590 -0.6961  0.1130 -0.3238
 4367SOL    HW115255   5.306   3.300   5.611  0.1004  0.8903  3.5426
 4367SOL    HW215256   5.428   3.218   5.647  1.1823  0.2555 -1.0440
 4368SOL     OW15257   6.953   0.983   3.840  0.6521 -0.1416 -0.3653
 4368SOL    HW115258   6.898   0.983   3.762  0.4896 -1.1432 -0.2606
 4368SOL    HW215259   6.896   0.953   3.910  0.4521  1.9091  0.4205
 4369SOL     OW15260   6.886   6.828   2.284  0.2826  0.1773 -0.5420
 4369SOL    HW115261   6.981   6.844   2.283  0.4961 -0.9867 -2.1067
 4369SOL    HW215262   6.877   6.741   2.322  0.0242 -0.5703 -2.2405
 4370SOL     OW15263   9.396   9.473   6.901  0.1454 -0.1705  0.4353
 4370SOL    HW115264   9.312   9.484   6.856  0.4501  0.7994  0.0845
 4370SOL    HW215265   9.462   9.497   6.836  0.5396  3.0929  1.8472
 4371SOL     OW15266   8.765   3.803   6.284  0.3359  0.3333 -0.3676
 4371SOL    HW115267   8.732   3.885   6.246 -0.3086  0.7691  1.0600
 4371SOL    HW215268   8.860   3.811   6.280  0.2896  1.5556  0.5440
 4372SOL     OW15269   8.431   6.780   1.937  0.3478  0.2311  0.1296
 4372SOL    HW115270   8.467   6.731   2.011  0.9738 -1.5743 -1.2951
 4372SOL    HW215271   8.379   6.716   1.889 -0.4803  1.4966 -0.7259
 4373SOL     OW15272   2.284   1.853   5.273  0.0185 -0.2935  0.5295
 4373SOL    HW115273   2.208   1.911   5.286 -2.2373 -2.9997  0.3243
 4373SOL    HW215274   2.286   1.837   5.179  0.8975 -0.2485  0.5328
 4374SOL     OW15275   3.393   0.878   0.308 -0.6096  0.3012  0.4222
 4374SOL    HW115276   3.319   0.835   0.266  0.5277 -1.1205 -0.1959
 4374SOL    HW215277   3.417   0.820   0.380  0.2062  0.4956  0.3176
 4375SOL     OW15278   4.483   5.590   5.553 -0.1296  0.9590  0.1167
 4375SOL    HW115279   4.504   5.604   5.646 -1.9716 -0.1589  0.7551
 4375SOL    HW215280   4.469   5.678   5.519  1.3361  1.4403  0.6718
 4376SOL     OW15281   3.647   3.222   4.264 -0.0762  0.0978 -0.2801
 4376SOL    HW115282   3.657   3.132   4.296  0.2679 -0.3030 -1.4623
 4376SOL    HW215283   3.689   3.275   4.332  2.0995 -0.8611 -0.7790
 4377SOL     OW15284   8.484   3.733   3.533  0.2857 -0.3113 -0.4074
 4377SOL    HW115285   8.439   3.695   3.458  0.5303  0.6061 -1.0449
 4377SOL    HW215286   8.415   3.776   3.584  0.3250  0.4793 -1.0014
 4378SOL     OW15287   6.276   0.195   0.339 -0.5111 -0.4296 -0.1202
 4378SOL    HW115288   6.306   0.174   0.251 -1.8431  0.0659 -0.7216
 4378SOL    HW215289   6.353   0.232   0.383  0.2828 -1.1037 -0.9151
 4379SOL     OW15290   7.067   0.847   7.327  0.8630 -0.1911 -0.0697
 4379SOL    HW115291   6.991   0.791   7.340 -1.0027  1.7733 -1.7986
 4379SOL    HW215292   7.101   0.862   7.416 -1.3427 -0.3407  0.8561
 4380SOL     OW15293   2.269   1.962   6.146 -0.0302 -0.4808 -0.4235
 4380SOL    HW115294   2.296   1.921   6.064  1.7787 -0.2915  0.0321
 4380SOL    HW215295   2.264   2.056   6.125  0.1151 -0.4665 -0.3938
 4381SOL     OW15296   3.295   3.672   7.686  0.5634 -0.1867  0.0482
 4381SOL    HW115297   3.388   3.696   7.689  0.7414 -0.9421  0.8448
 4381SOL    HW215298   3.289   3.591   7.737 -0.4973 -0.2667 -0.1828
 4382SOL     OW15299   4.538   1.885   4.853 -0.1150 -0.1452  0.3535
 4382SOL    HW115300   4.550   1.821   4.783  2.0015  0.0454  0.4742
 4382SOL    HW215301   4.612   1.870   4.912 -0.4484  1.3693  1.2045
 4383SOL     OW15302   6.363   7.675   1.611 -0.1100 -0.2926 -0.4549
 4383SOL    HW115303   6.330   7.759   1.642  3.0253  1.6203 -1.7466
 4383SOL    HW215304   6.313   7.656   1.532 -1.1585  0.0911  0.1026
 4384SOL     OW15305   2.833   4.471   8.518 -0.1825 -0.7521  0.0794
 4384SOL    HW115306   2.762   4.427   8.471 -0.3190  1.1392 -1.6739
 4384SOL    HW215307   2.912   4.443   8.472 -0.3373  1.3073 -1.6350
 4385SOL     OW15308   5.413   8.365   6.930 -0.4744  0.2749  0.2835
 4385SOL    HW115309   5.323   8.392   6.911 -0.0273  1.6885  0.0595
 4385SOL    HW215310   5.434   8.408   7.013  0.0333  0.0726  0.2646
 4386SOL     OW15311   8.671   2.417   7.011 -0.3607  0.5993 -0.3911
 4386SOL    HW115312   8.746   2.470   6.985 -0.8134  0.4390 -2.1291
 4386SOL    HW215313   8.631   2.466   7.083  0.7708  1.2249 -0.1626
 4387SOL     OW15314   2.934   3.195   1.953 -0.1255 -0.0140 -0.5419
 4387SOL    HW115315   2.872   3.143   2.005 -0.8076  0.3382 -0.9851
 4387SOL    HW215316   2.883   3.272   1.926  0.7447  0.6785 -0.2507
 4388SOL     OW15317   0.242   3.522   0.456 -0.4639  0.5446  0.4760
 4388SOL    HW115318   0.318   3.470   0.429 -2.3754 -0.9429 -2.4465
 4388SOL    HW215319   0.217   3.485   0.541 -0.4099 -1.8476 -0.4822
 4389SOL     OW15320   8.822   2.445   8.990  0.2134 -0.0772 -0.4375
 4389SOL    HW115321   8.810   2.380   8.921 -0.8657 -0.1534 -0.1974
 4389SOL    HW215322   8.779   2.524   8.957  0.4370  0.1404 -0.2106
 4390SOL     OW15323   6.640   1.750   7.471 -0.3489 -0.7183 -0.3489
 4390SOL    HW115324   6.728   1.758   7.436 -0.2633 -2.1593 -0.5093
 4390SOL    HW215325   6.651   1.744   7.565 -0.1701 -1.9308 -0.4298
 4391SOL     OW15326   9.508   6.678   2.076  0.2209  0.3284  0.1844
 4391SOL    HW115327   9.575   6.723   2.128  0.4680  0.0149  0.1437
 4391SOL    HW215328   9.500   6.730   1.997  0.9986 -0.0644 -0.1676
 4392SOL     OW15329   8.346   0.130   3.968  0.4223  0.6296  0.2882
 4392SOL    HW115330   8.392   0.128   3.885 -0.7057 -1.1154 -0.3564
 4392SOL    HW215331   8.377   0.210   4.011  0.4590  2.0139 -2.1285
 4393SOL     OW15332   3.901   7.141   7.154 -0.1015 -0.4873 -0.4012
 4393SOL    HW115333   3.886   7.047   7.139  1.9623 -0.6019 -2.0584
 4393SOL    HW215334   3.977   7.144   7.212  0.7602  0.1401 -1.5257
 4394SOL     OW15335   1.764   6.517   7.755  0.1074  0.1430 -0.3156
 4394SOL    HW115336   1.807   6.598   7.729  0.3359  0.0709 -0.1635
 4394SOL    HW215337   1.705   6.542   7.827  0.4021  0.1223 -0.0647
 4395SOL     OW15338   0.612   8.328   8.031  0.2574 -0.2755  0.0021
 4395SOL    HW115339   0.629   8.306   8.122 -0.2259 -1.8209 -0.2513
 4395SOL    HW215340   0.529   8.376   8.032  0.6636  0.4392  0.4353
 4396SOL     OW15341   2.722   0.072   5.609  0.4291  0.0995 -0.0291
 4396SOL    HW115342   2.734   0.055   5.703  0.9199  0.9336  0.0686
 4396SOL    HW215343   2.757  -0.007   5.566  1.0303  0.0845  0.4632
 4397SOL     OW15344   1.987   0.830   8.718 -0.3284  0.3220 -0.3809
 4397SOL    HW115345   2.055   0.897   8.708  0.2424 -0.2530 -0.4167
 4397SOL    HW215346   2.005   0.767   8.649 -0.2847 -0.3592  0.2420
 4398SOL     OW15347   2.871   3.653   8.577 -0.6087  0.1752  0.0911
 4398SOL    HW115348   2.946   3.646   8.518 -1.0321  0.4703 -0.4885
 4398SOL    HW215349   2.901   3.711   8.647  1.0349 -2.7255  1.9899
 4399SOL     OW15350   8.185   5.788   8.167 -0.1316 -0.1325  0.3963
 4399SOL    HW115351   8.126   5.829   8.104  1.0999 -0.0039 -0.7466
 4399SOL    HW215352   8.229   5.719   8.116 -0.6860 -1.5167  1.7312
 4400SOL     OW15353   4.258   6.085   5.840  0.1779 -0.1041  0.0271
 4400SOL    HW115354   4.213   6.001   5.826  0.9395 -0.1035 -3.2293
 4400SOL    HW215355   4.312   6.070   5.918 -1.4899 -1.8122  0.9495
 4401SOL     OW15356   1.171   3.638   7.380  0.5725 -0.2169 -0.2854
 4401SOL    HW115357   1.177   3.605   7.290  1.1242 -2.7327  0.6073
 4401SOL    HW215358   1.086   3.681   7.384 -0.7138 -2.5064 -1.2751
 4402SOL     OW15359   8.110   7.218   3.247  0.4405  0.3414  0.1676
 4402SOL    HW115360   8.095   7.215   3.341 -0.0766 -1.7242  0.0756
 4402SOL    HW215361   8.076   7.303   3.220  0.9852  1.1495  1.8758
 4403SOL     OW15362   5.303   5.921   5.749 -0.2605  0.6240  0.0577
 4403SOL    HW115363   5.362   5.949   5.679 -1.5782 -0.9403 -1.7780
 4403SOL    HW215364   5.359   5.874   5.810  0.4679 -1.0047 -1.7343
 4404SOL     OW15365   5.562   3.475   6.736 -0.0971 -0.0318  0.1992
 4404SOL    HW115366   5.520   3.396   6.702 -0.1527  0.8699 -2.0133
 4404SOL    HW215367   5.512   3.547   6.697  1.0499  1.0952  0.7317
 4405SOL     OW15368   2.876   0.704   3.675  0.7922 -0.3847 -0.3233
 4405SOL    HW115369   2.970   0.691   3.662  0.9810 -2.7158  2.4553
 4405SOL    HW215370   2.870   0.751   3.758 -0.5568  0.3739 -0.8071
 4406SOL     OW15371   0.686   5.454   1.415 -0.4243  0.1924 -0.2071
 4406SOL    HW115372   0.677   5.483   1.506  0.6690  0.1404 -0.0667
 4406SOL    HW215373   0.698   5.359   1.421  2.0784  0.4195 -0.1639
 4407SOL     OW15374   5.964   1.183   2.190  0.1229 -0.5942 -0.1841
 4407SOL    HW115375   5.944   1.090   2.181 -1.3562 -0.2725 -0.4596
 4407SOL    HW215376   5.879   1.227   2.181  0.8712  0.8182 -0.6611
 4408SOL     OW15377   0.036   5.565   2.711  0.3919 -0.1983 -0.2474
 4408SOL    HW115378  -0.042   5.620   2.714 -1.0269 -2.1537  1.3176
 4408SOL    HW215379   0.108   5.624   2.734 -0.5303  1.6938 -1.9147
 4409SOL     OW15380   4.791   0.237   8.291  0.1484  0.5353  0.0485
 4409SOL    HW115381   4.874   0.191   8.284 -0.5794 -0.9716  0.6959
 4409SOL    HW215382   4.814   0.329   8.298  1.8156  0.0752  1.1285
 4410SOL     OW15383   2.153   8.246   1.927 -0.1380 -0.6403  0.0510
 4410SOL    HW115384   2.059   8.242   1.948  0.2624  0.7234  2.4824
 4410SOL    HW215385   2.171   8.339   1.914  1.5128 -0.2991  3.5342
 4411SOL     OW15386   0.568   4.460   2.209 -0.4075 -0.1517  0.0361
 4411SOL    HW115387   0.513   4.438   2.133  0.8069  1.3441 -1.3308
 4411SOL    HW215388   0.528   4.539   2.245  0.0559  0.1877 -0.1772
 4412SOL     OW15389   3.521   5.238   1.484  0.2639 -0.0667  0.2785
 4412SOL    HW115390   3.486   5.183   1.554 -0.4161  1.5498  1.2638
 4412SOL    HW215391   3.610   5.206   1.471 -0.1836 -1.5444  0.6335
 4413SOL     OW15392   1.508   1.926   7.661  0.3543  0.2075  0.1905
 4413SOL    HW115393   1.467   1.855   7.611 -0.2903  0.6162  0.1304
 4413SOL    HW215394   1.494   1.902   7.752 -0.0798  0.3721  0.1708
 4414SOL     OW15395   9.333   3.580   9.118  0.1871  0.0001 -0.2673
 4414SOL    HW115396   9.324   3.567   9.213  0.4666  0.2737 -0.2006
 4414SOL    HW215397   9.246   3.604   9.089  0.6658  2.8963  0.4099
 4415SOL     OW15398   9.612   8.463   6.319 -0.1464 -0.0104 -0.1541
 4415SOL    HW115399   9.604   8.407   6.396 -2.8646  0.2623 -0.1321
 4415SOL    HW215400   9.696   8.507   6.329  0.8507 -2.0774  1.1728
 4416SOL     OW15401   2.165   8.350   0.463 -0.5179 -0.0166 -0.3122
 4416SOL    HW115402   2.154   8.414   0.534  1.6311 -0.6433  0.6685
 4416SOL    HW215403   2.081   8.351   0.418 -1.8022  0.8317  1.8996
 4417SOL     OW15404   1.573   1.367   4.395 -0.0139 -0.1194  0.3549
 4417SOL    HW115405   1.487   1.350   4.433  0.4284 -1.0903  0.9660
 4417SOL    HW215406   1.634   1.357   4.469  0.6345  0.3962 -0.1007
 4418SOL     OW15407   0.642   1.219   4.144 -0.3794 -0.2936  0.1471
 4418SOL    HW115408   0.580   1.161   4.100  1.0689 -0.7744 -1.3669
 4418SOL    HW215409   0.728   1.178   4.130  0.2955  0.2589  2.3163
 4419SOL     OW15410   8.192   3.140   6.159  0.3206 -0.0278 -0.4226
 4419SOL    HW115411   8.175   3.149   6.252 -0.3015  0.2194 -0.5606
 4419SOL    HW215412   8.106   3.125   6.119  0.4615  0.8285 -1.0715
 4420SOL     OW15413   8.393   1.257   1.664 -0.0332  0.0976 -0.0197
 4420SOL    HW115414   8.372   1.204   1.587  0.2211  0.6465 -0.4724
 4420SOL    HW215415   8.308   1.291   1.693  0.0443  1.1449 -0.9903
 4421SOL     OW15416   2.745   2.748   8.242 -0.7584 -0.0636 -0.3060
 4421SOL    HW115417   2.721   2.715   8.156  0.3713 -0.5565 -0.4354
 4421SOL    HW215418   2.687   2.701   8.303 -1.8166  0.5569 -0.8025
 4422SOL     OW15419   8.130   8.313   4.373  0.0639  0.0767 -0.2078
 4422SOL    HW115420   8.129   8.225   4.409  1.3161 -0.2010 -0.7747
 4422SOL    HW215421   8.119   8.371   4.449  1.1851 -0.5269  0.4470
 4423SOL     OW15422   1.099   5.432   2.091 -1.0222 -0.2161 -0.1074
 4423SOL    HW115423   1.018   5.483   2.099 -1.1343 -0.5180  0.7367
 4423SOL    HW215424   1.136   5.431   2.179 -0.7962 -1.2127 -0.2006
 4424SOL     OW15425   1.369   6.867   1.153  0.1739 -0.1877 -0.1083
 4424SOL    HW115426   1.421   6.794   1.119 -0.7460 -0.4431 -1.0262
 4424SOL    HW215427   1.346   6.841   1.242  1.2602 -0.2473  0.1701
 4425SOL     OW15428   0.286   3.423   7.656  0.7976 -0.1033 -0.0610
 4425SOL    HW115429   0.289   3.407   7.751 -2.7386 -0.2664  0.1389
 4425SOL    HW215430   0.318   3.342   7.617 -0.4420 -1.1538  1.0282
 4426SOL     OW15431   7.978   2.594   6.819  0.5000 -0.0458  0.0633
 4426SOL    HW115432   8.058   2.559   6.860  0.3686  0.5725  0.8814
 4426SOL    HW215433   7.980   2.559   6.730  1.7709  0.0760  0.0176
 4427SOL     OW15434   1.616   9.391   6.664 -0.2473  0.1264 -0.4949
 4427SOL    HW115435   1.660   9.472   6.690  1.2517 -0.4010 -1.3014
 4427SOL    HW215436   1.671   9.354   6.595 -0.8312 -1.6363 -0.0769
 4428SOL     OW15437   7.827   9.247   3.116  0.2573  0.0286 -0.3329
 4428SOL    HW115438   7.783   9.232   3.200 -1.7184  0.2114 -1.2654
 4428SOL    HW215439   7.757   9.280   3.059  1.7302  0.6681 -1.8277
 4429SOL     OW15440   6.626   4.021   7.240  0.1223  0.3886  0.1069
 4429SOL    HW115441   6.551   4.078   7.221  0.5118  0.5059 -1.1549
 4429SOL    HW215442   6.684   4.032   7.165  0.8641 -0.6044  0.5180
 4430SOL     OW15443   3.558   4.190   8.489 -0.0615  0.2304 -0.2418
 4430SOL    HW115444   3.505   4.170   8.412  0.7354 -1.2168 -0.4368
 4430SOL    HW215445   3.618   4.259   8.459  0.0609 -0.1316 -0.8598
 4431SOL     OW15446   6.483   5.180   4.558 -0.1469  0.9484  0.4294
 4431SOL    HW115447   6.526   5.129   4.489 -0.6424 -1.9004  2.0630
 4431SOL    HW215448   6.420   5.234   4.512 -1.4292 -1.8472 -1.3823
 4432SOL     OW15449   5.907   9.212   9.535 -0.8067  0.3692  0.2028
 4432SOL    HW115450   5.902   9.299   9.574  0.9206  0.6640 -0.1700
 4432SOL    HW215451   5.988   9.175   9.570 -1.6426 -1.2076  0.5570
 4433SOL     OW15452   8.823   6.343   0.719  0.0512  0.9775 -0.6036
 4433SOL    HW115453   8.748   6.335   0.777 -0.2329  0.5745 -1.0270
 4433SOL    HW215454   8.792   6.314   0.634  1.4508 -2.3350 -0.1873
 4434SOL     OW15455   5.649   2.109   0.251  0.6212  0.6401  0.5852
 4434SOL    HW115456   5.696   2.172   0.198 -0.9114  0.4476 -1.1405
 4434SOL    HW215457   5.562   2.148   0.263 -0.6070 -1.3250 -1.1369
 4435SOL     OW15458   4.075   9.466   6.037 -0.1909 -0.4605  0.1189
 4435SOL    HW115459   4.157   9.483   5.991  0.2198  1.1884  1.3565
 4435SOL    HW215460   4.101   9.448   6.128 -1.1852  0.0535  0.5216
 4436SOL     OW15461   8.014   4.357   8.679  0.2025 -0.4662 -0.0544
 4436SOL    HW115462   7.931   4.309   8.667  0.8850 -1.7646  0.2330
 4436SOL    HW215463   8.001   4.407   8.760 -1.0902  1.1157 -1.1835
 4437SOL     OW15464   6.276   9.587   0.762  0.2901 -0.2270 -0.1461
 4437SOL    HW115465   6.241   9.669   0.728  0.8630 -0.5142 -1.4769
 4437SOL    HW215466   6.215   9.520   0.733  0.2113 -0.3571  0.3137
 4438SOL     OW15467   8.273   2.437   4.452  0.3923  0.3243 -1.0172
 4438SOL    HW115468   8.324   2.465   4.528 -0.3305  0.3718 -0.5312
 4438SOL    HW215469   8.213   2.371   4.487  2.2162 -2.0886 -2.1689
 4439SOL     OW15470   0.788   5.889   1.082  0.5549 -0.5643 -0.4310
 4439SOL    HW115471   0.806   5.813   1.137 -0.1151 -0.0010  0.5923
 4439SOL    HW215472   0.732   5.945   1.135 -1.2506 -0.6050 -2.1673
 4440SOL     OW15473   0.820   0.879   4.268 -0.2726  0.1231 -0.2784
 4440SOL    HW115474   0.805   0.935   4.192  1.2749  0.6829 -0.2028
 4440SOL    HW215475   0.853   0.797   4.232  1.8450  0.8754 -0.2072
 4441SOL     OW15476   7.137   6.421   6.667  0.2889  0.1708 -0.5033
 4441SOL    HW115477   7.113   6.354   6.603 -0.7635 -0.3376  0.3931
 4441SOL    HW215478   7.101   6.502   6.632 -1.1415 -0.2699 -0.1015
 4442SOL     OW15479   8.323   0.334   8.763 -0.3466 -0.0860  0.8857
 4442SOL    HW115480   8.250   0.285   8.726 -0.5840  0.5226  0.5431
 4442SOL    HW215481   8.303   0.340   8.856 -0.7788  0.1526  0.7794
 4443SOL     OW15482   6.771   1.668   3.415 -0.5523 -0.3499  0.4833
 4443SOL    HW115483   6.725   1.594   3.453 -0.7325  0.1631  1.2921
 4443SOL    HW215484   6.832   1.696   3.483  0.1980 -0.3489 -0.1716
 4444SOL     OW15485   7.184   1.507   9.618  0.0343 -0.0034  0.4286
 4444SOL    HW115486   7.102   1.525   9.572  0.5931  1.1307 -0.1693
 4444SOL    HW215487   7.175   1.553   9.702  0.3995  0.8766 -0.0045
 4445SOL     OW15488   2.465   2.385   1.226 -0.0084 -0.0567  0.2002
 4445SOL    HW115489   2.510   2.470   1.226 -0.3118  0.1216  1.8351
 4445SOL    HW215490   2.532   2.323   1.196  0.7093  0.5069  0.6163
 4446SOL     OW15491   1.195   5.456   4.378 -0.0084  0.4146 -0.3817
 4446SOL    HW115492   1.249   5.510   4.436  0.0104 -0.0830  0.0636
 4446SOL    HW215493   1.245   5.452   4.296  0.0247  1.0099 -0.3951
 4447SOL     OW15494   7.063   9.413   0.490  0.6815  0.1031  0.2448
 4447SOL    HW115495   7.053   9.328   0.447  0.7257 -0.4831  1.3334
 4447SOL    HW215496   7.146   9.406   0.538  1.4331  1.3139 -0.8228
 4448SOL     OW15497   1.547   7.562   9.120  0.0434  0.2013 -0.5844
 4448SOL    HW115498   1.589   7.486   9.160 -1.5752 -0.6066 -0.3027
 4448SOL    HW215499   1.594   7.637   9.155  1.1871 -0.6449 -0.2617
 4449SOL     OW15500   5.464   4.851   7.631 -0.1933 -0.2304  0.2749
 4449SOL    HW115501   5.514   4.924   7.595 -2.4555  1.2861  0.0239
 4449SOL    HW215502   5.531   4.787   7.657  1.7772  0.0655 -3.3426
 4450SOL     OW15503   1.864   0.347   7.176 -0.3079  0.5756 -0.3067
 4450SOL    HW115504   1.900   0.262   7.150  0.1844  0.8670 -0.5959
 4450SOL    HW215505   1.936   0.409   7.161 -0.9195  1.1688 -0.8448
 4451SOL     OW15506   2.188   4.813   1.476 -0.4755  0.7605 -0.2632
 4451SOL    HW115507   2.147   4.773   1.400  1.9994 -0.6253 -0.9710
 4451SOL    HW215508   2.275   4.773   1.481 -0.9108 -0.1225  3.9787
 4452SOL     OW15509   3.370   2.114   9.119  0.4854  0.7892 -0.4015
 4452SOL    HW115510   3.299   2.097   9.181 -0.3078  0.1040 -1.4642
 4452SOL    HW215511   3.353   2.054   9.046  0.6188  2.5345 -1.9175
 4453SOL     OW15512   3.766   1.876   1.321  0.2040  0.2970 -0.0569
 4453SOL    HW115513   3.761   1.804   1.384  0.0101  1.9184  1.8729
 4453SOL    HW215514   3.844   1.925   1.347  0.4610  0.6849 -1.4734
 4454SOL     OW15515   7.196   7.454   2.446 -0.0516 -0.2660  0.1634
 4454SOL    HW115516   7.137   7.386   2.413 -0.8294  0.6285 -0.3240
 4454SOL    HW215517   7.222   7.503   2.368  3.1871 -1.9816 -0.0064
 4455SOL     OW15518   2.254   3.862   3.478 -0.2253 -0.5377  0.3005
 4455SOL    HW115519   2.174   3.812   3.468  0.3555 -1.4088 -0.1467
 4455SOL    HW215520   2.297   3.857   3.393  1.3209 -1.9423  1.0842
 4456SOL     OW15521   9.540   5.261   6.692 -0.3933  0.2539  0.0957
 4456SOL    HW115522   9.608   5.207   6.734 -0.6001 -1.1810 -1.3395
 4456SOL    HW215523   9.534   5.339   6.748  1.1446 -0.4118  1.2667
 4457SOL     OW15524   6.198   5.508   8.281 -0.7975 -0.5644  0.1695
 4457SOL    HW115525   6.193   5.497   8.186 -0.8893  3.9313 -0.5242
 4457SOL    HW215526   6.108   5.496   8.312 -1.4911  1.4467 -0.9035
 4458SOL     OW15527   8.121   7.003   3.079 -0.1329 -0.3972 -0.0729
 4458SOL    HW115528   8.142   6.926   3.131 -2.3057 -0.8886  0.1645
 4458SOL    HW215529   8.126   7.076   3.141  2.4832 -0.1773 -0.4204
 4459SOL     OW15530   4.622   0.398   1.516  0.4604  0.7045 -0.7942
 4459SOL    HW115531   4.622   0.355   1.430 -1.0527  0.1919 -0.5755
 4459SOL    HW215532   4.555   0.467   1.508  0.6839  0.9949 -0.1884
 4460SOL     OW15533   3.257   2.188   8.823 -0.0418 -0.0578 -0.3471
 4460SOL    HW115534   3.316   2.126   8.866 -1.7469 -0.5388  1.5105
 4460SOL    HW215535   3.225   2.243   8.895 -0.4186  1.4057 -1.5915
 4461SOL     OW15536   7.239   1.321   6.571 -0.2181 -0.0623 -0.4076
 4461SOL    HW115537   7.249   1.231   6.601  1.1389 -0.5374 -2.1136
 4461SOL    HW215538   7.175   1.316   6.499 -0.9399  0.5248  0.1709
 4462SOL     OW15539   5.901   1.291   6.988  0.1205 -0.1090 -0.2517
 4462SOL    HW115540   5.980   1.253   6.948  0.1145 -0.2918 -0.0896
 4462SOL    HW215541   5.837   1.220   6.985  1.0743 -1.3036  3.0858
 4463SOL     OW15542   8.861   5.944   3.718 -0.9271  0.0712  0.5526
 4463SOL    HW115543   8.803   5.924   3.792  0.2518 -1.3904  1.1254
 4463SOL    HW215544   8.896   6.031   3.739  1.3213 -1.2833  3.1173
 4464SOL     OW15545   1.144   7.033   4.118 -0.0210  0.1227  0.1605
 4464SOL    HW115546   1.182   6.976   4.184 -1.8461  0.4323  1.5501
 4464SOL    HW215547   1.117   6.974   4.047 -0.7118 -0.5927  1.0023
 4465SOL     OW15548   9.296   4.399   5.993 -0.7936  0.4070 -0.3180
 4465SOL    HW115549   9.369   4.460   5.993 -1.0771  0.7579 -1.1855
 4465SOL    HW215550   9.306   4.350   6.075  0.4244  0.4193 -0.4453
 4466SOL     OW15551   6.434   7.073   7.458  0.2643 -0.0971  0.4355
 4466SOL    HW115552   6.342   7.053   7.440  0.2605 -0.7085  1.0602
 4466SOL    HW215553   6.454   7.147   7.402 -0.7837  0.4342  0.7338
 4467SOL     OW15554   4.803   7.209   5.750 -0.0848  0.0057  0.3981
 4467SOL    HW115555   4.811   7.126   5.797  1.0895 -0.4254 -0.5234
 4467SOL    HW215556   4.850   7.272   5.804 -2.1946  0.4578  1.8550
 4468SOL     OW15557   0.906   2.866   5.323  0.1766  0.1490  0.1524
 4468SOL    HW115558   0.977   2.829   5.270 -0.4138 -1.3410  0.3634
 4468SOL    HW215559   0.941   2.950   5.354  0.2642  1.5509 -3.2293
 4469SOL     OW15560   8.584   3.373   6.362  0.4708  0.0289  0.4854
 4469SOL    HW115561   8.554   3.454   6.401 -1.6342  0.0914 -1.0768
 4469SOL    HW215562   8.672   3.393   6.329  0.6949  1.0971  1.6814
 4470SOL     OW15563   7.923   1.448   3.197  0.1707 -0.0541 -0.7556
 4470SOL    HW115564   8.018   1.434   3.198 -0.0389 -1.5924 -0.0719
 4470SOL    HW215565   7.886   1.361   3.185 -1.1724  0.4579 -0.4583
 4471SOL     OW15566   8.116   5.013   7.379 -0.2421 -0.0565  0.4219
 4471SOL    HW115567   8.070   4.931   7.398  0.3439 -0.4445  0.2179
 4471SOL    HW215568   8.158   4.998   7.294 -0.3655  0.5640  0.2451
 4472SOL     OW15569   4.874   0.097   5.079  0.0952  0.1362  0.0003
 4472SOL    HW115570   4.782   0.106   5.053 -0.4091 -2.4923  0.5648
 4472SOL    HW215571   4.874   0.121   5.172  0.3327  1.6629 -0.3653
 4473SOL     OW15572   9.349   5.078   0.410 -0.2720  0.1276  0.0619
 4473SOL    HW115573   9.303   5.093   0.328  1.5596  1.2479 -0.8019
 4473SOL    HW215574   9.356   4.982   0.416 -0.0042  0.0407 -1.3409
 4474SOL     OW15575   4.053   6.900   7.028  0.1671 -0.0989  0.1974
 4474SOL    HW115576   4.014   6.837   6.968  1.2260 -0.1662 -0.4524
 4474SOL    HW215577   4.093   6.847   7.096  0.8358 -0.1323 -0.2116
 4475SOL     OW15578   4.016   8.839   6.715 -0.3580  0.1135  0.1099
 4475SOL    HW115579   4.032   8.801   6.629 -0.4841 -0.8221  0.4939
 4475SOL    HW215580   4.104   8.848   6.753 -0.3822 -0.4446  0.2947
 4476SOL     OW15581   8.216   5.883   6.952 -0.5235  0.6915 -0.0674
 4476SOL    HW115582   8.180   5.958   6.999 -2.0114  0.2456 -0.4398
 4476SOL    HW215583   8.215   5.910   6.860 -0.9119  0.2891 -0.1856
 4477SOL     OW15584   0.152   9.013   2.160  0.6790  1.0801  0.0073
 4477SOL    HW115585   0.203   8.983   2.235  1.2602 -0.5952 -1.0073
 4477SOL    HW215586   0.078   9.060   2.198 -0.1245 -1.3934  1.7542
 4478SOL     OW15587   9.543   6.772   1.451  0.4290  0.2948  0.2283
 4478SOL    HW115588   9.631   6.737   1.439  0.5636  0.5595  0.4193
 4478SOL    HW215589   9.526   6.821   1.371  0.0720 -0.5507 -0.2189
 4479SOL     OW15590   7.961   8.500   8.960 -0.1459 -0.1411 -0.3446
 4479SOL    HW115591   7.927   8.418   8.926 -0.5012 -0.3933  0.5771
 4479SOL    HW215592   8.056   8.491   8.953 -0.0761 -1.4114  1.3668
 4480SOL     OW15593   7.533   9.212   9.051 -0.0431 -0.3037  0.6995
 4480SOL    HW115594   7.549   9.165   8.969 -2.3470 -0.9567  0.5602
 4480SOL    HW215595   7.551   9.304   9.030  0.0973 -0.5547 -0.3347
 4481SOL     OW15596   6.829   2.575   7.114 -0.5416 -0.0062  0.2561
 4481SOL    HW115597   6.886   2.558   7.039 -0.8218 -1.7533  0.4102
 4481SOL    HW215598   6.740   2.558   7.081 -0.5582 -2.4530  1.3624
 4482SOL     OW15599   8.669   1.420   4.165  0.1022  0.0062  0.2742
 4482SOL    HW115600   8.663   1.325   4.168 -0.1957  0.0373  0.7938
 4482SOL    HW215601   8.687   1.440   4.073  1.5369 -0.6224  0.3932
 4483SOL     OW15602   7.889   8.530   6.214  0.5002  0.8910 -0.6413
 4483SOL    HW115603   7.962   8.576   6.175  0.4107  2.2697  0.7229
 4483SOL    HW215604   7.812   8.565   6.169  0.6249 -0.8317 -2.3427
 4484SOL     OW15605   5.720   2.723   2.318  0.5802  0.1540  0.1190
 4484SOL    HW115606   5.801   2.684   2.352 -0.2163 -0.4965  1.3248
 4484SOL    HW215607   5.750   2.782   2.248  2.0024 -0.9033 -0.2230
 4485SOL     OW15608   7.434   8.767   2.294 -0.2399  0.2323  0.0404
 4485SOL    HW115609   7.359   8.738   2.243 -0.2398  0.9191 -0.3679
 4485SOL    HW215610   7.397   8.823   2.362 -0.0140  1.6745 -0.9728
 4486SOL     OW15611   2.899   5.505   1.399  0.1048  0.0999 -0.1335
 4486SOL    HW115612   2.839   5.579   1.406 -0.0519  0.2188 -2.2384
 4486SOL    HW215613   2.949   5.522   1.319  1.0689 -1.3513  0.1294
 4487SOL     OW15614   7.538   8.671   1.902 -0.0183  0.1453  0.2470
 4487SOL    HW115615   7.626   8.633   1.912 -0.5915 -1.2999  0.1457
 4487SOL    HW215616   7.532   8.738   1.970  1.0260 -0.0111  0.5046
 4488SOL     OW15617   1.134   7.892   0.447 -0.2514 -0.2143  0.1517
 4488SOL    HW115618   1.168   7.828   0.509 -0.3210 -1.2467 -0.8513
 4488SOL    HW215619   1.152   7.977   0.488 -0.0281 -0.8598  1.4295
 4489SOL     OW15620   5.504   3.811   8.227 -0.1840  0.2701 -0.0397
 4489SOL    HW115621   5.517   3.798   8.321  0.1710 -1.3864 -0.2810
 4489SOL    HW215622   5.579   3.863   8.199 -1.0944  2.1217  0.8332
 4490SOL     OW15623   7.580   0.192   6.839 -0.0995 -0.1651  0.4431
 4490SOL    HW115624   7.497   0.147   6.856 -0.1202 -0.1613  0.3507
 4490SOL    HW215625   7.595   0.246   6.917 -0.6424  0.5362  0.0758
 4491SOL     OW15626   1.257   5.003   2.379 -0.1252 -0.0024 -0.5325
 4491SOL    HW115627   1.179   4.983   2.432  0.3234 -0.1466  0.0776
 4491SOL    HW215628   1.327   5.017   2.443  1.1748 -3.1727 -1.1068
 4492SOL     OW15629   9.154   1.801   5.141 -0.1921  0.0104  0.0604
 4492SOL    HW115630   9.237   1.755   5.137 -0.9907 -1.5718  0.6472
 4492SOL    HW215631   9.109   1.778   5.060 -1.0182 -1.1742  0.8100
 4493SOL     OW15632   8.640   8.312   3.822  0.3575 -0.1222 -0.0370
 4493SOL    HW115633   8.600   8.395   3.849  2.9103  0.4965  2.2597
 4493SOL    HW215634   8.680   8.277   3.902  1.6121 -2.2905 -1.4899
 4494SOL     OW15635   3.775   7.802   6.919 -0.3592 -0.3565  0.1097
 4494SOL    HW115636   3.814   7.719   6.892 -1.5998 -0.9359  0.0534
 4494SOL    HW215637   3.749   7.788   7.010 -0.5499 -0.0244  0.1064
 4495SOL     OW15638   0.409   8.113   9.310  0.3941  0.1788 -0.2396
 4495SOL    HW115639   0.455   8.164   9.243 -0.6449  1.2025 -0.2093
 4495SOL    HW215640   0.368   8.179   9.366  0.4223 -0.6777  0.8287
 4496SOL     OW15641   5.090   3.674   4.176  0.4328 -0.6835  0.3952
 4496SOL    HW115642   5.173   3.626   4.165  0.4075 -0.8462  0.8962
 4496SOL    HW215643   5.085   3.729   4.098  0.4289 -1.5458 -0.2379
 4497SOL     OW15644   3.528   7.759   3.160 -0.4226 -0.7034  0.2215
 4497SOL    HW115645   3.556   7.670   3.136  0.6773 -0.2862 -0.1135
 4497SOL    HW215646   3.507   7.801   3.076  0.7253 -0.1237  0.2021
 4498SOL     OW15647   1.783   9.199   6.080  0.1479 -0.0407  0.0169
 4498SOL    HW115648   1.877   9.216   6.073  0.4806 -2.0329 -0.9084
 4498SOL    HW215649   1.776   9.116   6.126 -1.1085 -0.5199 -0.9815
 4499SOL     OW15650   0.090   6.800   9.513 -0.2131 -0.2512  0.6671
 4499SOL    HW115651   0.169   6.848   9.488  0.2287 -0.9430  0.6957
 4499SOL    HW215652   0.090   6.803   9.608 -1.1426  1.1864  0.6508
 4500SOL     OW15653   1.606   6.341   4.314 -0.0917 -0.3784 -0.6937
 4500SOL    HW115654   1.564   6.273   4.367  0.1423  1.7074  2.4289
 4500SOL    HW215655   1.686   6.362   4.362  0.6434  1.0017 -2.4205
 4501SOL     OW15656   0.031   6.432   9.232 -0.1133 -0.3404 -0.0481
 4501SOL    HW115657   0.063   6.374   9.163  0.0623 -0.0209 -0.2408
 4501SOL    HW215658  -0.060   6.449   9.210  0.1914  0.5103 -0.7378
 4502SOL     OW15659   8.949   7.531   0.373  0.1638  0.2690 -0.3171
 4502SOL    HW115660   8.958   7.540   0.467 -2.1758 -2.4440  0.3219
 4502SOL    HW215661   8.870   7.582   0.351 -0.0156 -0.1042 -0.5660
 4503SOL     OW15662   5.952   3.131   0.236  0.1939  0.0450  0.2821
 4503SOL    HW115663   5.941   3.039   0.209  2.5097 -0.2997  0.2974
 4503SOL    HW215664   6.002   3.126   0.317 -0.4079  1.3290  0.7585
 4504SOL     OW15665   8.850   2.979   6.468 -0.4450 -0.1262 -0.1645
 4504SOL    HW115666   8.876   3.056   6.518 -2.1238  0.8037 -0.6221
 4504SOL    HW215667   8.790   2.932   6.525  2.4421 -2.5838  1.1351
 4505SOL     OW15668   5.819   5.349   2.183  0.2987  0.5136  0.0349
 4505SOL    HW115669   5.836   5.299   2.103  1.1150  1.0896 -0.1578
 4505SOL    HW215670   5.803   5.438   2.153 -0.5060  0.5056  0.4302
 4506SOL     OW15671   1.616   1.298   1.474 -0.0212 -0.0785 -0.2290
 4506SOL    HW115672   1.607   1.362   1.545  0.1280  1.4394 -1.5106
 4506SOL    HW215673   1.705   1.313   1.441 -1.6420  3.0290 -4.0483
 4507SOL     OW15674   2.175   7.572   2.561  0.2898 -0.2143 -0.7109
 4507SOL    HW115675   2.095   7.529   2.593  0.8346 -0.0194  0.9861
 4507SOL    HW215676   2.245   7.512   2.584  0.5627 -1.2277 -3.7378
 4508SOL     OW15677   6.269   2.786   4.991 -0.7182 -0.0989 -0.2954
 4508SOL    HW115678   6.224   2.839   5.058 -0.6811 -0.0127 -0.3391
 4508SOL    HW215679   6.358   2.821   4.988 -0.4831 -0.6368  0.1914
 4509SOL     OW15680   7.201   7.852   6.406  0.1152  0.4959 -0.7679
 4509SOL    HW115681   7.150   7.900   6.472  0.8733 -0.5702  0.6378
 4509SOL    HW215682   7.263   7.917   6.373  0.4664  0.7750  0.3883
 4510SOL     OW15683   0.022   0.923   9.292  0.1557  0.2027  0.4415
 4510SOL    HW115684   0.061   0.921   9.379  0.3153  0.0154  0.3684
 4510SOL    HW215685  -0.038   0.848   9.290  0.5384 -0.1030  0.2181
 4511SOL     OW15686   7.657   0.908   7.005 -0.1935 -0.3693 -0.3058
 4511SOL    HW115687   7.729   0.923   6.943 -0.0495 -0.9011 -0.2752
 4511SOL    HW215688   7.635   0.995   7.038  1.6032 -0.3407  0.9729
 4512SOL     OW15689   4.195   4.054   6.685  0.2168  0.1001 -0.2672
 4512SOL    HW115690   4.123   3.991   6.678  0.4362 -0.2917  0.9296
 4512SOL    HW215691   4.162   4.132   6.640 -0.3610 -0.5875 -1.0607
 4513SOL     OW15692   4.728   7.552   7.381  0.2776 -0.2349 -0.5479
 4513SOL    HW115693   4.722   7.565   7.476 -0.5808 -1.5601 -0.3866
 4513SOL    HW215694   4.725   7.640   7.345 -1.3554  0.2255  0.5825
 4514SOL     OW15695   0.939   8.763   9.279 -0.1166  0.3977  0.2282
 4514SOL    HW115696   0.863   8.819   9.298  0.5339  0.6562  2.3395
 4514SOL    HW215697   1.000   8.781   9.350  1.1592 -1.1867 -0.4060
 4515SOL     OW15698   7.138   6.650   7.286  0.3759  0.3948 -0.4080
 4515SOL    HW115699   7.051   6.686   7.301 -0.6574 -1.8347 -0.7542
 4515SOL    HW215700   7.178   6.645   7.373 -0.4477 -0.0499 -0.0518
 4516SOL     OW15701   8.227   5.853   1.460 -0.0742 -0.0214 -0.1083
 4516SOL    HW115702   8.301   5.913   1.452  0.0091 -0.0980  0.1141
 4516SOL    HW215703   8.266   5.766   1.455 -0.2316 -0.0594 -0.7892
 4517SOL     OW15704   5.643   8.791   1.612  0.0255 -0.6032  0.3723
 4517SOL    HW115705   5.716   8.729   1.617 -0.1620 -0.8478  0.1163
 4517SOL    HW215706   5.683   8.875   1.593  0.3065 -0.5947  0.9625
 4518SOL     OW15707   4.876   3.206   5.648  0.1608 -0.1866 -0.5175
 4518SOL    HW115708   4.863   3.251   5.564  0.4484 -0.2108 -0.5764
 4518SOL    HW215709   4.788   3.180   5.675 -0.5373  3.3929  1.2152
 4519SOL     OW15710   3.954   6.776   4.738  0.1116 -0.5630 -0.2674
 4519SOL    HW115711   4.008   6.828   4.798  0.5241  1.1206 -2.0108
 4519SOL    HW215712   3.866   6.815   4.745 -0.4497 -1.9358  0.9786
 4520SOL     OW15713   2.283   1.427   5.793 -0.1002 -0.0675  0.0240
 4520SOL    HW115714   2.297   1.338   5.827  1.3279 -0.0614 -0.4881
 4520SOL    HW215715   2.188   1.440   5.800 -0.5286 -2.0926 -0.9637
 4521SOL     OW15716   7.615   2.385   3.190  0.0673 -0.4093  0.0459
 4521SOL    HW115717   7.535   2.419   3.230 -0.6082 -0.8557 -0.9053
 4521SOL    HW215718   7.686   2.419   3.246 -0.5039  2.8080 -1.0100
 4522SOL     OW15719   9.132   3.841   3.078 -0.0857  0.2911 -0.0776
 4522SOL    HW115720   9.052   3.805   3.040 -0.9164  0.7514  1.1861
 4522SOL    HW215721   9.112   3.933   3.093  0.0074  0.0292  1.9257
 4523SOL     OW15722   3.568   8.230   3.218 -0.4603  0.2501 -0.2106
 4523SOL    HW115723   3.478   8.257   3.233 -0.4846  0.3394 -0.4983
 4523SOL    HW215724   3.568   8.135   3.231 -0.5745  0.2633 -0.1152
 4524SOL     OW15725   9.393   0.309   8.587  0.0340 -0.2758  0.1206
 4524SOL    HW115726   9.414   0.326   8.679  1.1219  2.5008 -0.5379
 4524SOL    HW215727   9.312   0.358   8.571  0.1740 -0.2483 -0.5481
 4525SOL     OW15728   0.433   1.213   8.615  0.0652  0.2050 -0.0562
 4525SOL    HW115729   0.400   1.126   8.594  0.5911  0.0910 -0.4160
 4525SOL    HW215730   0.368   1.249   8.676  0.2306 -0.7183  0.6813
 4526SOL     OW15731   4.545   0.648   4.004 -0.0098 -0.7563  0.4603
 4526SOL    HW115732   4.532   0.663   3.910 -0.8187 -2.1516  0.3273
 4526SOL    HW215733   4.477   0.702   4.045 -0.3178 -0.9277  0.1874
 4527SOL     OW15734   4.671   8.377   8.341  0.1449  0.3514  0.2020
 4527SOL    HW115735   4.601   8.378   8.406  0.0702  2.0478  0.1303
 4527SOL    HW215736   4.634   8.331   8.266  0.1710 -1.4798  1.2434
 4528SOL     OW15737   6.524   0.624   8.155 -0.1693 -0.0780 -0.1110
 4528SOL    HW115738   6.434   0.593   8.160 -0.1676 -0.1028 -0.2146
 4528SOL    HW215739   6.538   0.639   8.061  0.0778 -0.5166 -0.1468
 4529SOL     OW15740   2.792   4.363   3.995 -0.0626 -0.2760  1.0497
 4529SOL    HW115741   2.788   4.404   3.909  0.2931  1.1268  1.6776
 4529SOL    HW215742   2.865   4.302   3.989 -0.4785 -0.7118  0.1573
 4530SOL     OW15743   9.473   6.836   9.398 -0.0985  0.7423 -0.4662
 4530SOL    HW115744   9.456   6.790   9.315  1.4667  1.2244 -1.1039
 4530SOL    HW215745   9.557   6.801   9.428 -0.6030  0.6461  0.8882
 4531SOL     OW15746   9.389   2.091   1.315  0.1816  0.3481  0.5053
 4531SOL    HW115747   9.415   2.086   1.223  0.0594  1.1120  0.4202
 4531SOL    HW215748   9.392   2.001   1.346  0.3754  0.1035 -0.2076
 4532SOL     OW15749   1.447   3.148   6.070  0.2615 -0.2388  0.6867
 4532SOL    HW115750   1.463   3.054   6.068 -0.7968 -0.4262  0.0025
 4532SOL    HW215751   1.463   3.178   5.981  0.7406  0.2638  0.9326
 4533SOL     OW15752   1.925   8.669   1.631  0.0556  0.2176 -0.1528
 4533SOL    HW115753   1.945   8.605   1.563 -1.6062 -0.9437  0.3745
 4533SOL    HW215754   1.977   8.746   1.608  0.3965 -0.5289 -2.0816
 4534SOL     OW15755   1.137   7.080   0.721 -0.4675  0.1387 -0.0980
 4534SOL    HW115756   1.083   7.044   0.791  0.8119 -3.0221 -0.6050
 4534SOL    HW215757   1.227   7.076   0.755  0.4592 -3.3264 -2.4112
 4535SOL     OW15758   6.464   7.640   1.991  0.7070  0.1690  0.1169
 4535SOL    HW115759   6.372   7.634   2.017  0.2837 -0.2327 -1.3839
 4535SOL    HW215760   6.487   7.552   1.960  0.7095  0.9364 -2.2326
 4536SOL     OW15761   6.213   4.639   6.777  0.2753 -0.6109 -0.3464
 4536SOL    HW115762   6.182   4.553   6.750  0.1984 -0.3940 -0.9639
 4536SOL    HW215763   6.133   4.688   6.796  0.3194 -0.6820  0.0239
 4537SOL     OW15764   0.326   1.482   6.026  0.0191 -0.5136  0.4114
 4537SOL    HW115765   0.343   1.456   5.936 -0.7304 -0.4859  0.2534
 4537SOL    HW215766   0.237   1.451   6.043 -0.5912  1.2021  0.4851
 4538SOL     OW15767   3.771   1.907   8.106  0.0950 -0.3187 -0.5159
 4538SOL    HW115768   3.765   1.844   8.178 -0.0440  0.1228 -0.1291
 4538SOL    HW215769   3.787   1.854   8.028  3.0794 -0.6663  0.2019
 4539SOL     OW15770   5.110   7.501   1.318 -0.3622  0.3785  0.1583
 4539SOL    HW115771   5.168   7.499   1.242 -1.0664 -0.0458 -0.3866
 4539SOL    HW215772   5.094   7.409   1.338 -0.5101  0.4915  0.5703
 4540SOL     OW15773   0.100   3.308   4.791  0.3134 -0.1527 -0.0224
 4540SOL    HW115774   0.155   3.343   4.720 -0.8783 -1.1056 -1.4800
 4540SOL    HW215775   0.024   3.272   4.746 -0.8996 -0.0302  1.8484
 4541SOL     OW15776   7.978   0.113   3.697 -0.4780 -0.0840  0.2011
 4541SOL    HW115777   7.951   0.157   3.778 -0.2467  0.2379  0.1068
 4541SOL    HW215778   8.043   0.049   3.726 -0.3274  0.0930  0.2650
 4542SOL     OW15779   5.062   5.345   1.496 -0.1341  0.1173 -0.0493
 4542SOL    HW115780   5.145   5.297   1.492  0.5731  1.2363  0.6649
 4542SOL    HW215781   5.053   5.383   1.409 -0.4305 -0.8569 -0.4534
 4543SOL     OW15782   5.816   9.215   6.415  0.0786  0.5076  0.1256
 4543SOL    HW115783   5.772   9.208   6.500 -0.7084 -0.1128 -0.3238
 4543SOL    HW215784   5.889   9.274   6.431 -0.3229  0.7501  1.1332
 4544SOL     OW15785   3.018   3.436   3.932  0.5465 -0.1893 -0.3492
 4544SOL    HW115786   3.065   3.511   3.894  0.2772 -0.2577 -0.8200
 4544SOL    HW215787   3.086   3.370   3.946  0.4577 -0.6892 -2.0205
 4545SOL     OW15788   6.528   7.307   7.610  0.1528  0.0106 -0.3081
 4545SOL    HW115789   6.563   7.329   7.696 -3.0854  0.4394  1.0560
 4545SOL    HW215790   6.476   7.227   7.625  0.8597 -0.8718 -2.2654
 4546SOL     OW15791   8.367   5.214   1.306  0.3419  0.1130 -0.1785
 4546SOL    HW115792   8.346   5.307   1.309 -0.1167  0.0075  0.0088
 4546SOL    HW215793   8.422   5.199   1.383  2.8302  0.7832 -1.7133
 4547SOL     OW15794   2.431   7.746   3.855  0.1697 -0.0038 -0.4792
 4547SOL    HW115795   2.433   7.725   3.948  1.2637  0.1206 -0.4547
 4547SOL    HW215796   2.390   7.671   3.814  0.2367 -0.3298  0.0418
 4548SOL     OW15797   4.273   5.095   7.508  0.4849 -0.7937  0.6642
 4548SOL    HW115798   4.228   5.175   7.535  1.4556  0.6782 -1.7303
 4548SOL    HW215799   4.293   5.049   7.590 -0.2257  1.3514  2.1146
 4549SOL     OW15800   6.403   4.812   1.463 -0.1190  0.8091 -0.2593
 4549SOL    HW115801   6.492   4.819   1.428 -0.2474  1.3383 -0.4914
 4549SOL    HW215802   6.348   4.798   1.386 -0.1396 -0.5535 -0.0263
 4550SOL     OW15803   3.670   6.948   8.897 -0.0733  0.0115  0.4230
 4550SOL    HW115804   3.717   6.892   8.835 -0.4967  0.2662 -0.1294
 4550SOL    HW215805   3.696   7.037   8.873 -0.4538  0.1250  0.4339
 4551SOL     OW15806   3.749   0.241   7.031  0.2730  0.2486  0.6407
 4551SOL    HW115807   3.723   0.325   7.069  1.2024  0.6056  0.5240
 4551SOL    HW215808   3.799   0.198   7.100  1.5637  0.6952  0.0222
 4552SOL     OW15809   5.263   1.595   4.192  0.0268 -0.0992  0.4588
 4552SOL    HW115810   5.291   1.569   4.280  0.8330  1.7589  0.7861
 4552SOL    HW215811   5.331   1.560   4.134  2.1262  2.5993  1.0638
 4553SOL     OW15812   5.356   7.326   2.213 -0.2322  0.3207 -0.1046
 4553SOL    HW115813   5.428   7.389   2.203 -0.2594  0.6042  1.3720
 4553SOL    HW215814   5.313   7.351   2.294 -1.7006 -0.1767 -0.6983
 4554SOL     OW15815   7.125   9.486   8.767 -0.1595  0.4286 -0.9194
 4554SOL    HW115816   7.155   9.430   8.838  1.1318  1.6034 -0.4873
 4554SOL    HW215817   7.031   9.499   8.785  0.1098  0.6148  0.5257
 4555SOL     OW15818   6.127   5.634   6.076 -0.3410 -0.2709 -0.0408
 4555SOL    HW115819   6.151   5.668   6.162 -2.9545  1.5219  0.1024
 4555SOL    HW215820   6.084   5.707   6.032 -0.9741 -1.7611 -2.0544
 4556SOL     OW15821   8.667   9.036   6.460  0.3517 -0.1004 -0.4451
 4556SOL    HW115822   8.629   9.022   6.546 -0.8471  0.9465 -0.7754
 4556SOL    HW215823   8.605   9.093   6.415  1.7369  0.6750 -1.4510
 4557SOL     OW15824   4.796   2.793   6.906  0.2771  0.1950 -0.3560
 4557SOL    HW115825   4.782   2.721   6.967  1.4693  0.9662  0.8794
 4557SOL    HW215826   4.764   2.870   6.952 -2.0027  0.3753 -2.0831
 4558SOL     OW15827   3.376   0.262   5.169  0.4999 -0.5221  0.2792
 4558SOL    HW115828   3.299   0.317   5.183  0.1816 -0.8739 -0.1081
 4558SOL    HW215829   3.407   0.286   5.081  1.6601  0.6386  0.9608
 4559SOL     OW15830   8.117   4.026   7.026  0.0737 -1.0087 -0.9118
 4559SOL    HW115831   8.173   4.003   6.952 -1.6945 -1.3909 -2.2099
 4559SOL    HW215832   8.031   4.041   6.987 -0.5702  0.3494  0.8908
 4560SOL     OW15833   7.230   2.316   3.489  0.2080  0.2843  0.1488
 4560SOL    HW115834   7.313   2.268   3.496  1.2418  2.0120  0.4251
 4560SOL    HW215835   7.200   2.325   3.579  0.0416  0.1957  0.1018
 4561SOL     OW15836   0.366   4.845   0.525  0.3456 -0.0341  0.2750
 4561SOL    HW115837   0.325   4.925   0.495 -0.6355  0.5798  2.9590
 4561SOL    HW215838   0.425   4.873   0.595 -1.3218 -1.7073  2.5075
 4562SOL     OW15839   7.258   6.711   5.351  0.2023 -0.3989 -0.3280
 4562SOL    HW115840   7.204   6.746   5.280  0.5159  0.2905 -0.2278
 4562SOL    HW215841   7.208   6.635   5.383  0.5553 -1.3792 -1.9736
 4563SOL     OW15842   8.972   2.220   5.870  0.2778 -0.2705 -0.6265
 4563SOL    HW115843   9.026   2.281   5.920 -0.7190  0.0947  0.0546
 4563SOL    HW215844   8.891   2.213   5.921  0.0630 -1.5497 -1.1105
 4564SOL     OW15845   3.888   6.671   1.293  0.2935  0.2005 -0.6933
 4564SOL    HW115846   3.841   6.601   1.249 -0.0945  0.5285 -0.8103
 4564SOL    HW215847   3.862   6.751   1.247  1.4149  0.3302 -1.1317
 4565SOL     OW15848   0.666   4.192   3.311 -0.5231 -0.0930 -0.8384
 4565SOL    HW115849   0.656   4.112   3.363  0.0452  1.0036  1.0368
 4565SOL    HW215850   0.750   4.181   3.267  0.8830  0.5413  1.5125
 4566SOL     OW15851   4.684   3.686   0.972  0.0712 -0.1461 -0.5764
 4566SOL    HW115852   4.719   3.646   1.052 -0.8063 -0.9949 -0.5951
 4566SOL    HW215853   4.757   3.737   0.936  1.5911 -2.5675 -1.1330
 4567SOL     OW15854   3.137   5.094   7.445 -0.2678 -0.1589  0.2044
 4567SOL    HW115855   3.173   5.010   7.415 -1.4380 -0.5522 -0.1214
 4567SOL    HW215856   3.085   5.071   7.522  0.0329  0.3845  0.5734
 4568SOL     OW15857   4.593   6.333   3.865  0.3002 -0.3278  0.0578
 4568SOL    HW115858   4.520   6.339   3.803  1.7060  1.1991 -1.5697
 4568SOL    HW215859   4.649   6.264   3.830  1.1945  0.6657 -0.5294
 4569SOL     OW15860   5.922   7.761   0.649  0.0940  0.4626  0.4107
 4569SOL    HW115861   5.956   7.846   0.622 -0.0033 -0.3339 -2.5146
 4569SOL    HW215862   5.835   7.780   0.684 -0.2712  1.5056 -0.9858
 4570SOL     OW15863   3.830   8.969   1.751 -0.0069  0.1725  0.2557
 4570SOL    HW115864   3.792   8.882   1.735 -1.1305  0.1515  2.5797
 4570SOL    HW215865   3.912   8.968   1.703 -0.1703 -2.0517 -0.1148
 4571SOL     OW15866   1.951   7.202   7.311  0.2641 -0.0358 -0.1422
 4571SOL    HW115867   1.894   7.247   7.249  1.2784 -0.4331 -1.3966
 4571SOL    HW215868   1.976   7.121   7.267  0.2870 -0.7774  1.1669
 4572SOL     OW15869   9.210   8.616   1.336  0.4600 -0.4425 -0.0470
 4572SOL    HW115870   9.258   8.548   1.289 -0.0812  0.7100 -2.4189
 4572SOL    HW215871   9.125   8.577   1.355  1.4163 -1.6751  2.0709
 4573SOL     OW15872   4.359   6.968   8.949 -0.3926  0.0315 -0.3297
 4573SOL    HW115873   4.372   6.963   8.854  0.5984 -0.8145 -0.1714
 4573SOL    HW215874   4.384   7.057   8.972  0.0383  0.0367 -0.7906
 4574SOL     OW15875   4.930   0.644   4.874  0.0876  0.4424  0.3401
 4574SOL    HW115876   5.004   0.660   4.816 -0.8213  0.3920 -0.8589
 4574SOL    HW215877   4.967   0.595   4.947  1.4947  1.5921  0.4400
 4575SOL     OW15878   3.488   4.191   7.888 -0.3398  0.0756 -0.2754
 4575SOL    HW115879   3.415   4.253   7.887 -0.3999  0.0215  0.3134
 4575SOL    HW215880   3.468   4.131   7.959  0.2636  0.0397 -0.1269
 4576SOL     OW15881   3.329   8.774   9.267 -0.5578  0.1497 -0.3098
 4576SOL    HW115882   3.271   8.781   9.343 -0.0503 -0.1936  0.1155
 4576SOL    HW215883   3.404   8.723   9.298  1.1678  2.6156 -0.1208
 4577SOL     OW15884   6.083   3.330   0.056 -0.4715 -0.5824  0.2322
 4577SOL    HW115885   6.063   3.279   0.135  1.8837  0.3302  1.5300
 4577SOL    HW215886   6.024   3.405   0.061 -0.8494 -0.8984  0.7321
 4578SOL     OW15887   6.528   5.263   8.368 -0.0750  0.5219  0.5250
 4578SOL    HW115888   6.553   5.321   8.440  0.1975  0.4907  0.4571
 4578SOL    HW215889   6.608   5.253   8.316 -0.1883  0.2948  0.3912
 4579SOL     OW15890   4.751   0.779   4.152  0.3618 -0.2419 -0.4655
 4579SOL    HW115891   4.685   0.728   4.105 -1.0017 -1.1193  2.2339
 4579SOL    HW215892   4.828   0.722   4.155 -0.4535 -1.3088  0.7034
 4580SOL     OW15893   8.714   8.345   5.376 -0.0442 -0.0880 -0.0330
 4580SOL    HW115894   8.664   8.399   5.315 -0.2622  0.8144  0.9199
 4580SOL    HW215895   8.654   8.330   5.450  0.5572 -0.2984  0.4235
 4581SOL     OW15896   7.224   8.033   4.351  0.0109  0.2657 -0.4930
 4581SOL    HW115897   7.196   7.957   4.301  1.6891 -1.3155  0.8652
 4581SOL    HW215898   7.203   8.108   4.294 -4.4015 -0.8380 -0.6849
 4582SOL     OW15899   1.445   8.071   7.563 -0.0036 -0.3674 -0.3469
 4582SOL    HW115900   1.478   8.018   7.636  2.0588  0.8666 -0.3020
 4582SOL    HW215901   1.484   8.032   7.485 -0.6665 -0.5232 -0.6103
 4583SOL     OW15902   7.259   2.154   9.282 -0.4541 -0.1067 -0.0426
 4583SOL    HW115903   7.317   2.227   9.306  0.9034 -1.1008 -0.1645
 4583SOL    HW215904   7.279   2.086   9.346 -2.1298 -0.2000  0.4380
 4584SOL     OW15905   4.436   5.397   8.145 -0.0881 -0.0693  0.2672
 4584SOL    HW115906   4.478   5.393   8.059  2.1083 -1.2733  1.2835
 4584SOL    HW215907   4.509   5.391   8.207 -1.4097  2.5225  2.2769
 4585SOL     OW15908   2.762   9.095   8.204 -0.1914 -0.2450  0.2066
 4585SOL    HW115909   2.763   9.070   8.296  1.6850 -1.9452 -0.2019
 4585SOL    HW215910   2.694   9.039   8.164  0.2509 -0.8334  0.2612
 4586SOL     OW15911   6.704   6.769   8.678 -0.1265  0.2939  0.1888
 4586SOL    HW115912   6.778   6.829   8.668 -0.3181  0.3458 -1.0084
 4586SOL    HW215913   6.737   6.684   8.648 -0.1313 -0.0159  1.0207
 4587SOL     OW15914   8.216   0.714   6.940 -0.5833  0.3534  0.1184
 4587SOL    HW115915   8.158   0.704   7.015 -0.1863 -0.3702  0.3333
 4587SOL    HW215916   8.269   0.791   6.961 -2.8793  2.3785 -1.0441
 4588SOL     OW15917   2.927   1.720   9.514 -0.1693  0.6909 -0.0412
 4588SOL    HW115918   2.843   1.721   9.468 -0.0447 -0.4288 -0.3188
 4588SOL    HW215919   2.908   1.760   9.599 -0.6778  1.6329 -0.5792
 4589SOL     OW15920   7.578   5.019   7.248 -0.4759 -0.0018  0.4286
 4589SOL    HW115921   7.548   5.097   7.295 -2.2677 -1.0289  1.0635
 4589SOL    HW215922   7.635   5.053   7.179 -3.9994  2.2671 -1.6946
 4590SOL     OW15923   8.153   3.032   0.387  0.0907  0.1893  0.0251
 4590SOL    HW115924   8.137   3.043   0.481 -2.2130  2.6885 -0.5266
 4590SOL    HW215925   8.237   3.075   0.372  0.5782 -0.3996  0.9237
 4591SOL     OW15926   4.150   4.301   0.171  0.1882  0.3316 -0.0279
 4591SOL    HW115927   4.219   4.336   0.228 -0.4154 -0.3427  1.1581
 4591SOL    HW215928   4.169   4.207   0.167 -0.2376  0.2574 -0.2878
 4592SOL     OW15929   2.462   2.592   9.052  0.0790  0.0683  0.2537
 4592SOL    HW115930   2.463   2.530   8.979  1.9105 -0.2352  0.4859
 4592SOL    HW215931   2.402   2.661   9.024 -0.6521 -0.9266 -0.7471
 4593SOL     OW15932   3.663   6.724   3.296 -0.5730  0.1860 -0.3107
 4593SOL    HW115933   3.758   6.732   3.303 -0.3484 -2.0753  0.0376
 4593SOL    HW215934   3.650   6.643   3.245 -2.2749 -1.0916  1.9832
 4594SOL     OW15935   4.129   5.840   8.009 -0.1118  0.5098  0.6697
 4594SOL    HW115936   4.162   5.928   7.988 -0.2427  0.4072  0.0329
 4594SOL    HW215937   4.167   5.821   8.095 -0.0642  1.1817  0.8038
 4595SOL     OW15938   0.029   6.224   6.057 -0.1385 -0.2185 -0.5038
 4595SOL    HW115939   0.076   6.190   5.980  0.0783  1.4340 -1.1331
 4595SOL    HW215940  -0.030   6.290   6.022 -0.4620  0.1538  0.7048
 4596SOL     OW15941   4.767   4.893   3.273  0.2470 -0.3703  0.1694
 4596SOL    HW115942   4.759   4.836   3.349 -2.4113 -1.8447 -1.0645
 4596SOL    HW215943   4.786   4.834   3.200 -2.1368  0.2446 -1.0728
 4597SOL     OW15944   8.059   1.058   1.999  0.3571  0.5050 -0.1675
 4597SOL    HW115945   7.998   1.054   1.926  0.6132 -1.7599 -0.3088
 4597SOL    HW215946   8.146   1.063   1.959  0.5614 -1.6334 -0.1144
 4598SOL     OW15947   6.269   0.210   2.338 -0.1071  0.3910 -0.3121
 4598SOL    HW115948   6.306   0.286   2.383  1.1826  1.2376 -2.6514
 4598SOL    HW215949   6.179   0.236   2.317  0.4279  1.4428 -1.3963
 4599SOL     OW15950   6.179   7.989   6.952  0.5940  0.2146 -0.6583
 4599SOL    HW115951   6.136   8.032   6.879 -2.0051 -1.4837 -0.2696
 4599SOL    HW215952   6.162   7.896   6.938  0.7273 -0.2224  1.6474
 4600SOL     OW15953   6.385   6.151   7.134 -0.3988  0.2027  0.4200
 4600SOL    HW115954   6.408   6.244   7.134 -1.5844  0.5139  0.4849
 4600SOL    HW215955   6.354   6.134   7.045  0.4035 -0.3041  0.2206
 4601SOL     OW15956   0.843   8.667   5.515 -0.0461 -0.2017  0.4551
 4601SOL    HW115957   0.892   8.593   5.479  0.1728 -0.5030  1.3505
 4601SOL    HW215958   0.910   8.724   5.553 -0.2038  0.5134 -0.3062
 4602SOL     OW15959   4.996   4.315   6.188  0.2633  0.0481  0.1763
 4602SOL    HW115960   5.013   4.225   6.216 -0.9837 -0.9903 -2.1177
 4602SOL    HW215961   4.919   4.342   6.237  0.8487  0.0351  1.1361
 4603SOL     OW15962   7.961   6.084   0.636  0.3325  0.6455  0.3303
 4603SOL    HW115963   8.018   6.153   0.603 -0.0168 -0.0803 -1.9807
 4603SOL    HW215964   8.019   6.027   0.687  1.1962  1.1453 -0.0741
 4604SOL     OW15965   3.006   6.766   0.691 -0.0536 -0.0905  0.1799
 4604SOL    HW115966   2.941   6.835   0.680 -0.3086  0.0184  2.0421
 4604SOL    HW215967   3.073   6.804   0.748  0.9617 -0.6597 -0.5925
 4605SOL     OW15968   8.232   0.969   7.256  0.0161 -0.3561  0.4346
 4605SOL    HW115969   8.143   1.001   7.237  0.0096 -0.9931 -0.6567
 4605SOL    HW215970   8.231   0.877   7.230  0.3558 -0.9960  2.5504
 4606SOL     OW15971   4.828   0.948   7.776 -0.7259  0.3783 -0.1103
 4606SOL    HW115972   4.807   0.919   7.687 -1.3820  3.1219 -0.9370
 4606SOL    HW215973   4.752   0.997   7.804 -0.0780  0.4920  1.5686
 4607SOL     OW15974   9.370   4.048   2.948  0.5800 -0.4065 -0.6703
 4607SOL    HW115975   9.345   4.004   3.029  4.1266  1.1262  1.5238
 4607SOL    HW215976   9.327   4.133   2.953  1.7142  0.1446  0.3105
 4608SOL     OW15977   4.945   6.310   4.015 -0.0770  0.6020  0.1567
 4608SOL    HW115978   4.942   6.384   4.076  0.3680  0.4863  0.3235
 4608SOL    HW215979   4.928   6.349   3.929 -3.5459  0.4026  0.6096
 4609SOL     OW15980   6.384   6.679   3.695  0.0650  0.5082 -0.2859
 4609SOL    HW115981   6.418   6.608   3.641 -0.8102 -0.9862  1.0386
 4609SOL    HW215982   6.421   6.663   3.782 -0.5857  1.3650  0.1637
 4610SOL     OW15983   7.922   1.135   8.431 -0.3302 -0.2662 -0.2672
 4610SOL    HW115984   7.850   1.198   8.426 -0.4978 -0.5164 -1.3299
 4610SOL    HW215985   7.933   1.105   8.340  2.1304  0.8740 -0.4236
 4611SOL     OW15986   4.415   6.800   7.901 -0.2587 -1.0626  0.0555
 4611SOL    HW115987   4.396   6.790   7.807 -1.3907  1.3449 -0.0467
 4611SOL    HW215988   4.440   6.892   7.911  0.2133 -1.3683  2.0754
 4612SOL     OW15989   0.411   5.694   8.642 -0.4386 -0.2519  0.4446
 4612SOL    HW115990   0.359   5.664   8.716  0.0774  2.8192  2.2011
 4612SOL    HW215991   0.358   5.761   8.600  0.7261  0.5922  0.2625
 4613SOL     OW15992   9.050   9.267   8.473  0.0572  0.1632 -0.8180
 4613SOL    HW115993   9.145   9.267   8.484 -0.0906 -1.1755  0.9444
 4613SOL    HW215994   9.017   9.310   8.551 -0.7980 -0.0147 -1.0737
 4614SOL     OW15995   5.129   3.799   8.073  0.6441 -0.1206 -0.3391
 4614SOL    HW115996   5.165   3.738   8.009 -0.3410  0.3474 -1.3874
 4614SOL    HW215997   5.205   3.847   8.106  1.1871 -0.4221 -1.1226
 4615SOL     OW15998   1.302   7.970   6.019  0.0449  0.2707 -0.8163
 4615SOL    HW115999   1.239   7.906   5.989  1.1147 -0.6704 -1.1105
 4615SOL    HW216000   1.356   7.923   6.082  0.0178  1.2580 -0.0232
 4616SOL     OW16001   9.153   1.098   0.975  0.1060  0.1819 -0.4843
 4616SOL    HW116002   9.184   1.011   0.999  1.6483  1.0586  0.9193
 4616SOL    HW216003   9.104   1.128   1.051  3.3425  2.2023  1.0225
 4617SOL     OW16004   4.826   0.515   6.620 -0.0703  0.1451  0.3616
 4617SOL    HW116005   4.758   0.521   6.687 -0.1185 -0.1883  0.3481
 4617SOL    HW216006   4.904   0.484   6.668  0.6709  2.4591  0.7735
 4618SOL     OW16007   7.240   7.401   4.125 -0.6527 -0.1953  0.0653
 4618SOL    HW116008   7.179   7.351   4.180  0.6167 -3.3406 -1.1265
 4618SOL    HW216009   7.217   7.376   4.035  1.4492 -0.3474 -0.4773
 4619SOL     OW16010   5.289   7.458   6.797  0.1815  0.1344 -0.1762
 4619SOL    HW116011   5.206   7.492   6.830  1.1407 -0.2103  2.8250
 4619SOL    HW216012   5.341   7.536   6.777 -0.3949  0.3440 -0.9212
 4620SOL     OW16013   4.099   0.271   4.651  0.5912  0.4096 -0.1755
 4620SOL    HW116014   4.046   0.318   4.586 -1.4118 -0.3827  0.7968
 4620SOL    HW216015   4.126   0.191   4.607 -1.0652 -0.2986  0.0145
 4621SOL     OW16016   7.065   8.919   0.308  0.3102  0.1356 -0.3791
 4621SOL    HW116017   7.118   8.873   0.374 -0.5004  0.0727  0.2539
 4621SOL    HW216018   6.976   8.887   0.324 -0.0421  0.8564 -0.8777
 4622SOL     OW16019   3.307   1.178   7.408  0.6034  0.4495 -0.2746
 4622SOL    HW116020   3.397   1.179   7.442  0.3116  0.0747  0.5543
 4622SOL    HW216021   3.310   1.114   7.337  1.0233  0.5232 -0.3279
 4623SOL     OW16022   2.062   5.304   8.750  0.7139 -0.3610  0.3968
 4623SOL    HW116023   2.069   5.226   8.805  0.1096 -0.1081  0.8462
 4623SOL    HW216024   2.053   5.270   8.661 -0.2797 -0.8239  0.6615
 4624SOL     OW16025   8.462   8.286   4.175 -0.4573  0.6023 -0.5813
 4624SOL    HW116026   8.495   8.234   4.248  0.0468  2.9389  0.9838
 4624SOL    HW216027   8.368   8.267   4.172 -0.3593 -0.0401  0.2263
 4625SOL     OW16028   0.213   6.975   5.536 -0.1897 -0.2679  0.5248
 4625SOL    HW116029   0.306   6.956   5.521  0.1214 -0.3099  2.2495
 4625SOL    HW216030   0.195   7.050   5.480  0.7482 -0.5941 -0.2430
 4626SOL     OW16031   1.799   3.454   3.003 -0.2166  0.2052 -0.2630
 4626SOL    HW116032   1.718   3.505   2.996 -0.1865  0.1937 -0.7203
 4626SOL    HW216033   1.809   3.414   2.917 -1.1463 -1.9485  0.5552
 4627SOL     OW16034   1.121   6.086   5.941 -0.4511  0.3386 -0.3062
 4627SOL    HW116035   1.078   6.023   6.000 -1.7964  0.3467 -1.2314
 4627SOL    HW216036   1.194   6.121   5.992 -0.4124 -1.0720  0.6614
 4628SOL     OW16037   8.476   3.016   3.651 -0.0649 -0.2532 -0.1853
 4628SOL    HW116038   8.393   2.987   3.689  0.5164  0.1401  1.5166
 4628SOL    HW216039   8.468   3.112   3.647  0.1880 -0.2334 -0.2535
 4629SOL     OW16040   6.878   9.031   8.430 -0.0340  0.0953 -0.1307
 4629SOL    HW116041   6.917   8.982   8.502  0.6722  1.3588  0.3770
 4629SOL    HW216042   6.920   9.117   8.434 -1.1128  0.6934 -1.0997
 4630SOL     OW16043   8.588   8.020   2.287  0.6225 -0.1176 -0.1019
 4630SOL    HW116044   8.577   8.012   2.382  0.0076  1.3111 -0.0265
 4630SOL    HW216045   8.648   8.094   2.276  0.6021 -0.2006 -0.8354
 4631SOL     OW16046   8.961   5.797   4.960 -0.3124 -0.5245  0.1273
 4631SOL    HW116047   9.022   5.862   4.926 -1.6567  0.5051 -0.3818
 4631SOL    HW216048   8.905   5.845   5.022 -2.0972 -0.8556 -1.1410
 4632SOL     OW16049   3.801   7.549   3.031  0.4524 -0.2052 -0.3138
 4632SOL    HW116050   3.716   7.523   3.067 -0.3799  1.9611 -0.5802
 4632SOL    HW216051   3.859   7.549   3.107  0.5327 -2.6877 -0.2931
 4633SOL     OW16052   7.837   8.277   3.009  0.1365 -0.2931 -0.0696
 4633SOL    HW116053   7.922   8.305   2.974  0.1822 -0.3669 -0.0158
 4633SOL    HW216054   7.846   8.286   3.104  0.2151 -0.6726 -0.0394
 4634SOL     OW16055   8.818   6.406   2.486  0.1902  0.1227 -0.8870
 4634SOL    HW116056   8.860   6.478   2.533  0.4696  0.3371 -1.4507
 4634SOL    HW216057   8.819   6.333   2.548 -2.4373  1.2904  0.6603
 4635SOL     OW16058   3.550   1.085   5.069  0.3650 -0.7858 -0.3139
 4635SOL    HW116059   3.596   1.017   5.117  1.5857  0.2509  0.0495
 4635SOL    HW216060   3.459   1.080   5.099  0.7288 -1.3653  0.7122
 4636SOL     OW16061   8.389   4.260   2.117  0.4386 -0.0189 -0.1690
 4636SOL    HW116062   8.434   4.317   2.055 -0.4382  0.6667 -0.1885
 4636SOL    HW216063   8.322   4.215   2.065 -0.7509  1.0628  0.3850
 4637SOL     OW16064   0.646   5.058   8.945 -0.1086  0.5184 -0.5998
 4637SOL    HW116065   0.656   5.137   8.892 -0.8163  0.7585 -0.3786
 4637SOL    HW216066   0.576   5.078   9.006  0.1425 -0.0550 -0.1095
 4638SOL     OW16067   6.941   7.001   0.015  0.3288  0.4782 -0.2779
 4638SOL    HW116068   6.998   7.036   0.084 -1.3062  1.6844  0.5424
 4638SOL    HW216069   7.001   6.964  -0.049  2.1071  2.5714  0.0373
 4639SOL     OW16070   7.606   2.218   2.958  0.7988 -0.5150 -0.1244
 4639SOL    HW116071   7.677   2.154   2.954 -0.6494 -2.2553  0.6660
 4639SOL    HW216072   7.630   2.276   3.030  2.1102 -0.1173 -0.8307
 4640SOL     OW16073   1.757   9.463   2.261 -0.2127  0.2001 -0.1945
 4640SOL    HW116074   1.846   9.445   2.231  0.0400  1.7117 -0.4712
 4640SOL    HW216075   1.700   9.411   2.203  0.4021  0.9080 -1.4747
 4641SOL     OW16076   5.981   3.808   2.759  0.3123  0.4984 -0.2393
 4641SOL    HW116077   5.969   3.853   2.843  2.5002 -0.9828  0.9634
 4641SOL    HW216078   6.009   3.877   2.699 -2.3398  1.7963 -0.1509
 4642SOL     OW16079   2.820   6.834   0.435  0.1347  0.1904  0.1987
 4642SOL    HW116080   2.742   6.781   0.445 -0.1204  0.4764 -0.2592
 4642SOL    HW216081   2.824   6.885   0.516 -0.3934  0.4860  0.0430
 4643SOL     OW16082   7.705   6.671   4.504 -0.0018 -0.2496 -0.1343
 4643SOL    HW116083   7.754   6.598   4.542 -0.6922 -0.2345  0.8331
 4643SOL    HW216084   7.768   6.716   4.448  0.4740 -1.5090 -0.6583
 4644SOL     OW16085   5.172   8.030   1.754 -0.2068 -0.5930 -0.1326
 4644SOL    HW116086   5.088   8.029   1.800  0.8502 -0.2762  1.8773
 4644SOL    HW216087   5.175   8.116   1.712 -1.2300 -0.9350 -0.9776
 4645SOL     OW16088   1.398   6.164   3.498  0.1886 -0.0105  0.5493
 4645SOL    HW116089   1.453   6.152   3.575  0.8529  1.2354  0.2904
 4645SOL    HW216090   1.457   6.153   3.424 -0.7270 -2.7351  0.1012
 4646SOL     OW16091   1.400   5.341   9.223  0.3039  0.2661 -0.4714
 4646SOL    HW116092   1.362   5.254   9.210  0.8803  0.0836 -0.9657
 4646SOL    HW216093   1.326   5.401   9.212  0.3655  0.0067 -2.7397
 4647SOL     OW16094   8.855   7.030   5.663 -0.1633 -0.0859  0.0987
 4647SOL    HW116095   8.857   6.955   5.603 -0.7751 -0.7636  0.9121
 4647SOL    HW216096   8.885   6.994   5.747 -0.9434  0.4603  0.6208
 4648SOL     OW16097   1.080   1.520   0.299  0.9440  0.0165 -0.0497
 4648SOL    HW116098   1.138   1.527   0.375  0.3099 -0.2478  0.4734
 4648SOL    HW216099   0.993   1.543   0.334  0.4799 -1.0497 -0.4777
 4649SOL     OW16100   3.558   7.558   2.538 -0.1544  0.0108 -0.1461
 4649SOL    HW116101   3.574   7.564   2.632  0.3266  2.0940 -0.3196
 4649SOL    HW216102   3.463   7.552   2.530 -0.1762 -0.6684  0.4596
 4650SOL     OW16103   5.739   5.499   1.470  0.2036 -0.2050 -0.3746
 4650SOL    HW116104   5.772   5.588   1.459  1.7269 -0.8482 -1.3142
 4650SOL    HW216105   5.647   5.504   1.443  1.0500  0.4892 -3.4883
 4651SOL     OW16106   2.844   4.218   8.644 -0.0137 -0.3085 -0.7451
 4651SOL    HW116107   2.938   4.212   8.628 -0.0068 -1.7952 -0.2495
 4651SOL    HW216108   2.821   4.307   8.617  1.7060  0.4204  0.0149
 4652SOL     OW16109   2.236   0.321   2.807  0.5396 -0.3031  0.2580
 4652SOL    HW116110   2.217   0.316   2.900  0.0352 -1.1409  0.1158
 4652SOL    HW216111   2.153   0.346   2.766  0.7627  0.0858  0.0334
 4653SOL     OW16112   5.094   5.160   0.334  0.4302 -0.1133  0.2342
 4653SOL    HW116113   5.108   5.230   0.269 -0.0304 -0.3498 -0.1218
 4653SOL    HW216114   5.182   5.123   0.347  0.6559  0.4426  0.3267
 4654SOL     OW16115   7.073   1.967   5.507 -0.2784  0.1516 -0.0581
 4654SOL    HW116116   7.050   2.057   5.481 -0.9367 -0.1345 -0.4996
 4654SOL    HW216117   7.155   1.950   5.461  0.4689  0.9293  0.9477
 4655SOL     OW16118   0.801   3.146   1.609 -0.0275  0.0734 -0.4038
 4655SOL    HW116119   0.806   3.099   1.692 -3.0170 -1.5980 -1.0145
 4655SOL    HW216120   0.864   3.102   1.552 -1.4346 -2.1081 -0.3972
 4656SOL     OW16121   4.445   2.802   4.301 -0.0730  0.0028 -0.1686
 4656SOL    HW116122   4.356   2.838   4.300  0.4567  1.3630 -0.4123
 4656SOL    HW216123   4.479   2.825   4.388  0.3640  0.3568 -0.4263
 4657SOL     OW16124   4.121   9.326   7.853 -0.1920 -0.4724 -0.5180
 4657SOL    HW116125   4.114   9.356   7.762 -1.6674 -2.2683 -1.0668
 4657SOL    HW216126   4.033   9.297   7.876  0.5499 -1.8118  0.8271
 4658SOL     OW16127   5.311   1.410   1.506  0.1669 -0.0684 -0.0530
 4658SOL    HW116128   5.388   1.423   1.561  0.3235  0.7340 -0.4462
 4658SOL    HW216129   5.329   1.461   1.426 -0.7426  0.1030 -0.1687
 4659SOL     OW16130   7.518   4.375   4.922 -0.1099  0.1066 -0.0773
 4659SOL    HW116131   7.437   4.332   4.896  0.0803  0.1417 -0.7310
 4659SOL    HW216132   7.490   4.462   4.951 -0.3966 -0.1634  0.4934
 4660SOL     OW16133   8.139   6.151   3.128  1.2585  0.3275  0.3612
 4660SOL    HW116134   8.212   6.109   3.173  1.6118  1.8541  1.2835
 4660SOL    HW216135   8.138   6.241   3.162  1.1134  1.3775 -2.1755
 4661SOL     OW16136   5.714   5.565   7.801  0.7340 -0.1729  0.3613
 4661SOL    HW116137   5.727   5.543   7.708 -0.6940 -0.4457  0.1917
 4661SOL    HW216138   5.708   5.661   7.802  0.1940 -0.1974  0.0750
 4662SOL     OW16139   1.654   0.412   0.848 -0.1609 -0.2920  0.1578
 4662SOL    HW116140   1.672   0.498   0.810 -1.1436  0.0833  0.4967
 4662SOL    HW216141   1.718   0.404   0.919 -1.4700  1.1769  1.5888
 4663SOL     OW16142   6.271   2.000   1.983 -0.5688  0.0327  0.3865
 4663SOL    HW116143   6.208   2.052   2.032 -1.8953  2.7797 -3.7811
 4663SOL    HW216144   6.356   2.040   2.004 -0.6309 -0.7541  2.4692
 4664SOL     OW16145   3.921   5.834   1.935 -0.5666 -0.2026  0.0099
 4664SOL    HW116146   3.926   5.862   2.027 -0.7091  0.3699 -0.1538
 4664SOL    HW216147   3.848   5.772   1.934 -1.3213  0.6585  0.0737
 4665SOL     OW16148   4.084   4.494   3.899  0.6868 -0.5050  0.4986
 4665SOL    HW116149   4.151   4.427   3.890  0.8835 -0.2661  0.1778
 4665SOL    HW216150   4.003   4.450   3.873  0.7599 -0.7132  0.6194
 4666SOL     OW16151   7.127   3.275   0.487 -0.3610  0.4057  0.1960
 4666SOL    HW116152   7.073   3.213   0.536  0.4107 -1.5865 -1.3115
 4666SOL    HW216153   7.065   3.338   0.450 -1.1125  0.9523  2.2659
 4667SOL     OW16154   0.514   0.214   2.684  0.1961  0.5621 -0.3787
 4667SOL    HW116155   0.538   0.230   2.593  0.7411  0.8047 -0.1968
 4667SOL    HW216156   0.435   0.159   2.679  0.3466  0.3943 -0.9911
 4668SOL     OW16157   9.443   8.064   4.191 -0.3085 -0.2714  0.2816
 4668SOL    HW116158   9.408   8.049   4.104 -1.8750 -1.8076  1.1183
 4668SOL    HW216159   9.494   7.985   4.210  2.6680  1.3524 -0.3834
 4669SOL     OW16160   2.288   4.045   2.218  0.1609 -0.0919 -0.3593
 4669SOL    HW116161   2.288   3.958   2.258 -2.3923  0.5230  1.3055
 4669SOL    HW216162   2.285   4.029   2.124 -1.2738 -1.8757 -0.0666
 4670SOL     OW16163   0.873   8.808   6.727 -0.6062  0.2962  0.3042
 4670SOL    HW116164   0.941   8.741   6.720 -1.1489 -0.2669  0.3830
 4670SOL    HW216165   0.904   8.879   6.671  0.4073  0.3562  0.9084
 4671SOL     OW16166   6.818   7.802   8.476 -0.1566 -0.1599  0.0865
 4671SOL    HW116167   6.838   7.708   8.476 -1.6350 -0.6258 -2.8707
 4671SOL    HW216168   6.728   7.807   8.508 -0.0524  0.2606  0.3176
 4672SOL     OW16169   9.349   5.309   8.731 -0.7218 -0.1692 -0.5868
 4672SOL    HW116170   9.271   5.276   8.776 -1.4471  1.4455 -0.5820
 4672SOL    HW216171   9.320   5.391   8.689  0.7679  0.0518 -1.2665
 4673SOL     OW16172   6.872   8.695   4.731 -1.0576  0.2324  0.4647
 4673SOL    HW116173   6.857   8.701   4.637  0.2916  1.4844  0.3066
 4673SOL    HW216174   6.864   8.601   4.750  0.6588 -0.3279 -1.2630
 4674SOL     OW16175   5.707   3.141   7.064 -0.0010 -0.3925 -0.2682
 4674SOL    HW116176   5.665   3.099   6.988  0.5033  1.2955 -1.5480
 4674SOL    HW216177   5.647   3.212   7.087  0.5642 -0.0052  0.0040
 4675SOL     OW16178   1.398   0.927   2.429  0.4752  0.2527  0.0546
 4675SOL    HW116179   1.414   0.919   2.523  1.2954 -0.0612 -0.0991
 4675SOL    HW216180   1.477   0.970   2.395 -0.5590  1.9919 -0.2498
 4676SOL     OW16181   8.165   6.409   7.636  0.0125 -0.1504  0.2017
 4676SOL    HW116182   8.127   6.326   7.606  0.2459  0.5159 -2.1113
 4676SOL    HW216183   8.252   6.385   7.666 -0.9700 -1.1761  2.4963
 4677SOL     OW16184   8.306   4.594   2.588  0.1225 -1.1462  0.5059
 4677SOL    HW116185   8.241   4.627   2.526  2.1667 -0.6505 -1.4732
 4677SOL    HW216186   8.353   4.672   2.617  1.1583 -1.6957  0.3357
 4678SOL     OW16187   7.771   1.223   3.209 -0.0515  0.7016  0.2262
 4678SOL    HW116188   7.717   1.199   3.284  1.9920 -2.6007  0.8521
 4678SOL    HW216189   7.731   1.175   3.135  0.2065  0.7669  0.0429
 4679SOL     OW16190   1.575   3.535   7.705  0.1505 -0.0488 -0.4265
 4679SOL    HW116191   1.550   3.589   7.630 -1.3090  0.3118  0.2867
 4679SOL    HW216192   1.503   3.472   7.713  0.6516 -0.5452  0.2331
 4680SOL     OW16193   5.199   3.664   7.849 -0.4764 -0.4261  0.0545
 4680SOL    HW116194   5.265   3.678   7.781  0.4202 -0.4887  0.8999
 4680SOL    HW216195   5.173   3.573   7.839 -2.6949  0.3236 -2.2342
 4681SOL     OW16196   8.279   2.562   5.460 -0.8697  0.0752 -0.1428
 4681SOL    HW116197   8.332   2.487   5.483 -1.2701 -0.1745 -0.0337
 4681SOL    HW216198   8.342   2.632   5.443 -0.4820 -0.3799 -0.5965
 4682SOL     OW16199   2.321   7.389   2.872  0.0722 -0.5038  0.1452
 4682SOL    HW116200   2.345   7.405   2.781 -1.1902  0.1563 -0.0925
 4682SOL    HW216201   2.322   7.476   2.912 -1.9907 -0.4044  0.0777
 4683SOL     OW16202   4.726   8.666   0.161 -0.0779  0.1893 -0.9156
 4683SOL    HW116203   4.696   8.578   0.136 -0.0878 -0.1993  0.3994
 4683SOL    HW216204   4.663   8.695   0.226  1.7839 -0.2663  1.2283
 4684SOL     OW16205   0.744   4.477   7.674  0.0195 -0.3053 -0.3947
 4684SOL    HW116206   0.662   4.500   7.630  0.4725  1.0210 -0.5808
 4684SOL    HW216207   0.729   4.388   7.707 -0.6797 -0.9803 -2.3817
 4685SOL     OW16208   4.595   3.841   5.038 -0.1818  0.0302 -0.1999
 4685SOL    HW116209   4.651   3.875   5.107  1.3402  0.0048 -1.3644
 4685SOL    HW216210   4.584   3.915   4.978 -2.0569  0.2640  0.3662
 4686SOL     OW16211   1.322   4.131   1.202 -0.2422 -0.5267 -0.3990
 4686SOL    HW116212   1.296   4.178   1.281 -0.0476  0.9628 -1.1894
 4686SOL    HW216213   1.402   4.085   1.227  1.9894  2.8561 -0.6160
 4687SOL     OW16214   6.628   7.456   6.575 -0.0831  0.4215 -0.1257
 4687SOL    HW116215   6.633   7.526   6.509 -0.8459  0.7448  0.1457
 4687SOL    HW216216   6.702   7.399   6.555  1.1531  1.8365  0.2457
 4688SOL     OW16217   8.453   1.987   9.113  0.1816  0.1582  1.1394
 4688SOL    HW116218   8.420   2.032   9.190 -0.5824 -1.0735  1.5610
 4688SOL    HW216219   8.529   1.939   9.143 -0.5925 -0.9808  1.3528
 4689SOL     OW16220   6.756   2.256   1.927  0.2574 -0.0176 -0.4778
 4689SOL    HW116221   6.788   2.343   1.902 -0.3344 -0.0895 -1.5677
 4689SOL    HW216222   6.829   2.197   1.906  0.3373  0.1125 -0.5713
 4690SOL     OW16223   0.154   5.816   0.950  0.3352 -0.3130 -0.7084
 4690SOL    HW116224   0.104   5.836   1.029  1.6014 -0.7789  0.2404
 4690SOL    HW216225   0.109   5.864   0.880 -0.3105  0.8007  0.4407
 4691SOL     OW16226   8.615   1.298   5.664 -0.8225 -0.9839  0.5141
 4691SOL    HW116227   8.690   1.263   5.615  0.4509  1.9620  0.1470
 4691SOL    HW216228   8.621   1.257   5.750  1.7644 -0.2832  0.7507
 4692SOL     OW16229   0.666   5.943   4.828  0.7258 -0.1961  0.3808
 4692SOL    HW116230   0.739   5.968   4.771  2.6646 -0.9018  2.4058
 4692SOL    HW216231   0.699   5.867   4.877 -0.7961  0.3573  2.4008
 4693SOL     OW16232   7.953   8.550   3.228  0.3262 -0.0985 -0.3823
 4693SOL    HW116233   7.921   8.461   3.243  0.0892  0.1882  1.0287
 4693SOL    HW216234   8.044   8.539   3.201  0.2066 -0.7808 -0.5212
 4694SOL     OW16235   3.640   7.459   6.315 -0.4695 -0.3750 -0.2110
 4694SOL    HW116236   3.630   7.468   6.410  1.5597 -1.5023  0.1683
 4694SOL    HW216237   3.637   7.365   6.299  0.4594 -0.2753 -1.0796
 4695SOL     OW16238   9.433   8.620   5.796 -0.3068 -0.2279  0.1482
 4695SOL    HW116239   9.472   8.596   5.881 -0.3212  0.4455  0.3566
 4695SOL    HW216240   9.473   8.705   5.776 -2.5414  1.0837  0.9438
 4696SOL     OW16241   8.783   0.615   6.385  0.1185 -0.0261  0.5691
 4696SOL    HW116242   8.703   0.603   6.334  1.6761 -1.9249 -1.6894
 4696SOL    HW216243   8.790   0.537   6.439 -0.0865  0.6559  1.6003
 4697SOL     OW16244   4.176   1.248   5.483  0.0874 -0.0035 -0.5263
 4697SOL    HW116245   4.142   1.185   5.547  1.8500 -1.4218 -0.8773
 4697SOL    HW216246   4.193   1.195   5.405  0.8409  1.0782 -1.1213
 4698SOL     OW16247   2.830   0.026   2.513 -0.3071  0.4774  0.6868
 4698SOL    HW116248   2.769   0.048   2.443  0.7238  0.3270 -0.2800
 4698SOL    HW216249   2.789  -0.050   2.557  0.1742 -1.0153 -1.3012
 4699SOL     OW16250   8.814   8.629   1.170 -0.3618  0.4541  0.3865
 4699SOL    HW116251   8.827   8.723   1.155  0.2302  0.4258  0.7021
 4699SOL    HW216252   8.719   8.617   1.167 -0.4067  0.9200 -0.5003
 4700SOL     OW16253   8.496   6.486   9.622 -0.2889  0.1653  0.2575
 4700SOL    HW116254   8.534   6.565   9.662  1.2635  0.7872 -2.1607
 4700SOL    HW216255   8.458   6.437   9.695  0.6976  2.0602  2.1560
 4701SOL     OW16256   8.508   4.804   5.266 -0.5124  0.3125 -0.5033
 4701SOL    HW116257   8.518   4.771   5.176 -1.2380  0.2481 -0.5660
 4701SOL    HW216258   8.523   4.728   5.321  2.6577  0.8608 -0.4076
 4702SOL     OW16259   3.900   3.549   4.638  0.1506 -0.0856 -0.4385
 4702SOL    HW116260   3.955   3.627   4.642 -1.6472  1.1830  1.1417
 4702SOL    HW216261   3.941   3.488   4.699  0.4176  0.4188 -0.1027
 4703SOL     OW16262   4.826   2.586   1.886 -0.4014 -0.1001 -0.3504
 4703SOL    HW116263   4.909   2.614   1.925 -1.1763  0.4844  0.9615
 4703SOL    HW216264   4.843   2.496   1.858  0.4318 -0.2904  0.6751
 4704SOL     OW16265   8.414   4.450   5.365 -0.0857 -0.0989 -0.3941
 4704SOL    HW116266   8.491   4.494   5.331  0.0533  0.0981  0.1621
 4704SOL    HW216267   8.370   4.415   5.288  0.8666 -0.7158 -0.6743
 4705SOL     OW16268   6.192   5.877   1.296 -0.6898  0.2469 -0.3585
 4705SOL    HW116269   6.190   5.973   1.288 -0.9957  0.2301 -0.4799
 4705SOL    HW216270   6.202   5.861   1.390 -0.8250  0.3938 -0.3191
 4706SOL     OW16271   5.984   8.877   7.272 -0.7480  0.2117 -0.5175
 4706SOL    HW116272   5.939   8.944   7.222 -0.9555 -0.0987 -0.7509
 4706SOL    HW216273   6.076   8.905   7.273 -0.9352  0.8267 -0.0698
 4707SOL     OW16274   3.567   2.264   4.480 -0.9292 -0.1315  0.0558
 4707SOL    HW116275   3.522   2.249   4.563 -0.2195  0.0527  0.4874
 4707SOL    HW216276   3.646   2.210   4.485 -0.8101 -0.0122 -0.4440
 4708SOL     OW16277   6.179   7.069   7.406 -0.2883  0.6606 -0.1483
 4708SOL    HW116278   6.109   7.008   7.382  0.1075  0.3614 -0.5489
 4708SOL    HW216279   6.134   7.153   7.416 -0.7292  0.4449 -0.2741
 4709SOL     OW16280   3.736   0.744   9.231  0.0065  0.2838  0.6807
 4709SOL    HW116281   3.787   0.737   9.151 -0.0218  0.6197  0.6310
 4709SOL    HW216282   3.645   0.737   9.202  0.0370 -1.4741  0.8953
 4710SOL     OW16283   5.803   2.776   8.972 -0.2262  0.3451  0.5306
 4710SOL    HW116284   5.766   2.847   8.919 -1.5755  0.4627  1.5912
 4710SOL    HW216285   5.762   2.786   9.057  0.0128 -1.3700  0.8712
 4711SOL     OW16286   8.622   3.268   4.121 -0.1907  0.2099 -0.3548
 4711SOL    HW116287   8.657   3.357   4.110  0.3868 -0.1091 -1.2512
 4711SOL    HW216288   8.695   3.211   4.094 -0.4718 -0.5397  0.4450
 4712SOL     OW16289   1.782   5.168   9.043  0.4326 -0.0991  0.3927
 4712SOL    HW116290   1.724   5.230   9.087 -0.5074  0.1515 -1.1022
 4712SOL    HW216291   1.811   5.109   9.112 -1.1494  0.1308  1.3127
 4713SOL     OW16292   8.155   5.926   0.731  0.4486 -0.1324  0.6979
 4713SOL    HW116293   8.242   5.959   0.709  0.6729 -0.4415  1.0976
 4713SOL    HW216294   8.169   5.833   0.747 -0.4432 -0.7934 -1.9550
 4714SOL     OW16295   4.691   2.388   7.176 -0.2053  0.1540  0.1910
 4714SOL    HW116296   4.722   2.439   7.251 -0.0743 -0.5992  0.6527
 4714SOL    HW216297   4.611   2.432   7.149  0.3505  1.1114  0.0500
 4715SOL     OW16298   0.534   7.828   4.174 -0.2239 -0.2354 -0.0589
 4715SOL    HW116299   0.528   7.736   4.200  1.0839 -0.3691 -0.1385
 4715SOL    HW216300   0.624   7.852   4.195 -0.6371  1.1216  0.2324
 4716SOL     OW16301   1.584   7.020   7.480  0.4166 -0.1566  0.1975
 4716SOL    HW116302   1.636   6.986   7.408  1.5207  0.9638  0.4223
 4716SOL    HW216303   1.500   7.045   7.441  0.5340 -0.7383 -0.4318
 4717SOL     OW16304   5.418   1.979   1.520 -0.0070 -0.3914 -0.1304
 4717SOL    HW116305   5.492   1.990   1.460 -0.3404 -0.3703 -0.5424
 4717SOL    HW216306   5.341   1.998   1.467 -0.2764  0.1976  0.4528
 4718SOL     OW16307   8.255   0.875   8.033  0.3101  0.4716 -0.5861
 4718SOL    HW116308   8.239   0.926   7.954  1.8130  3.0860  0.6569
 4718SOL    HW216309   8.341   0.836   8.020  0.8722  1.4771 -0.0177
 4719SOL     OW16310   8.040   1.265   8.012  0.0075  0.6992  0.0158
 4719SOL    HW116311   8.117   1.309   7.976  1.1823 -0.1365  1.4392
 4719SOL    HW216312   8.000   1.223   7.936  0.1846  2.2001 -0.9668
 4720SOL     OW16313   5.086   0.887   7.665  0.5362 -0.3207 -0.2657
 4720SOL    HW116314   5.092   0.963   7.607  0.2485 -0.9702 -1.1868
 4720SOL    HW216315   5.026   0.913   7.734 -0.3196 -0.0247 -1.0986
 4721SOL     OW16316   9.255   5.303   3.561 -0.2896 -0.1619 -0.4997
 4721SOL    HW116317   9.269   5.241   3.489  0.3021 -0.0808 -0.4631
 4721SOL    HW216318   9.192   5.260   3.618 -0.5847 -0.3315 -0.9438
 4722SOL     OW16319   4.381   5.306   3.801  0.5126  0.1331  0.0100
 4722SOL    HW116320   4.293   5.287   3.835 -0.4280  2.1043 -1.1165
 4722SOL    HW216321   4.384   5.259   3.718  0.7646 -0.4080  0.3209
 4723SOL     OW16322   2.650   3.028   7.939  0.0019 -0.2719  0.2318
 4723SOL    HW116323   2.666   3.045   8.032 -1.1088  0.6331  0.2905
 4723SOL    HW216324   2.580   3.089   7.916  1.4375  0.7869 -1.6425
 4724SOL     OW16325   0.758   1.407   5.154  0.0051 -0.4613  0.2661
 4724SOL    HW116326   0.819   1.464   5.200 -0.0648  0.8510 -1.1895
 4724SOL    HW216327   0.689   1.388   5.218 -0.2113  1.4789  0.6536
 4725SOL     OW16328   1.605   7.050   0.260 -0.1233 -0.0123 -0.5450
 4725SOL    HW116329   1.672   7.117   0.246 -0.5252  0.3602 -0.6922
 4725SOL    HW216330   1.538   7.069   0.195 -0.1040 -0.7409 -0.7893
 4726SOL     OW16331   2.557   9.303   7.924  0.1675 -0.1499 -0.2452
 4726SOL    HW116332   2.502   9.225   7.916 -3.0841  2.0350 -1.2921
 4726SOL    HW216333   2.628   9.288   7.862 -1.0379 -1.7990 -1.3434
 4727SOL     OW16334   3.270   7.161   5.307 -0.4600  0.4413  0.6371
 4727SOL    HW116335   3.236   7.242   5.271 -1.2634 -0.3014 -0.3472
 4727SOL    HW216336   3.364   7.176   5.317 -0.6952  1.6954  1.0940
 4728SOL     OW16337   6.700   3.631   4.513  0.0559 -0.2233  0.6838
 4728SOL    HW116338   6.720   3.647   4.421 -3.5687 -0.4559 -0.3059
 4728SOL    HW216339   6.692   3.718   4.552 -0.4161 -0.0634  0.2373
 4729SOL     OW16340   0.783   0.228   2.393  0.4583 -0.0140  0.3229
 4729SOL    HW116341   0.826   0.231   2.308  1.5266 -1.1508  0.7903
 4729SOL    HW216342   0.851   0.252   2.456 -0.1645  0.2584  0.9121
 4730SOL     OW16343   6.365   5.488   3.805  0.0390  0.1813  0.1495
 4730SOL    HW116344   6.320   5.570   3.825  1.8471  1.0450  0.8869
 4730SOL    HW216345   6.322   5.456   3.726 -0.4412  2.0614 -0.3984
 4731SOL     OW16346   0.014   5.032   7.115 -0.4836  0.1180 -0.2812
 4731SOL    HW116347  -0.029   5.116   7.098 -0.5397  0.0424 -0.5093
 4731SOL    HW216348   0.090   5.055   7.169  0.5682  0.5537 -1.8750
 4732SOL     OW16349   7.925   6.098   6.297 -0.2504 -0.0947 -0.0782
 4732SOL    HW116350   8.007   6.084   6.345  0.1158  0.7694 -0.4238
 4732SOL    HW216351   7.917   6.193   6.292  0.2571 -0.1195 -2.5891
 4733SOL     OW16352   4.830   6.697   8.407 -0.2516 -0.0800 -0.0514
 4733SOL    HW116353   4.768   6.767   8.426 -0.0984  0.8297 -2.5607
 4733SOL    HW216354   4.810   6.630   8.473 -1.7939  1.4354  1.1379
 4734SOL     OW16355   9.310   2.161   6.735 -0.7676  0.2940 -0.2414
 4734SOL    HW116356   9.338   2.080   6.692  1.8207  0.4887  0.8923
 4734SOL    HW216357   9.281   2.133   6.822  0.3500  0.5696  0.2346
 4735SOL     OW16358   0.582   3.019   7.181  0.6052 -0.6226  0.9302
 4735SOL    HW116359   0.573   3.114   7.190  1.1309 -0.6545  1.9061
 4735SOL    HW216360   0.669   3.008   7.142 -0.0134 -0.6674 -0.5273
 4736SOL     OW16361   0.499   4.269   7.278 -0.1153  1.0514  0.1552
 4736SOL    HW116362   0.519   4.200   7.215 -0.0614  0.3380  0.9412
 4736SOL    HW216363   0.584   4.302   7.305 -0.1280  1.1260  0.1024
 4737SOL     OW16364   8.859   9.527   1.393  0.1663  0.4059  0.1525
 4737SOL    HW116365   8.879   9.549   1.302  0.6214  1.3435  0.4658
 4737SOL    HW216366   8.766   9.548   1.404  0.3363  1.1903  0.1493
 4738SOL     OW16367   2.440   9.359   3.331 -0.1089 -0.0750 -0.0441
 4738SOL    HW116368   2.395   9.393   3.409  0.5542  1.1762 -0.1698
 4738SOL    HW216369   2.370   9.336   3.271 -0.6176 -0.4605  0.6825
 4739SOL     OW16370   4.536   3.512   0.387 -0.5986  0.1656 -0.2618
 4739SOL    HW116371   4.588   3.572   0.335  0.5465 -0.2931  0.3328
 4739SOL    HW216372   4.581   3.428   0.381 -0.2389  0.1696  1.7040
 4740SOL     OW16373   6.244   8.755   8.755  0.2875  0.4881 -0.0258
 4740SOL    HW116374   6.249   8.807   8.835  0.2715  1.9481 -0.9501
 4740SOL    HW216375   6.310   8.793   8.697  1.0752 -1.2532 -0.3408
 4741SOL     OW16376   0.148   9.194   4.349  0.2501 -0.2650 -0.2373
 4741SOL    HW116377   0.099   9.265   4.306  0.8368  0.3887  0.1535
 4741SOL    HW216378   0.166   9.228   4.437  0.3831 -0.9800  0.0170
 4742SOL     OW16379   7.522   5.073   7.742 -0.1269 -0.7762 -0.0271
 4742SOL    HW116380   7.436   5.093   7.704 -0.3684 -0.6306  0.5932
 4742SOL    HW216381   7.581   5.068   7.666 -0.3227  0.8720 -0.3122
 4743SOL     OW16382   3.824   7.724   4.502  0.2198 -0.3922 -0.5024
 4743SOL    HW116383   3.837   7.652   4.441 -2.0147 -0.3586 -1.0874
 4743SOL    HW216384   3.907   7.772   4.501  1.3026 -2.2069 -1.0643
 4744SOL     OW16385   0.436   9.506   1.390 -0.0513 -0.0027 -0.4293
 4744SOL    HW116386   0.365   9.446   1.413 -0.7784  0.3920 -1.5817
 4744SOL    HW216387   0.394   9.592   1.386  1.0611  0.7306  1.6775
 4745SOL     OW16388   2.383   3.908   0.922  0.2035 -0.1267 -0.3627
 4745SOL    HW116389   2.292   3.935   0.932  0.0661 -0.9352  0.7433
 4745SOL    HW216390   2.379   3.831   0.866 -0.1826 -2.1284  2.2490
 4746SOL     OW16391   8.136   1.999   4.151 -0.0111 -0.0465 -0.3222
 4746SOL    HW116392   8.076   2.043   4.210  0.9282  0.0872  0.5504
 4746SOL    HW216393   8.199   2.066   4.125  0.1909 -0.3604 -0.6578
 4747SOL     OW16394   8.392   5.137   8.200  0.3357  0.0062 -0.1187
 4747SOL    HW116395   8.300   5.140   8.224  0.4206 -1.4959  0.5087
 4747SOL    HW216396   8.395   5.083   8.121  0.6376  0.4005 -0.3804
 4748SOL     OW16397   4.987   0.628   0.941 -0.1298  0.7585  0.0066
 4748SOL    HW116398   5.036   0.557   0.982 -0.7162  1.6353  2.4435
 4748SOL    HW216399   4.903   0.628   0.987 -0.3386  2.6665 -0.2870
 4749SOL     OW16400   4.196   1.041   8.449 -0.3121  0.4555  0.2029
 4749SOL    HW116401   4.122   1.100   8.466 -2.1457 -0.3427 -3.8669
 4749SOL    HW216402   4.250   1.088   8.386 -1.2164 -1.5575 -2.2620
 4750SOL     OW16403   8.356   3.504   7.763 -0.0472  0.5885  0.4473
 4750SOL    HW116404   8.264   3.520   7.784 -0.4329  1.6907 -1.7342
 4750SOL    HW216405   8.396   3.591   7.762  1.2474  0.0599  2.0960
 4751SOL     OW16406   7.627   1.552   8.451 -0.6847  0.0425 -0.1113
 4751SOL    HW116407   7.660   1.641   8.450  0.9872 -0.5550 -0.9235
 4751SOL    HW216408   7.606   1.536   8.543  0.7715  0.6655  0.3590
 4752SOL     OW16409   7.251   2.557   4.749  0.8780  0.1052 -0.1577
 4752SOL    HW116410   7.254   2.549   4.844 -1.0159  0.3188 -0.0444
 4752SOL    HW216411   7.265   2.650   4.732 -0.0293  0.2736 -0.0009
 4753SOL     OW16412   0.072   4.107   0.078 -0.0225 -0.2274  0.2231
 4753SOL    HW116413   0.022   4.168   0.024  2.9498  0.6264 -1.7363
 4753SOL    HW216414   0.140   4.160   0.118 -0.1276 -1.4985  2.2332
 4754SOL     OW16415   4.432   6.957   9.314  0.3549 -0.0714  0.4319
 4754SOL    HW116416   4.513   7.003   9.293 -0.8298  0.6482 -3.3115
 4754SOL    HW216417   4.415   6.980   9.405  2.9112  1.9840  0.5310
 4755SOL     OW16418   9.192   3.948   7.672  0.0263 -0.0443  0.5071
 4755SOL    HW116419   9.126   3.883   7.693 -0.2052 -0.3155 -1.0170
 4755SOL    HW216420   9.175   3.973   7.582  0.8203  1.2991  0.6983
 4756SOL     OW16421   4.471   5.359   5.407  0.2490  0.3153 -0.4939
 4756SOL    HW116422   4.435   5.281   5.450  1.1169  0.3009  0.2398
 4756SOL    HW216423   4.470   5.427   5.475 -1.9082  1.4228 -1.5454
 4757SOL     OW16424   3.246   8.404   6.707  0.2014 -0.4136 -0.0666
 4757SOL    HW116425   3.236   8.310   6.697  1.3594 -0.5042 -0.5133
 4757SOL    HW216426   3.295   8.415   6.788  0.0610 -0.1979 -0.0100
 4758SOL     OW16427   5.764   1.808   1.016 -0.0007  0.1482  0.0291
 4758SOL    HW116428   5.819   1.847   1.083 -0.5745  0.6728  0.2020
 4758SOL    HW216429   5.745   1.720   1.049  1.0714 -0.2011 -0.2369
 4759SOL     OW16430   5.221   5.232   4.722 -0.7923  0.8130 -0.3259
 4759SOL    HW116431   5.224   5.168   4.651 -0.7407  0.1954  0.2228
 4759SOL    HW216432   5.178   5.308   4.684  0.8806  1.2103 -1.5844
 4760SOL     OW16433   4.660   2.307   2.629 -0.6503  0.1020 -0.3536
 4760SOL    HW116434   4.606   2.358   2.569 -1.2993  0.0373  0.1641
 4760SOL    HW216435   4.609   2.227   2.644 -0.6998  0.3143  0.6328
 4761SOL     OW16436   0.344   8.200   7.744  0.0251 -0.0538  0.5141
 4761SOL    HW116437   0.267   8.223   7.694  1.2080 -2.1068 -2.5632
 4761SOL    HW216438   0.318   8.122   7.794  0.2166 -1.3026 -1.2192
 4762SOL     OW16439   1.909   2.354   9.430 -0.2224 -0.4930  0.2462
 4762SOL    HW116440   1.930   2.314   9.345 -1.8512 -0.7365 -0.0690
 4762SOL    HW216441   1.955   2.298   9.494  1.0928 -0.2548 -0.4475
 4763SOL     OW16442   5.557   6.423   9.017  0.7186 -0.0171 -0.0885
 4763SOL    HW116443   5.498   6.468   8.957  0.9937  0.7500  0.2133
 4763SOL    HW216444   5.642   6.465   9.003  0.9801 -0.4431  0.1946
 4764SOL     OW16445   7.523   0.055   8.987 -0.3826 -0.5040 -0.0336
 4764SOL    HW116446   7.533  -0.040   8.981  0.0468 -0.8126  3.5152
 4764SOL    HW216447   7.444   0.074   8.935 -1.0576 -2.9217 -0.0148
 4765SOL     OW16448   2.378   6.621   4.985  0.5163  0.3678  0.1783
 4765SOL    HW116449   2.367   6.557   5.055  1.0639  0.8223  0.6875
 4765SOL    HW216450   2.328   6.697   5.013 -1.8204 -0.4885 -1.3444
 4766SOL     OW16451   2.327   8.922   0.467 -0.2452 -0.1488 -0.2399
 4766SOL    HW116452   2.392   8.851   0.471 -0.2614 -0.1780 -0.5315
 4766SOL    HW216453   2.358   8.986   0.532  0.3670  0.0912 -0.7600
 4767SOL     OW16454   9.226   0.517   7.800 -0.4132  0.3413 -0.1148
 4767SOL    HW116455   9.221   0.537   7.706  2.5110 -1.7268 -0.8819
 4767SOL    HW216456   9.311   0.552   7.827  0.1004 -1.6230  0.9933
 4768SOL     OW16457   6.891   9.288   1.918  0.0299 -0.3732 -0.6666
 4768SOL    HW116458   6.833   9.215   1.899 -1.3181  1.2866 -3.7473
 4768SOL    HW216459   6.876   9.308   2.010  0.1778 -3.6362  0.1718
 4769SOL     OW16460   3.655   5.784   5.553  0.2885 -0.4329  0.0528
 4769SOL    HW116461   3.594   5.711   5.559 -0.8023  0.4235 -0.1822
 4769SOL    HW216462   3.652   5.810   5.461  0.0435  0.4012  0.2860
 4770SOL     OW16463   1.325   4.622   0.757 -0.6067 -0.3025  0.1413
 4770SOL    HW116464   1.395   4.675   0.719  0.6495 -2.4856 -0.7158
 4770SOL    HW216465   1.260   4.614   0.687 -0.0218 -1.2487 -0.3015
 4771SOL     OW16466   9.405   8.343   7.121  0.6414  0.0270 -0.3943
 4771SOL    HW116467   9.349   8.352   7.199  2.8881  0.4801  1.3025
 4771SOL    HW216468   9.436   8.253   7.124  0.9731  0.1341 -0.6055
 4772SOL     OW16469   2.740   2.180   8.260 -0.3217 -0.0832 -0.0071
 4772SOL    HW116470   2.658   2.132   8.247 -0.7976  0.5465  0.5966
 4772SOL    HW216471   2.807   2.113   8.269 -0.7511 -0.6027 -0.6561
 4773SOL     OW16472   8.378   4.893   3.639  0.4780  0.5185  0.4059
 4773SOL    HW116473   8.410   4.824   3.581 -1.4934  1.1035 -1.5549
 4773SOL    HW216474   8.428   4.971   3.613  1.4966  0.2264  1.4264
 4774SOL     OW16475   3.458   3.341   3.297 -0.0586 -0.1541 -0.2458
 4774SOL    HW116476   3.424   3.266   3.346  0.5998 -0.7528 -0.6864
 4774SOL    HW216477   3.448   3.415   3.357  0.2690 -0.7910  0.6180
 4775SOL     OW16478   1.458   1.231   3.052  0.3141  0.3917 -0.3693
 4775SOL    HW116479   1.519   1.165   3.018  0.2196  0.3699 -0.4990
 4775SOL    HW216480   1.373   1.188   3.048  0.1894  0.6778 -0.8749
 4776SOL     OW16481   7.913   8.847   4.430 -0.5919 -0.4908  0.0381
 4776SOL    HW116482   7.861   8.927   4.434  0.8260  0.4417  0.9696
 4776SOL    HW216483   7.855   8.782   4.390 -3.1418 -0.0430  2.6530
 4777SOL     OW16484   5.839   1.470   2.977 -0.9191 -0.1299 -0.4985
 4777SOL    HW116485   5.747   1.494   2.966 -1.8593 -2.9781  0.4273
 4777SOL    HW216486   5.867   1.442   2.890 -1.5037 -0.9823 -0.4248
 4778SOL     OW16487   0.726   5.858   0.816  0.3846 -0.1059 -0.3908
 4778SOL    HW116488   0.752   5.866   0.908  1.0779 -1.2463 -0.4762
 4778SOL    HW216489   0.651   5.918   0.807  0.4257  0.1573  0.8584
 4779SOL     OW16490   6.005   2.003   1.642 -0.2680 -0.4223 -0.7028
 4779SOL    HW116491   5.918   1.983   1.676  0.5955 -1.2129  1.2274
 4779SOL    HW216492   6.064   1.948   1.694  1.2961 -0.8718 -2.8011
 4780SOL     OW16493   5.201   8.786   7.754 -0.8826  0.2141  0.0167
 4780SOL    HW116494   5.237   8.753   7.837  0.2135  0.9877 -0.1284
 4780SOL    HW216495   5.149   8.862   7.779 -0.2283  0.6871 -0.0256
 4781SOL     OW16496   8.910   4.570   5.754  0.0066  0.2447  0.7166
 4781SOL    HW116497   8.889   4.477   5.749 -1.2093  0.2835  3.5198
 4781SOL    HW216498   8.859   4.610   5.683 -0.2795 -1.0782  0.1503
 4782SOL     OW16499   2.978   4.879   9.327 -0.1012  0.0301  0.2034
 4782SOL    HW116500   2.984   4.942   9.398  0.0692 -1.7120  1.7931
 4782SOL    HW216501   3.024   4.922   9.254  0.1142  1.6698  1.2413
 4783SOL     OW16502   1.739   1.842   4.704  0.3790 -0.2618  0.0639
 4783SOL    HW116503   1.797   1.908   4.742 -0.4213  0.3806  0.1855
 4783SOL    HW216504   1.777   1.822   4.619 -0.0676  1.2988 -0.5216
 4784SOL     OW16505   1.342   3.629   7.591 -0.1924  0.1499 -0.3334
 4784SOL    HW116506   1.314   3.687   7.662 -1.1899 -0.0401 -0.5502
 4784SOL    HW216507   1.273   3.639   7.524 -0.6298 -1.6036 -0.1918
 4785SOL     OW16508   8.182   6.828   8.545  0.2802  0.0895  0.5594
 4785SOL    HW116509   8.197   6.915   8.507  2.1949 -0.7644 -0.8027
 4785SOL    HW216510   8.138   6.779   8.476 -0.9482 -0.0241  1.3850
 4786SOL     OW16511   4.973   0.702   3.986 -0.3159  0.4292 -0.2999
 4786SOL    HW116512   4.927   0.624   3.952 -1.0411  1.1645 -1.0606
 4786SOL    HW216513   5.040   0.667   4.044  0.3038 -0.8661 -1.7101
 4787SOL     OW16514   4.133   8.958   4.602  0.6762  0.1876  0.1693
 4787SOL    HW116515   4.107   8.959   4.509  1.3501 -0.3365 -0.0293
 4787SOL    HW216516   4.209   8.901   4.605 -0.4349 -1.3007  1.3361
 4788SOL     OW16517   0.826   1.920   2.773  0.4753 -0.0623  0.7318
 4788SOL    HW116518   0.917   1.940   2.792  0.3736  0.2258  0.9273
 4788SOL    HW216519   0.808   1.966   2.691  0.2061  0.7671  1.2461
 4789SOL     OW16520   1.558   5.349   0.666 -0.1686  0.2664 -0.1173
 4789SOL    HW116521   1.502   5.313   0.735  1.4218  1.1780  1.7322
 4789SOL    HW216522   1.521   5.436   0.648 -0.8047 -0.1154 -0.7274
 4790SOL     OW16523   3.487   9.512   5.141  0.3350  0.0531  0.6618
 4790SOL    HW116524   3.403   9.557   5.152 -0.8418 -1.6466 -0.7856
 4790SOL    HW216525   3.511   9.485   5.230 -0.5434  0.7502  1.1276
 4791SOL     OW16526   7.414   1.032   2.383 -0.3538 -0.5182 -0.6481
 4791SOL    HW116527   7.505   1.046   2.360 -0.0384 -0.9681  0.2486
 4791SOL    HW216528   7.406   1.064   2.473 -1.8336  2.3625 -1.6798
 4792SOL     OW16529   1.117   7.230   4.331 -0.2617 -0.1688  0.6139
 4792SOL    HW116530   1.130   7.168   4.259 -0.7968 -0.0536  0.4064
 4792SOL    HW216531   1.191   7.215   4.389  0.0892 -0.3852  0.1237
 4793SOL     OW16532   0.907   7.932   2.110  0.2212  0.0278  0.3540
 4793SOL    HW116533   0.903   7.903   2.018  3.1498 -3.3670  1.0821
 4793SOL    HW216534   0.880   7.856   2.161  0.2112  1.3210  2.4043
 4794SOL     OW16535   4.351   1.511   3.710  0.1545 -0.0163 -0.1393
 4794SOL    HW116536   4.281   1.450   3.729  0.1510 -0.6132 -1.8936
 4794SOL    HW216537   4.322   1.594   3.750 -0.9272 -0.5661  0.2589
 4795SOL     OW16538   1.300   6.893   4.559 -0.4417 -0.3900  0.9503
 4795SOL    HW116539   1.296   6.874   4.466 -2.2104 -1.8607  1.2858
 4795SOL    HW216540   1.292   6.988   4.564 -1.5661 -0.3892 -0.3492
 4796SOL     OW16541   5.406   6.621   0.006  0.1041  0.1835  0.3195
 4796SOL    HW116542   5.378   6.555  -0.058  0.1217  1.0777 -0.6436
 4796SOL    HW216543   5.467   6.575   0.063 -0.8493 -0.9580  0.4571
 4797SOL     OW16544   0.622   6.155   9.024 -0.6870 -0.3203  0.0916
 4797SOL    HW116545   0.640   6.067   8.992  1.3249 -0.6294  1.8961
 4797SOL    HW216546   0.552   6.187   8.966  0.0861 -2.2213 -2.0626
 4798SOL     OW16547   0.792   5.904   3.163 -0.4404 -0.2361 -0.8064
 4798SOL    HW116548   0.817   5.813   3.174  0.5114 -0.0692 -1.5042
 4798SOL    HW216549   0.843   5.952   3.228 -0.5662 -0.1405 -0.7772
 4799SOL     OW16550   7.302   2.197   8.887  0.2679  0.0140 -0.1375
 4799SOL    HW116551   7.206   2.204   8.888  0.2474 -0.3163  0.7007
 4799SOL    HW216552   7.322   2.137   8.958  1.1180  0.2478 -0.1764
 4800SOL     OW16553   8.507   0.087   5.740 -0.3602 -0.2217 -0.7753
 4800SOL    HW116554   8.470   0.017   5.686 -0.9407  0.3526 -1.1309
 4800SOL    HW216555   8.577   0.125   5.686 -0.3395 -0.2407 -0.7606
 4801SOL     OW16556   6.008   7.971   8.532 -0.0535 -0.3062 -0.2511
 4801SOL    HW116557   6.097   7.937   8.522 -0.0543  0.0282 -1.6550
 4801SOL    HW216558   6.020   8.066   8.543 -0.1672 -0.4473  1.4120
 4802SOL     OW16559   6.897   1.945   2.625  0.0260 -0.0398 -0.0589
 4802SOL    HW116560   6.824   1.915   2.571  1.4983  0.0417 -2.2020
 4802SOL    HW216561   6.874   2.035   2.650 -1.8418 -0.9195  1.7209
 4803SOL     OW16562   4.907   5.335   5.076 -0.2185 -0.6547  0.2592
 4803SOL    HW116563   4.852   5.411   5.056  1.7514  1.0623  0.9796
 4803SOL    HW216564   4.861   5.261   5.037 -2.0721  0.9440 -0.7640
 4804SOL     OW16565   1.070   8.485   1.319 -0.1505  0.0731 -0.4670
 4804SOL    HW116566   1.074   8.536   1.400 -0.1738  0.6363 -0.8129
 4804SOL    HW216567   1.011   8.412   1.339  0.8697 -0.5461  0.4329
 4805SOL     OW16568   7.689   1.552   9.183  0.4918  0.6259 -0.5354
 4805SOL    HW116569   7.618   1.562   9.246  0.9842  1.2663 -0.0736
 4805SOL    HW216570   7.671   1.468   9.139  1.0539 -0.6846  1.6190
 4806SOL     OW16571   7.846   2.496   3.308  0.3123 -0.2720  0.2523
 4806SOL    HW116572   7.881   2.414   3.341  0.5856 -0.3110 -0.1211
 4806SOL    HW216573   7.897   2.513   3.229  0.7210  0.5929  0.6861
 4807SOL     OW16574   7.777   6.840   1.482  0.1132 -0.0405 -0.4423
 4807SOL    HW116575   7.801   6.913   1.425 -0.7936  2.7627  2.4710
 4807SOL    HW216576   7.688   6.817   1.455  0.1744  0.3661 -1.0091
 4808SOL     OW16577   9.293   9.624   0.898  0.1151 -0.6056 -0.9289
 4808SOL    HW116578   9.370   9.606   0.952  1.5522  1.1733 -2.2624
 4808SOL    HW216579   9.226   9.654   0.960  0.7193 -1.4398  0.1608
 4809SOL     OW16580   2.143   5.762   5.762 -0.3568 -0.5378 -0.6796
 4809SOL    HW116581   2.059   5.800   5.790  0.8050  0.9086  1.0225
 4809SOL    HW216582   2.202   5.837   5.754  0.6185 -1.4365 -2.6527
 4810SOL     OW16583   6.308   0.048   5.570 -0.0478 -0.6126  0.1776
 4810SOL    HW116584   6.329   0.126   5.519 -0.3400 -0.3193  0.4994
 4810SOL    HW216585   6.239   0.004   5.520  0.4360 -0.9068 -0.2342
 4811SOL     OW16586   2.167   4.264   7.357  0.0237 -0.3174  0.0903
 4811SOL    HW116587   2.081   4.244   7.391  0.9609 -1.8514  1.6825
 4811SOL    HW216588   2.228   4.238   7.426  1.7709  0.8572 -0.9128
 4812SOL     OW16589   2.853   8.751   1.312  0.0219 -0.6986  0.2102
 4812SOL    HW116590   2.870   8.683   1.247 -0.6408 -0.8683  0.2143
 4812SOL    HW216591   2.854   8.832   1.262  1.1892 -0.6616  0.2654
 4813SOL     OW16592   2.529   0.859   7.901 -0.0701 -0.0885  0.0853
 4813SOL    HW116593   2.544   0.951   7.880 -1.3947 -0.1745 -1.4120
 4813SOL    HW216594   2.443   0.857   7.942 -0.6094 -0.7849 -1.0357
 4814SOL     OW16595   8.266   1.142   4.214  0.2595  0.3865 -0.3860
 4814SOL    HW116596   8.360   1.140   4.234  0.2803 -1.3190 -0.5440
 4814SOL    HW216597   8.257   1.087   4.136 -0.8934  0.4418 -0.3071
 4815SOL     OW16598   9.098   3.310   6.467  0.0399  0.2915  0.0742
 4815SOL    HW116599   9.032   3.344   6.407  1.0735 -0.5747 -1.6226
 4815SOL    HW216600   9.169   3.374   6.463  0.3732 -0.0865 -0.1258
 4816SOL     OW16601   8.190   5.253   6.841 -0.5899  0.1046 -0.0875
 4816SOL    HW116602   8.137   5.220   6.769 -0.4847 -0.2562 -0.0038
 4816SOL    HW216603   8.133   5.249   6.918 -0.1998 -1.0711  0.1680
 4817SOL     OW16604   0.369   5.697   2.362  0.2083 -0.0464  0.3648
 4817SOL    HW116605   0.396   5.607   2.345  0.9503 -0.0683  1.5632
 4817SOL    HW216606   0.274   5.697   2.346  0.2120 -1.0224  0.2870
 4818SOL     OW16607   0.975   9.190   6.892 -0.2173 -0.0230  0.4048
 4818SOL    HW116608   0.912   9.136   6.844 -0.5640  0.6970  0.0247
 4818SOL    HW216609   1.031   9.227   6.824  1.2884 -1.4614  0.8175
 4819SOL     OW16610   6.873   6.601   7.661 -0.1281  0.3778  0.1176
 4819SOL    HW116611   6.858   6.583   7.754 -0.3611  0.8932  0.1791
 4819SOL    HW216612   6.968   6.597   7.651 -0.1654 -1.1309  0.0766
 4820SOL     OW16613   1.372   8.800   1.491  0.2668  0.2409 -0.3982
 4820SOL    HW116614   1.455   8.779   1.450 -0.7546  0.2546 -2.6237
 4820SOL    HW216615   1.377   8.894   1.509  0.1271  0.5909 -2.0884
 4821SOL     OW16616   4.225   7.470   7.802  0.4058 -0.7498 -0.1258
 4821SOL    HW116617   4.156   7.535   7.816  1.2759  0.2419 -0.2859
 4821SOL    HW216618   4.251   7.482   7.711  2.4341  0.6166  0.5508
 4822SOL     OW16619   6.938   3.875   7.484 -0.6235  0.0767  0.8000
 4822SOL    HW116620   6.974   3.893   7.397 -0.7834  0.8078  0.8789
 4822SOL    HW216621   6.878   3.802   7.471  0.4891 -0.8229  0.5700
 4823SOL     OW16622   5.410   4.011   4.442 -0.5088  0.3068  0.1692
 4823SOL    HW116623   5.450   3.959   4.372 -1.7392 -1.2467  0.5665
 4823SOL    HW216624   5.469   4.086   4.453  0.3091 -0.0068 -1.7312
 4824SOL     OW16625   5.359   6.567   1.201 -0.5824  0.0362  0.2270
 4824SOL    HW116626   5.333   6.484   1.161 -2.5328  0.3099  0.8442
 4824SOL    HW216627   5.328   6.561   1.291 -0.6753  1.3988  0.3063
 4825SOL     OW16628   5.244   1.013   1.485 -0.4258  0.0084  0.2479
 4825SOL    HW116629   5.316   1.048   1.536  0.8124  0.2048 -1.5532
 4825SOL    HW216630   5.260   0.918   1.484 -1.1308 -0.1366  1.1855
 4826SOL     OW16631   9.062   6.288   2.189 -0.6672  0.1710  0.2402
 4826SOL    HW116632   8.981   6.332   2.215 -1.5023  0.0489 -1.9240
 4826SOL    HW216633   9.035   6.198   2.170  0.5100 -0.5925  1.9805
 4827SOL     OW16634   3.982   7.191   6.332 -0.3545 -0.4989  0.2993
 4827SOL    HW116635   3.998   7.157   6.420 -0.6507 -0.9394  0.1874
 4827SOL    HW216636   4.023   7.127   6.274  1.4969  0.7381  0.1540
 4828SOL     OW16637   1.309   8.424   4.029  0.2717 -0.4122 -0.6060
 4828SOL    HW116638   1.249   8.478   3.979 -4.2715 -2.3715  2.1347
 4828SOL    HW216639   1.331   8.476   4.106 -0.0756 -0.6782 -0.3268
 4829SOL     OW16640   8.533   6.041   0.434 -0.1395 -0.1199  0.0076
 4829SOL    HW116641   8.550   5.953   0.469  0.9042  0.2754  0.5305
 4829SOL    HW216642   8.615   6.089   0.448 -0.8962  1.1287  0.3277
 4830SOL     OW16643   9.524   5.299   4.258  0.3871  0.7254  0.5659
 4830SOL    HW116644   9.587   5.228   4.243 -0.4414  0.0023  0.4697
 4830SOL    HW216645   9.540   5.326   4.348  1.4716  1.1958  0.2534
 4831SOL     OW16646   1.226   7.688   5.891 -0.0933 -0.9671 -0.0133
 4831SOL    HW116647   1.200   7.619   5.830 -0.0645 -1.0146  0.0279
 4831SOL    HW216648   1.214   7.770   5.842 -1.4431 -0.9078  0.3940
 4832SOL     OW16649   6.823   6.754   0.125 -0.5931 -0.0010 -0.2687
 4832SOL    HW116650   6.840   6.847   0.141  2.1099 -0.3067 -0.8601
 4832SOL    HW216651   6.882   6.708   0.185  2.6984 -1.2045 -3.9816
 4833SOL     OW16652   8.160   1.969   1.459  0.6332 -0.2148  0.3049
 4833SOL    HW116653   8.089   1.906   1.445  0.8886 -0.2514 -0.9097
 4833SOL    HW216654   8.238   1.914   1.472  0.5821 -0.1605  0.8811
 4834SOL     OW16655   9.093   1.066   8.200 -0.5744 -0.2425 -0.3840
 4834SOL    HW116656   9.088   0.971   8.209 -1.0852 -0.2450 -0.6367
 4834SOL    HW216657   9.002   1.094   8.193 -0.4004  0.2013 -0.9331
 4835SOL     OW16658   7.295   4.275   6.853  0.0364  0.0751  0.1922
 4835SOL    HW116659   7.390   4.283   6.854  0.1456 -1.0430 -0.3617
 4835SOL    HW216660   7.271   4.282   6.760 -0.1956 -1.8756  0.0681
 4836SOL     OW16661   5.769   5.242   2.873  0.1382  0.1307 -0.1364
 4836SOL    HW116662   5.753   5.302   2.801  0.3459 -2.0669 -2.1391
 4836SOL    HW216663   5.689   5.245   2.925 -0.7075  0.5033 -1.4200
 4837SOL     OW16664   2.382   8.484   1.723 -0.3992  0.1554  0.4017
 4837SOL    HW116665   2.346   8.567   1.692  1.2729  0.8740  0.2645
 4837SOL    HW216666   2.476   8.501   1.734  0.0108 -1.7432  0.2538
 4838SOL     OW16667   5.421   2.407   2.521  0.2705  0.4801  0.7066
 4838SOL    HW116668   5.478   2.410   2.444 -1.6532  1.0336 -0.7515
 4838SOL    HW216669   5.481   2.419   2.595  1.8210  3.3413 -0.8367
 4839SOL     OW16670   6.331   0.245   7.940 -0.3821 -0.0657  0.4527
 4839SOL    HW116671   6.390   0.278   7.872 -0.6794  1.8114  1.0483
 4839SOL    HW216672   6.248   0.290   7.924  0.0805  2.0325  3.1710
 4840SOL     OW16673   2.934   1.444   1.527  0.3816 -0.0306  0.1202
 4840SOL    HW116674   2.953   1.352   1.543  0.4110 -0.1617 -0.6085
 4840SOL    HW216675   3.017   1.480   1.496  0.1984  0.0767 -0.2528
 4841SOL     OW16676   6.878   8.184   5.727 -0.1701 -0.3287 -0.1249
 4841SOL    HW116677   6.824   8.165   5.804  1.2629 -0.9339  0.7655
 4841SOL    HW216678   6.824   8.158   5.652 -3.1084  3.5640  0.3019
 4842SOL     OW16679   1.761   7.886   8.132 -0.1381 -0.2898 -0.1471
 4842SOL    HW116680   1.780   7.933   8.051  0.9512 -0.4727 -0.0147
 4842SOL    HW216681   1.666   7.885   8.138 -0.2251  2.0513 -0.0682
 4843SOL     OW16682   8.154   3.186   6.410 -0.2625 -0.2290  0.0808
 4843SOL    HW116683   8.070   3.156   6.445 -0.3786  1.8164  1.7541
 4843SOL    HW216684   8.217   3.167   6.479  0.4523 -0.6654 -0.6770
 4844SOL     OW16685   8.625   5.039   8.630  0.6922 -0.7319  0.5082
 4844SOL    HW116686   8.596   4.984   8.556 -1.7184  0.7406  0.2636
 4844SOL    HW216687   8.715   5.061   8.608  0.0747 -0.3703 -2.0407
 4845SOL     OW16688   5.611   7.741   8.313 -0.1069 -0.0714 -0.3056
 4845SOL    HW116689   5.585   7.805   8.246  0.9162 -1.9566 -2.6303
 4845SOL    HW216690   5.658   7.794   8.378 -2.3682  2.0564 -0.2442
 4846SOL     OW16691   7.686   4.896   2.520 -0.4337  0.3357  0.3415
 4846SOL    HW116692   7.670   4.820   2.575  0.1851  0.1369  0.2593
 4846SOL    HW216693   7.671   4.971   2.577 -0.9600  0.1507  0.4476
 4847SOL     OW16694   0.666   1.412   7.324  0.4458  0.2025  0.4290
 4847SOL    HW116695   0.704   1.352   7.260 -0.1124 -0.9659  1.1614
 4847SOL    HW216696   0.635   1.355   7.395  0.8139  1.4308  1.6236
 4848SOL     OW16697   4.218   6.418   3.104  0.6649 -0.2730  0.1311
 4848SOL    HW116698   4.137   6.366   3.109  0.3222  0.2356 -0.0468
 4848SOL    HW216699   4.241   6.418   3.011  0.1033  0.7212 -0.0254
 4849SOL     OW16700   4.684   5.074   7.469 -0.5272 -0.1909  0.4930
 4849SOL    HW116701   4.656   5.166   7.465  1.6978  0.5642  0.9935
 4849SOL    HW216702   4.625   5.034   7.532 -1.4053  0.9369  0.4285
 4850SOL     OW16703   8.465   7.093   8.630 -0.3496  0.5133 -0.1870
 4850SOL    HW116704   8.404   7.147   8.680 -0.1715  1.9685 -1.4766
 4850SOL    HW216705   8.473   7.013   8.682 -0.2493  1.8806  2.0483
 4851SOL     OW16706   8.671   0.180   3.275  0.5466  0.2087 -0.2634
 4851SOL    HW116707   8.635   0.091   3.271  1.3385 -0.0802 -2.3382
 4851SOL    HW216708   8.679   0.206   3.183  0.0334  2.5806  0.3128
 4852SOL     OW16709   8.717   5.430   7.290 -0.2757  0.1523 -0.8313
 4852SOL    HW116710   8.673   5.384   7.362 -0.0762 -0.3133 -1.0011
 4852SOL    HW216711   8.783   5.368   7.259  0.8723  1.0363 -0.2281
 4853SOL     OW16712   6.333   1.382   0.941  0.2098 -0.1806  1.0939
 4853SOL    HW116713   6.367   1.317   0.880 -0.2992 -0.6224  1.2657
 4853SOL    HW216714   6.401   1.449   0.946  0.6762 -0.6249  0.7978
 4854SOL     OW16715   3.442   6.248   7.717 -0.5405 -0.1166  0.2833
 4854SOL    HW116716   3.489   6.240   7.800 -3.5046 -2.4667  1.9305
 4854SOL    HW216717   3.372   6.310   7.736 -1.0497 -0.4220 -0.5660
 4855SOL     OW16718   0.032   8.491   7.716 -0.1888 -0.0219 -0.3546
 4855SOL    HW116719   0.071   8.411   7.680  0.7933  0.8523 -1.3240
 4855SOL    HW216720   0.100   8.557   7.706 -0.9550  0.9239  0.4982
 4856SOL     OW16721   4.025   8.187   5.894  0.1574 -0.1622 -0.6142
 4856SOL    HW116722   4.084   8.251   5.856 -1.1506  2.1535  0.9297
 4856SOL    HW216723   3.945   8.237   5.912 -2.0063 -2.9181 -1.8441
 4857SOL     OW16724   9.592   8.258   3.416  0.0287  0.1867  0.3832
 4857SOL    HW116725   9.568   8.340   3.372 -0.0530  0.9935  1.8833
 4857SOL    HW216726   9.688   8.260   3.418  0.0180  0.3788  0.6725
 4858SOL     OW16727   0.798   5.030   7.611 -0.4676 -0.3113 -0.7057
 4858SOL    HW116728   0.790   4.957   7.673 -1.5242 -0.6470 -1.2152
 4858SOL    HW216729   0.760   4.997   7.530 -0.5611  0.6660 -1.0702
 4859SOL     OW16730   4.394   3.829   3.096  0.3347  0.6388  0.1503
 4859SOL    HW116731   4.397   3.914   3.051  0.6017  0.6739  0.2358
 4859SOL    HW216732   4.473   3.784   3.068  0.0980  0.3410 -0.0410
 4860SOL     OW16733   2.320   5.445   5.988  0.3276  0.5613 -0.0173
 4860SOL    HW116734   2.251   5.431   5.922 -1.1325  2.5483  0.9784
 4860SOL    HW216735   2.273   5.448   6.071  2.1311 -1.7853  1.2079
 4861SOL     OW16736   8.818   1.858   4.598  0.4204 -0.6083 -0.8758
 4861SOL    HW116737   8.758   1.885   4.667  1.0739  0.2267 -0.6178
 4861SOL    HW216738   8.766   1.862   4.517  0.1159  0.0637 -0.6517
 4862SOL     OW16739   4.560   7.393   1.786  0.0525  0.2920 -0.5903
 4862SOL    HW116740   4.598   7.474   1.753  0.1512 -0.0133 -1.2434
 4862SOL    HW216741   4.611   7.323   1.745 -0.9611 -0.1154 -1.2030
 4863SOL     OW16742   2.589   9.602   3.313 -0.2695  0.2196 -0.0921
 4863SOL    HW116743   2.680   9.590   3.341 -0.3740 -0.5079 -0.0425
 4863SOL    HW216744   2.538   9.590   3.393 -0.4975 -0.7867 -0.3766
 4864SOL     OW16745   3.890   9.193   7.891  0.4937 -0.3654 -0.1756
 4864SOL    HW116746   3.839   9.166   7.815  0.9914 -0.3549 -0.5174
 4864SOL    HW216747   3.844   9.156   7.966 -0.1709 -0.1171 -0.4589
 4865SOL     OW16748   5.878   7.493   7.560  0.0763  0.1572  0.3984
 4865SOL    HW116749   5.846   7.405   7.584  0.1767 -0.0538 -0.2380
 4865SOL    HW216750   5.799   7.541   7.536 -0.2007  0.7835  2.3662
 4866SOL     OW16751   3.849   1.638   6.547  0.5885 -0.0814  0.2970
 4866SOL    HW116752   3.832   1.661   6.456  0.9753  1.6663  0.6317
 4866SOL    HW216753   3.852   1.542   6.547  1.5586 -0.1158 -1.7101
 4867SOL     OW16754   6.020   3.141   4.786  0.1417 -0.0698 -0.1386
 4867SOL    HW116755   6.014   3.119   4.694 -1.0101 -0.5950  0.0479
 4867SOL    HW216756   5.931   3.130   4.820  0.1456  1.8489  0.6535
 4868SOL     OW16757   7.162   0.317   9.486  0.1142 -0.7418 -0.1559
 4868SOL    HW116758   7.166   0.412   9.487 -1.3130 -0.6626 -0.1476
 4868SOL    HW216759   7.098   0.295   9.554 -0.4407 -1.6406 -0.9378
 4869SOL     OW16760   0.037   3.651   0.834  0.4753 -0.2707 -0.3246
 4869SOL    HW116761   0.093   3.690   0.901 -0.1783  0.4782 -0.1997
 4869SOL    HW216762  -0.042   3.706   0.834  0.2542 -0.5697 -1.3493
 4870SOL     OW16763   1.932   0.462   2.223  0.2311  0.5332  0.1681
 4870SOL    HW116764   1.853   0.413   2.245  0.1958  0.3532 -0.3459
 4870SOL    HW216765   1.902   0.553   2.212  0.6882  1.2261  3.6241
 4871SOL     OW16766   1.743   0.830   9.259  0.0006 -0.1145 -0.3640
 4871SOL    HW116767   1.813   0.766   9.268 -1.1822 -1.7814 -2.0271
 4871SOL    HW216768   1.777   0.910   9.298  2.2801 -1.2290  0.0769
 4872SOL     OW16769   1.008   4.472   1.818  0.2905 -0.4996  0.3378
 4872SOL    HW116770   0.928   4.420   1.828 -0.0554 -0.3071 -1.0818
 4872SOL    HW216771   1.056   4.459   1.899 -1.5469  0.0155  1.5593
 4873SOL     OW16772   4.779   3.596   8.284 -0.1910 -0.2665  0.2138
 4873SOL    HW116773   4.748   3.511   8.252  0.8510 -1.1718  1.4939
 4873SOL    HW216774   4.810   3.640   8.205  1.4575 -2.0648 -0.2351
 4874SOL     OW16775   7.978   8.121   2.475  0.1739  0.6533 -0.0706
 4874SOL    HW116776   7.910   8.182   2.504 -1.2341 -0.5120 -0.7905
 4874SOL    HW216777   7.952   8.098   2.386  1.8327  0.5742 -0.5700
 4875SOL     OW16778   2.429   7.975   0.112  0.1093  0.2912 -0.2516
 4875SOL    HW116779   2.402   8.011   0.197  1.0565  1.5604 -0.4558
 4875SOL    HW216780   2.347   7.946   0.072 -0.5209  0.9217  0.5372
 4876SOL     OW16781   4.255   3.823   6.967  0.7910  0.3867 -0.0283
 4876SOL    HW116782   4.186   3.782   7.018 -0.0583  1.2048 -0.5035
 4876SOL    HW216783   4.242   3.791   6.877  1.7543 -0.3672  0.0725
 4877SOL     OW16784   0.877   1.165   8.476  0.3655 -0.1842  0.3348
 4877SOL    HW116785   0.818   1.205   8.412  0.7396  1.3066  0.8807
 4877SOL    HW216786   0.836   1.184   8.561  0.1152 -1.7282  0.5915
 4878SOL     OW16787   4.091   5.773   7.552 -0.3405 -0.6348  0.6238
 4878SOL    HW116788   4.004   5.799   7.522  0.3276 -2.0614 -3.2309
 4878SOL    HW216789   4.150   5.837   7.511  0.5357 -0.7720  1.6283
 4879SOL     OW16790   3.535   1.317   6.514  0.3397  0.6912  0.5021
 4879SOL    HW116791   3.524   1.336   6.420 -4.4936  1.2354  0.9457
 4879SOL    HW216792   3.517   1.223   6.522 -0.6095  0.9037  0.9846
 4880SOL     OW16793   4.750   4.970   1.669  0.2388 -0.4124 -0.2807
 4880SOL    HW116794   4.660   4.965   1.636  0.8248  0.0878 -2.0426
 4880SOL    HW216795   4.740   5.002   1.759 -1.3396 -0.3344 -0.4464
 4881SOL     OW16796   9.207   8.855   1.225  0.0550  0.0166 -0.0852
 4881SOL    HW116797   9.174   8.911   1.296  2.0509  0.9111  0.2233
 4881SOL    HW216798   9.204   8.766   1.261  2.9033  0.6235  2.0290
 4882SOL     OW16799   0.317   4.598   0.641 -0.8928 -0.2082 -0.7595
 4882SOL    HW116800   0.338   4.687   0.611 -0.1394 -0.3141 -0.5572
 4882SOL    HW216801   0.392   4.572   0.693 -2.4470  0.2933  1.9346
 4883SOL     OW16802   3.373   8.914   0.781 -0.1342  0.1166  0.4727
 4883SOL    HW116803   3.279   8.903   0.795 -0.3405  0.3602 -0.5848
 4883SOL    HW216804   3.397   8.988   0.837 -0.5500 -0.0101  0.8268
 4884SOL     OW16805   8.004   8.436   5.476 -0.4388 -0.2423  0.6126
 4884SOL    HW116806   7.934   8.502   5.478 -1.5909 -1.3547 -0.9271
 4884SOL    HW216807   7.992   8.386   5.557 -1.2184 -0.2156  0.5184
 4885SOL     OW16808   0.551   1.010   4.712 -0.1558 -0.2219 -0.3500
 4885SOL    HW116809   0.616   1.079   4.702 -0.4323  0.5672  2.5309
 4885SOL    HW216810   0.549   0.966   4.627  3.0538  0.6409 -0.9763
 4886SOL     OW16811   4.590   0.877   5.819  0.1269 -0.2797  0.5849
 4886SOL    HW116812   4.496   0.885   5.804  0.3133  1.0914 -0.1098
 4886SOL    HW216813   4.609   0.941   5.888  0.7138  0.3951 -0.1713
 4887SOL     OW16814   2.686   8.985   0.255  0.2588 -0.1885  0.4825
 4887SOL    HW116815   2.592   9.001   0.245  0.7874  3.7803  0.2441
 4887SOL    HW216816   2.714   8.947   0.172 -0.9952 -0.6766  0.2691
 4888SOL     OW16817   3.109   3.905   0.716  0.6288  0.2514  0.0016
 4888SOL    HW116818   3.197   3.922   0.748  0.3639  0.2047  0.7710
 4888SOL    HW216819   3.061   3.986   0.734  0.5432  0.3163 -0.5145
 4889SOL     OW16820   5.991   7.526   2.867  0.0903  0.5839  0.1257
 4889SOL    HW116821   6.024   7.612   2.892  0.7121  0.5168 -0.4556
 4889SOL    HW216822   6.060   7.488   2.813  0.5012 -0.9030  1.6051
 4890SOL     OW16823   5.518   9.533   8.210 -0.6688 -0.2991 -0.3334
 4890SOL    HW116824   5.539   9.482   8.288 -0.4897  1.5119  0.8639
 4890SOL    HW216825   5.603   9.559   8.175 -0.7574 -0.8010 -0.9344
 4891SOL     OW16826   9.452   1.190   1.632 -0.1791  0.3192 -0.4587
 4891SOL    HW116827   9.541   1.200   1.599  1.3564 -0.7739  2.8407
 4891SOL    HW216828   9.457   1.220   1.723 -3.0936 -0.1678 -0.0434
 4892SOL     OW16829   1.710   4.759   6.141 -0.0697  0.3383 -0.3924
 4892SOL    HW116830   1.781   4.730   6.199  0.4785 -1.5238 -1.8899
 4892SOL    HW216831   1.719   4.854   6.139  1.1694  0.2905  0.9513
 4893SOL     OW16832   8.431   8.000   7.257 -0.3291 -0.1682 -0.0313
 4893SOL    HW116833   8.346   8.024   7.218  0.2849  2.1527 -0.1044
 4893SOL    HW216834   8.495   8.033   7.195  0.6427  0.2775  1.1767
 4894SOL     OW16835   4.721   6.890   0.621 -0.3457 -0.3148 -0.4290
 4894SOL    HW116836   4.635   6.901   0.580  0.6611 -1.2969 -3.0444
 4894SOL    HW216837   4.744   6.799   0.604  0.5525 -0.5333  1.6844
 4895SOL     OW16838   5.699   7.225   3.900  0.1727 -0.1910 -0.0403
 4895SOL    HW116839   5.730   7.210   3.989 -0.9084  0.7466  0.5272
 4895SOL    HW216840   5.709   7.141   3.856  1.6805 -0.3968  0.6545
 4896SOL     OW16841   5.661   1.043   7.924 -0.2514  0.0165 -0.0128
 4896SOL    HW116842   5.611   1.071   7.848 -0.3469  0.5288  0.2365
 4896SOL    HW216843   5.654   0.947   7.922  0.2383 -0.0084 -0.9662
 4897SOL     OW16844   0.873   7.241   5.212  0.2516 -0.4039  0.0248
 4897SOL    HW116845   0.889   7.188   5.134  2.7217  0.6090 -0.2797
 4897SOL    HW216846   0.803   7.301   5.187 -0.2908 -1.3502 -0.7475
 4898SOL     OW16847   6.704   8.474   2.602 -0.2146  0.5948 -0.2366
 4898SOL    HW116848   6.686   8.562   2.569  2.1119  1.0852 -0.3955
 4898SOL    HW216849   6.704   8.484   2.698  0.6574  0.9325 -0.2639
 4899SOL     OW16850   8.594   0.544   6.920 -0.7039  0.6745 -0.7429
 4899SOL    HW116851   8.626   0.455   6.930  0.0056  0.9018 -0.9476
 4899SOL    HW216852   8.518   0.535   6.862 -0.7350  0.1839 -0.6282
 4900SOL     OW16853   3.848   3.429   9.351  0.0423 -0.1877 -0.9982
 4900SOL    HW116854   3.858   3.334   9.348  1.8213 -0.1060  0.8582
 4900SOL    HW216855   3.910   3.462   9.286  1.6545 -0.2318  0.4582
 4901SOL     OW16856   0.714   4.339   3.681 -0.0776 -0.2107 -0.6530
 4901SOL    HW116857   0.649   4.307   3.743 -0.1679 -2.3219 -1.7206
 4901SOL    HW216858   0.663   4.376   3.609 -0.0629 -0.4610 -0.7935
 4902SOL     OW16859   6.593   1.219   1.615 -0.6468 -0.8792  0.1752
 4902SOL    HW116860   6.627   1.268   1.540  0.1995 -1.9267 -0.1611
 4902SOL    HW216861   6.667   1.165   1.643 -1.4200 -1.6383  0.8065
 4903SOL     OW16862   2.512   6.595   2.929 -0.1995 -0.5038  0.0987
 4903SOL    HW116863   2.556   6.531   2.873 -1.0176 -1.1611  0.1851
 4903SOL    HW216864   2.486   6.545   3.007 -2.3836 -0.5120 -0.5801
 4904SOL     OW16865   7.580   6.104   0.023  0.5094 -0.0853  0.1195
 4904SOL    HW116866   7.511   6.163  -0.005  0.4542 -0.0181  0.3964
 4904SOL    HW216867   7.609   6.061  -0.057  0.6381  0.4109 -0.0970
 4905SOL     OW16868   1.897   5.883   0.119 -0.3989  0.1239  0.1488
 4905SOL    HW116869   1.865   5.883   0.028 -0.0539  0.4850  0.0227
 4905SOL    HW216870   1.888   5.792   0.147  1.4016 -0.4404 -0.9427
 4906SOL     OW16871   1.165   9.207   6.154 -0.2009  0.6210 -0.4550
 4906SOL    HW116872   1.164   9.298   6.184  0.4000  0.5671 -0.2440
 4906SOL    HW216873   1.119   9.208   6.070  0.7410  1.3185 -0.9862
 4907SOL     OW16874   7.127   0.867   8.935  0.4629 -0.7418 -0.3610
 4907SOL    HW116875   7.129   0.794   8.997 -1.5117 -1.5712 -1.1920
 4907SOL    HW216876   7.152   0.829   8.851  1.7864  0.0883 -0.3790
 4908SOL     OW16877   5.716   8.115   4.166 -0.0818  0.5583  0.2275
 4908SOL    HW116878   5.723   8.120   4.071  1.0155  0.8107  0.3028
 4908SOL    HW216879   5.736   8.024   4.187 -0.4942  0.4618  0.2072
 4909SOL     OW16880   8.030   3.146   2.427  0.1187  0.5634  0.2249
 4909SOL    HW116881   7.968   3.092   2.378 -1.6872  0.8117  2.0953
 4909SOL    HW216882   7.987   3.230   2.437  0.2248  0.4026  2.5121
 4910SOL     OW16883   5.387   5.580   3.506 -0.2141 -0.3243  0.4598
 4910SOL    HW116884   5.345   5.525   3.573  1.1149 -1.6003  0.2733
 4910SOL    HW216885   5.445   5.521   3.458  0.3707  0.9990 -0.5300
 4911SOL     OW16886   4.937   7.558   8.602 -0.5842 -0.1317  0.2965
 4911SOL    HW116887   4.863   7.615   8.626  0.2253  1.0013  0.1978
 4911SOL    HW216888   5.012   7.597   8.647  0.1177 -0.7092 -0.3504
 4912SOL     OW16889   5.368   6.074   2.806 -0.1590 -0.4773 -0.4093
 4912SOL    HW116890   5.429   6.089   2.734 -0.8360 -1.9176 -1.3389
 4912SOL    HW216891   5.404   5.998   2.852 -0.4119 -0.3477  0.0062
 4913SOL     OW16892   8.912   2.705   1.538 -0.1971  0.1414  0.3660
 4913SOL    HW116893   8.880   2.793   1.556  0.5814  0.7522 -1.0099
 4913SOL    HW216894   8.978   2.689   1.605  3.6078  2.8646 -2.3116
 4914SOL     OW16895   1.900   6.191   2.164 -0.5078  0.3843 -0.1414
 4914SOL    HW116896   1.925   6.244   2.239 -0.5089  0.8543 -0.4700
 4914SOL    HW216897   1.848   6.119   2.201  0.3601  0.0278  0.4247
 4915SOL     OW16898   6.948   1.204   1.866 -0.1835 -0.3089 -0.0463
 4915SOL    HW116899   6.968   1.110   1.865 -1.1635 -0.5381 -1.2603
 4915SOL    HW216900   6.983   1.237   1.783  0.3922  0.4693  0.4895
 4916SOL     OW16901   8.389   7.579   9.379  0.4469  0.2033 -0.5987
 4916SOL    HW116902   8.436   7.566   9.462  1.5572  0.8072 -1.1208
 4916SOL    HW216903   8.455   7.565   9.311 -0.2237  0.6634 -1.3673
 4917SOL     OW16904   6.385   9.328   5.237  0.0356 -0.0930  0.1162
 4917SOL    HW116905   6.300   9.371   5.223  0.0678  0.5988  1.7252
 4917SOL    HW216906   6.436   9.393   5.286  1.0689 -0.9637  0.2224
 4918SOL     OW16907   2.250   2.109   8.688  0.1546  0.4559  0.4626
 4918SOL    HW116908   2.266   2.018   8.713 -0.2861  0.2785  0.1174
 4918SOL    HW216909   2.332   2.154   8.706  0.6392 -0.1748 -0.1501
 4919SOL     OW16910   9.064   0.571   7.154  0.1799  0.5141  0.3795
 4919SOL    HW116911   9.069   0.475   7.145 -1.5056  0.4312 -0.1631
 4919SOL    HW216912   9.129   0.605   7.093  2.2011 -0.2749  1.9968
 4920SOL     OW16913   4.289   4.597   7.075 -0.7970  0.3336 -0.8636
 4920SOL    HW116914   4.280   4.561   7.163  1.6279 -0.5201 -0.8964
 4920SOL    HW216915   4.225   4.547   7.023  0.0145 -1.5084 -0.1923
 4921SOL     OW16916   5.687   4.290   7.443 -0.2180  0.4503 -0.0662
 4921SOL    HW116917   5.642   4.254   7.366  0.9624 -0.1298 -0.5065
 4921SOL    HW216918   5.741   4.218   7.475 -1.3748  0.3744  1.9011
 4922SOL     OW16919   8.070   8.719   4.586 -0.0108  0.0592 -0.1045
 4922SOL    HW116920   8.015   8.715   4.664  1.4419  1.4247  1.0592
 4922SOL    HW216921   8.012   8.750   4.517 -1.1476 -0.4692  0.5840
 4923SOL     OW16922   7.166   5.224   7.026  0.7629 -0.3724 -0.2895
 4923SOL    HW116923   7.105   5.228   7.100 -0.9647 -0.1630 -1.6760
 4923SOL    HW216924   7.180   5.130   7.011 -3.4486 -0.8158 -3.1690
 4924SOL     OW16925   5.104   4.904   0.854 -0.7030 -0.7681  0.3852
 4924SOL    HW116926   5.197   4.904   0.876 -0.6463  0.9672  0.2602
 4924SOL    HW216927   5.086   4.813   0.828  1.0985 -1.0070 -0.1938
 4925SOL     OW16928   5.787   1.071   7.115  0.5734  0.4323  0.0234
 4925SOL    HW116929   5.710   1.067   7.172  2.1379 -1.0680  2.1833
 4925SOL    HW216930   5.857   1.101   7.173  1.6211  2.0078 -1.9559
 4926SOL     OW16931   9.116   3.283   7.960 -0.0250 -0.2406  0.1871
 4926SOL    HW116932   9.153   3.244   7.880 -0.8526  1.0604 -0.8843
 4926SOL    HW216933   9.065   3.357   7.928  0.0956  0.6693  1.9956
 4927SOL     OW16934   1.753   0.532   3.221  0.4360 -0.0046  0.3204
 4927SOL    HW116935   1.665   0.537   3.184  0.8385  1.5778 -0.5136
 4927SOL    HW216936   1.799   0.471   3.164  0.1648 -0.0526  0.1498
 4928SOL     OW16937   0.011   0.400   3.030 -0.2616  0.0720  0.2165
 4928SOL    HW116938   0.071   0.400   3.105 -0.2170  1.0822  0.1957
 4928SOL    HW216939  -0.076   0.392   3.069 -0.3554  2.0444  0.5204
 4929SOL     OW16940   6.015   5.664   0.704  0.6061  0.2071  0.4343
 4929SOL    HW116941   5.986   5.689   0.792  1.0628  1.5732  0.2289
 4929SOL    HW216942   5.976   5.730   0.646 -0.3555 -1.1539 -0.5009
 4930SOL     OW16943   0.273   2.590   7.093  0.0947  0.1884  0.4103
 4930SOL    HW116944   0.333   2.534   7.142  0.8580  1.0955  0.5304
 4930SOL    HW216945   0.241   2.653   7.157 -0.4950  0.1082  0.1994
 4931SOL     OW16946   3.261   8.120   9.256 -0.1505  0.3366 -0.8279
 4931SOL    HW116947   3.183   8.124   9.312  0.0950  2.4774 -0.5876
 4931SOL    HW216948   3.332   8.151   9.311  0.6831 -0.4843 -1.4139
 4932SOL     OW16949   7.463   5.823   2.025  0.0529  0.2927  0.2858
 4932SOL    HW116950   7.538   5.766   2.008  0.4293  0.0638  2.5178
 4932SOL    HW216951   7.487   5.906   1.982  1.4267  0.1113  0.6463
 4933SOL     OW16952   8.800   4.721   6.417 -0.0885 -0.6397  0.0997
 4933SOL    HW116953   8.737   4.749   6.483  0.6762  1.2231  0.0897
 4933SOL    HW216954   8.815   4.629   6.436  0.6436 -0.0207  2.9800
 4934SOL     OW16955   3.551   5.576   6.889 -0.2723 -0.0585 -0.2725
 4934SOL    HW116956   3.567   5.670   6.891  0.4305 -0.1727  1.1039
 4934SOL    HW216957   3.619   5.539   6.946 -0.9017 -1.3297 -0.3057
 4935SOL     OW16958   3.742   6.331   2.292 -0.2296  0.1502 -0.0822
 4935SOL    HW116959   3.768   6.421   2.273 -1.8437  0.6021 -0.2580
 4935SOL    HW216960   3.758   6.284   2.210 -0.4044  0.5099 -0.3218
 4936SOL     OW16961   2.927   7.247   4.896  0.2660  0.5192  0.5468
 4936SOL    HW116962   2.957   7.322   4.947 -1.5063  0.6592  1.4592
 4936SOL    HW216963   2.925   7.278   4.806  1.1830  1.0194  0.6864
 4937SOL     OW16964   5.113   0.912   8.725 -0.3637 -0.0979  0.3073
 4937SOL    HW116965   5.109   0.832   8.777  2.5461  0.1994  1.1625
 4937SOL    HW216966   5.050   0.972   8.767 -1.6184 -1.4525  0.4311
 4938SOL     OW16967   8.961   8.428   8.930  0.1909  0.6314  0.3532
 4938SOL    HW116968   8.981   8.459   9.018  0.7644 -0.2752  0.5558
 4938SOL    HW216969   9.007   8.344   8.922 -0.0890  0.5522 -0.7037
 4939SOL     OW16970   4.240   6.395   1.404  0.0571  0.3747  0.5469
 4939SOL    HW116971   4.289   6.436   1.332  0.2016 -0.9573 -0.1352
 4939SOL    HW216972   4.155   6.375   1.366 -0.4694  1.2008  1.2619
 4940SOL     OW16973   8.405   0.069   0.824  0.1220  0.3712 -0.4609
 4940SOL    HW116974   8.339   0.136   0.842 -2.7736 -2.6680  1.3651
 4940SOL    HW216975   8.440   0.046   0.910 -0.3148 -1.6635 -0.7791
 4941SOL     OW16976   9.084   8.073   0.950  0.3932  0.0449 -0.1474
 4941SOL    HW116977   9.000   8.029   0.941  0.5220 -0.4931  1.1143
 4941SOL    HW216978   9.066   8.148   1.008  1.1719 -1.3310  1.9818
 4942SOL     OW16979   3.749   0.089   2.230 -0.4249 -0.0925  0.0722
 4942SOL    HW116980   3.717   0.013   2.277 -1.1668  0.1132 -0.0986
 4942SOL    HW216981   3.716   0.164   2.279  1.4992  0.1581  1.0877
 4943SOL     OW16982   4.796   1.607   1.168 -0.0382 -0.4391 -0.5039
 4943SOL    HW116983   4.880   1.591   1.210  1.0736  1.9861 -1.6261
 4943SOL    HW216984   4.765   1.690   1.205  0.2781  1.0182 -3.2727
 4944SOL     OW16985   9.017   4.861   8.935  0.0993  0.0314 -0.1308
 4944SOL    HW116986   8.930   4.866   8.975  0.9972  0.4470  1.8750
 4944SOL    HW216987   9.013   4.783   8.879 -1.1627 -0.7239  0.9417
 4945SOL     OW16988   4.450   1.308   7.882 -0.4908  0.0324  0.1199
 4945SOL    HW116989   4.405   1.370   7.824  0.7601 -0.5901 -1.6266
 4945SOL    HW216990   4.491   1.363   7.949  0.4031  1.1407 -1.2512
 4946SOL     OW16991   8.916   6.164   5.279 -0.5426  0.0218  0.2540
 4946SOL    HW116992   8.993   6.199   5.235 -1.0402 -0.5674 -1.1443
 4946SOL    HW216993   8.850   6.233   5.269 -0.0437  0.8184  2.0456
 4947SOL     OW16994   9.085   8.373   7.583 -0.2553 -0.2723  0.6502
 4947SOL    HW116995   9.039   8.386   7.666  2.6594  1.0571  2.1917
 4947SOL    HW216996   9.137   8.452   7.571 -0.4096 -0.5221 -2.4048
 4948SOL     OW16997   4.641   9.097   7.867  0.0739 -0.1094  0.1123
 4948SOL    HW116998   4.711   9.116   7.804  1.0551  0.2557  1.2766
 4948SOL    HW216999   4.589   9.177   7.871 -0.9741 -0.6616 -1.3948
 4949SOL     OW17000   2.188   6.292   6.275  0.4645 -0.8295 -0.8345
 4949SOL    HW117001   2.222   6.230   6.210 -1.5084 -1.6538 -1.1253
 4949SOL    HW217002   2.120   6.244   6.322  0.8212  0.2325  0.8817
 4950SOL     OW17003   8.790   0.598   3.067  0.7551 -0.5026 -0.2803
 4950SOL    HW117004   8.736   0.622   2.992  1.6198  1.9412 -0.2084
 4950SOL    HW217005   8.727   0.567   3.132 -0.4990  1.2050 -0.5995
 4951SOL     OW17006   6.835   5.570   7.704 -0.2068  0.2025  0.2302
 4951SOL    HW117007   6.773   5.599   7.637  0.6589  2.3150  0.2654
 4951SOL    HW217008   6.866   5.485   7.673 -1.1771  0.3079 -1.1015
 4952SOL     OW17009   9.001   0.265   1.262 -0.2161  0.0279  0.0440
 4952SOL    HW117010   9.029   0.223   1.344  0.7456  0.7479  0.1049
 4952SOL    HW217011   8.958   0.346   1.289 -3.0777 -1.3526 -0.0147
 4953SOL     OW17012   2.856   4.254   2.116 -0.2261  0.4166  1.4066
 4953SOL    HW117013   2.764   4.248   2.143 -0.3070  1.8669  1.5532
 4953SOL    HW217014   2.862   4.340   2.074  0.5305 -0.6427 -0.7760
 4954SOL     OW17015   8.947   7.083   1.562  0.4571 -0.1256  0.0819
 4954SOL    HW117016   8.921   7.169   1.529  0.6729 -0.0729  0.0432
 4954SOL    HW217017   8.870   7.027   1.550  0.5141 -0.0927 -0.4507
 4955SOL     OW17018   3.305   5.620   1.516 -0.4019 -0.2619  0.5024
 4955SOL    HW117019   3.312   5.541   1.571 -0.5917  1.3549  3.0359
 4955SOL    HW217020   3.213   5.643   1.519 -0.5103 -0.4050 -1.0081
 4956SOL     OW17021   6.055   0.012   2.916  0.1994  0.2874  0.5996
 4956SOL    HW117022   6.105   0.072   2.860  1.1157 -0.9518  0.0572
 4956SOL    HW217023   5.966   0.015   2.881  0.7524 -0.4262 -0.8943
 4957SOL     OW17024   7.442   0.506   6.142 -0.3142  0.5767 -0.2981
 4957SOL    HW117025   7.458   0.586   6.093  2.9031  0.8144  0.8601
 4957SOL    HW217026   7.457   0.530   6.233  0.5307 -1.2430  0.1026
 4958SOL     OW17027   0.676   3.900   3.175 -1.0701 -0.1084 -0.5231
 4958SOL    HW117028   0.751   3.885   3.233 -1.5263 -0.4573 -0.0168
 4958SOL    HW217029   0.704   3.864   3.090 -0.3213  0.5968 -0.5839
 4959SOL     OW17030   0.208   1.302   8.794  0.5128 -0.1194 -1.0350
 4959SOL    HW117031   0.210   1.218   8.839 -0.0150 -0.0837 -0.9428
 4959SOL    HW217032   0.115   1.319   8.779  0.5623  0.8136 -0.3694
 4960SOL     OW17033   8.924   9.365   3.036 -0.2203 -0.3432  0.2109
 4960SOL    HW117034   9.008   9.411   3.031 -0.2750 -0.2828 -0.2325
 4960SOL    HW217035   8.874   9.415   3.101  0.1834 -0.5450  0.6799
 4961SOL     OW17036   3.106   3.892   0.431  0.0645  0.1504  0.0195
 4961SOL    HW117037   3.124   3.898   0.525 -0.0670 -0.6865  0.1084
 4961SOL    HW217038   3.170   3.828   0.398  0.1739  0.5093 -0.4820
 4962SOL     OW17039   9.422   1.484   4.125  0.7140  0.1425  0.2307
 4962SOL    HW117040   9.503   1.534   4.110 -0.7653  2.5410 -0.2461
 4962SOL    HW217041   9.396   1.454   4.038  1.4031 -1.2450  0.4715
 4963SOL     OW17042   5.939   0.947   8.703  0.5909 -0.0281  0.0151
 4963SOL    HW117043   6.016   0.905   8.743  0.7757  0.5587  0.2848
 4963SOL    HW217044   5.906   0.882   8.641  0.7559 -0.6532  0.5684
 4964SOL     OW17045   1.363   2.696   5.601 -0.1596  0.7435  0.0549
 4964SOL    HW117046   1.312   2.624   5.637 -0.2355 -0.2770 -1.9953
 4964SOL    HW217047   1.425   2.655   5.541  0.6801  2.2712 -0.1799
 4965SOL     OW17048   2.405   8.627   1.333 -0.1764 -0.0190 -0.0479
 4965SOL    HW117049   2.408   8.712   1.288 -0.6956  1.3532  2.3108
 4965SOL    HW217050   2.317   8.624   1.372 -0.0886 -1.5651  0.1037
 4966SOL     OW17051   6.986   7.814   8.281  0.5316  0.3208  0.1754
 4966SOL    HW117052   6.988   7.732   8.233  2.4240 -0.0873  0.8716
 4966SOL    HW217053   6.935   7.795   8.360 -0.2021  0.2278 -0.3080
 4967SOL     OW17054   3.986   4.288   6.773  0.2808  0.2538 -0.4847
 4967SOL    HW117055   4.027   4.209   6.807  1.4173  0.9290 -0.2232
 4967SOL    HW217056   3.896   4.263   6.755  0.3718 -0.8348  0.4962
 4968SOL     OW17057   9.056   7.434   9.356  0.3394  0.1181  0.2689
 4968SOL    HW117058   8.977   7.443   9.410  0.5660  0.6292  0.5173
 4968SOL    HW217059   9.104   7.516   9.370 -0.2480  0.8772 -1.7499
 4969SOL     OW17060   8.640   0.948   7.081  0.2587  0.6494  0.2331
 4969SOL    HW117061   8.694   1.026   7.089  0.3239  0.5701  0.5786
 4969SOL    HW217062   8.644   0.925   6.988 -2.8522  3.3012 -0.7834
 4970SOL     OW17063   2.163   2.561   6.325  0.1405 -0.2275 -0.2312
 4970SOL    HW117064   2.127   2.602   6.405  1.8466  1.2125 -0.1226
 4970SOL    HW217065   2.114   2.480   6.315 -0.2982 -0.3335  2.1664
 4971SOL     OW17066   3.292   7.147   8.863 -0.2064  0.0137 -0.2328
 4971SOL    HW117067   3.373   7.098   8.850  2.9078  2.7849  5.3507
 4971SOL    HW217068   3.296   7.218   8.800  0.1571 -1.3763 -1.8482
 4972SOL     OW17069   6.990   2.692   9.203  0.5669 -0.5305  0.2607
 4972SOL    HW117070   7.018   2.619   9.149  0.4432 -1.5405  1.5217
 4972SOL    HW217071   6.904   2.716   9.169  1.3902  0.3022 -1.3647
 4973SOL     OW17072   1.109   2.029   2.168  0.9237 -0.3014 -0.2152
 4973SOL    HW117073   1.199   2.052   2.147  0.2281 -0.1314 -3.4574
 4973SOL    HW217074   1.062   2.034   2.085 -2.1565 -0.1827  1.3747
 4974SOL     OW17075   5.754   0.019   7.136  0.1617 -0.2231  0.0099
 4974SOL    HW117076   5.787   0.028   7.046 -1.7509 -0.1527 -0.7374
 4974SOL    HW217077   5.828  -0.017   7.185  1.0639 -0.8454 -1.7147
 4975SOL     OW17078   2.743   2.841   1.008  0.3647 -0.3174 -0.0660
 4975SOL    HW117079   2.757   2.762   0.956 -0.2010 -0.3278 -0.2127
 4975SOL    HW217080   2.818   2.845   1.067 -0.3227 -1.7422  0.9499
 4976SOL     OW17081   7.753   0.935   3.681 -0.1150 -0.7592 -0.6821
 4976SOL    HW117082   7.809   1.001   3.721  1.4290 -1.6582 -1.2766
 4976SOL    HW217083   7.709   0.893   3.755  1.1618 -1.0447 -0.0634
 4977SOL     OW17084   3.385   3.862   0.648  0.1223 -0.2275 -0.2957
 4977SOL    HW117085   3.437   3.913   0.586  1.5535 -0.5757  0.5796
 4977SOL    HW217086   3.374   3.777   0.605 -1.8614  0.5780 -1.5446
 4978SOL     OW17087   6.961   9.171   8.923  0.1650  0.0103  0.8743
 4978SOL    HW117088   6.918   9.110   8.864 -0.0168 -0.2637  1.2814
 4978SOL    HW217089   6.889   9.223   8.960  0.3235  0.5189  0.4823
 4979SOL     OW17090   7.888   6.783   4.344 -0.4867  0.2305 -0.1812
 4979SOL    HW117091   7.949   6.723   4.301  1.3234 -0.0033  2.4895
 4979SOL    HW217092   7.907   6.868   4.306 -1.1509 -0.3927 -2.0236
 4980SOL     OW17093   4.103   3.682   1.191 -0.0954 -0.0780  0.0283
 4980SOL    HW117094   4.100   3.735   1.111 -0.1638  0.4722  0.3902
 4980SOL    HW217095   4.025   3.627   1.186 -0.6407  0.6625  0.1954
 4981SOL     OW17096   3.506   0.184   6.059  0.3022  0.1052  0.1999
 4981SOL    HW117097   3.568   0.146   6.121  1.1722  0.9340 -0.1499
 4981SOL    HW217098   3.557   0.248   6.009 -0.5990  0.0926 -0.7673
 4982SOL     OW17099   6.631   6.492   3.002  0.1457  0.3014  0.0532
 4982SOL    HW117100   6.676   6.449   3.075 -2.2936 -0.6691  1.1217
 4982SOL    HW217101   6.655   6.440   2.925 -0.5749 -1.3863  0.9055
 4983SOL     OW17102   3.961   6.765   0.374  0.4210 -0.0965  0.1154
 4983SOL    HW117103   3.892   6.709   0.339  0.0546  1.2860 -1.5709
 4983SOL    HW217104   4.018   6.707   0.424 -0.7915 -1.6467 -0.2485
 4984SOL     OW17105   6.138   9.214   6.614  0.2807  0.0039 -0.2193
 4984SOL    HW117106   6.139   9.139   6.555  1.0794 -1.3101  1.3637
 4984SOL    HW217107   6.094   9.283   6.565 -1.4161 -1.7968 -1.3557
 4985SOL     OW17108   2.323   5.423   2.791  0.0022  0.3836 -0.3582
 4985SOL    HW117109   2.314   5.387   2.702  0.0924  0.0829 -0.2461
 4985SOL    HW217110   2.374   5.504   2.779  2.1671 -0.8849 -0.3133
 4986SOL     OW17111   4.120   3.925   9.538 -0.4809  0.2192 -0.5448
 4986SOL    HW117112   4.206   3.963   9.520  0.0160 -0.5535  0.1138
 4986SOL    HW217113   4.139   3.835   9.565 -1.2003  0.9323  2.7250
 4987SOL     OW17114   7.347   3.460   4.875 -0.4315 -0.1057 -0.3157
 4987SOL    HW117115   7.344   3.509   4.793 -1.8713  0.3409 -0.0266
 4987SOL    HW217116   7.431   3.484   4.915 -0.5796  1.1978 -0.7450
 4988SOL     OW17117   1.490   0.554   3.547  0.1999  0.1769 -0.0602
 4988SOL    HW117118   1.500   0.464   3.515 -0.7688 -0.2172  0.6857
 4988SOL    HW217119   1.400   0.577   3.524 -0.0363  0.4182  1.0312
 4989SOL     OW17120   3.515   6.835   2.227 -0.3254  0.1522 -0.0152
 4989SOL    HW117121   3.455   6.761   2.229 -2.3537  1.6958 -0.2631
 4989SOL    HW217122   3.539   6.845   2.135 -2.5659  1.6218 -0.5206
 4990SOL     OW17123   0.207   8.866   7.262  0.3093 -0.0494 -0.7732
 4990SOL    HW117124   0.144   8.810   7.217  0.2395 -0.3354 -0.3234
 4990SOL    HW217125   0.234   8.930   7.196  0.4043 -0.6237 -1.2925
 4991SOL     OW17126   0.754   0.827   3.887  0.6285 -0.0658 -0.5547
 4991SOL    HW117127   0.791   0.778   3.962 -0.2743 -0.3377 -0.2790
 4991SOL    HW217128   0.737   0.914   3.922  1.7451  0.3186 -0.9060
 4992SOL     OW17129   7.618   3.100   5.723 -0.0268  0.2955  0.2975
 4992SOL    HW117130   7.640   3.166   5.657 -0.5898  0.4008  0.2055
 4992SOL    HW217131   7.688   3.036   5.718  2.1000  2.3011  2.3500
 4993SOL     OW17132   6.779   3.027   2.445  0.5342 -0.4547 -0.9643
 4993SOL    HW117133   6.856   3.028   2.501  0.2716 -0.2309 -0.6078
 4993SOL    HW217134   6.727   3.102   2.473 -0.4402 -1.3371 -0.3198
 4994SOL     OW17135   9.142   5.683   5.944  0.1457  0.1061  0.6748
 4994SOL    HW117136   9.210   5.659   6.006 -0.4453 -0.6925  1.0369
 4994SOL    HW217137   9.135   5.778   5.952  1.4135  0.2382  0.4089
 4995SOL     OW17138   4.736   8.830   4.809  0.7383  0.1150 -0.4465
 4995SOL    HW117139   4.670   8.898   4.793  0.1774 -0.1128  0.8253
 4995SOL    HW217140   4.743   8.824   4.904  2.2116 -0.2547 -0.5530
 4996SOL     OW17141   9.386   7.160   6.338  0.0132 -0.1495  0.0096
 4996SOL    HW117142   9.350   7.210   6.264  0.3984  0.8181  0.4600
 4996SOL    HW217143   9.313   7.150   6.399 -0.9653 -2.9324 -1.4397
 4997SOL     OW17144   6.945   8.033   8.109  0.0659 -0.7574  0.3716
 4997SOL    HW117145   6.935   7.968   8.179 -2.8568  1.1430  1.9421
 4997SOL    HW217146   6.858   8.072   8.101  1.7680  3.4325  0.0424
 4998SOL     OW17147   4.751   9.580   8.630 -0.5156  0.5173 -0.6615
 4998SOL    HW117148   4.802   9.563   8.552  0.4827  0.2459  0.0326
 4998SOL    HW217149   4.788   9.661   8.666 -0.5552  0.3177 -0.1529
 4999SOL     OW17150   0.953   1.270   4.571 -0.1158 -0.3446 -0.1441
 4999SOL    HW117151   0.894   1.237   4.504 -0.3926  1.1007 -0.6521
 4999SOL    HW217152   0.931   1.363   4.579 -0.1584 -0.4874  2.0255
 5000SOL     OW17153   8.528   7.670   5.864 -0.2317 -0.1110  0.6396
 5000SOL    HW117154   8.593   7.615   5.821 -0.4043  0.2128 -0.0508
 5000SOL    HW217155   8.517   7.631   5.951 -1.3710 -2.0212 -0.2914
 5001SOL     OW17156   3.558   6.174   5.567 -0.3045 -0.2397 -0.2008
 5001SOL    HW117157   3.509   6.094   5.584  0.0360 -0.7865 -1.6900
 5001SOL    HW217158   3.543   6.228   5.645  0.7720 -2.3556  1.5616
 5002SOL     OW17159   7.320   1.183   9.176  0.0866 -0.0217 -0.4281
 5002SOL    HW117160   7.296   1.172   9.268 -0.0595 -0.5660 -0.5260
 5002SOL    HW217161   7.324   1.094   9.141 -2.6974  0.2241 -1.6752
 5003SOL     OW17162   3.878   6.630   7.160 -0.5936 -0.3879  0.3029
 5003SOL    HW117163   3.960   6.616   7.113 -1.2434 -0.1871 -0.9483
 5003SOL    HW217164   3.883   6.721   7.191 -0.9098  0.0878 -0.9874
 5004SOL     OW17165   1.100   4.744   1.495 -0.3399 -0.4176 -0.0143
 5004SOL    HW117166   1.032   4.744   1.427 -1.1680 -0.2435  0.7921
 5004SOL    HW217167   1.177   4.781   1.452 -1.0935  0.4824 -0.6271
 5005SOL     OW17168   2.266   5.724   0.497 -0.2174  0.4561  0.1630
 5005SOL    HW117169   2.209   5.771   0.435 -0.2635 -1.4121 -1.2902
 5005SOL    HW217170   2.326   5.675   0.441  0.8911  0.0532  1.6542
 5006SOL     OW17171   7.163   1.127   4.211 -0.2059  0.4692  0.5471
 5006SOL    HW117172   7.181   1.033   4.205 -0.2612  0.4691  0.3760
 5006SOL    HW217173   7.244   1.168   4.180 -0.3524  0.4719  0.1516
 5007SOL     OW17174   5.301   1.098   9.121  0.2623 -0.1122 -0.5375
 5007SOL    HW117175   5.356   1.020   9.113 -1.0536 -1.0924 -0.4473
 5007SOL    HW217176   5.359   1.166   9.156  1.5604 -0.9065 -1.0921
 5008SOL     OW17177   0.355   5.056   4.468  0.1781  0.1121 -0.3905
 5008SOL    HW117178   0.347   4.966   4.437  0.6575  0.2367 -0.9131
 5008SOL    HW217179   0.313   5.057   4.554 -0.8536 -0.3434 -0.8741
 5009SOL     OW17180   4.240   4.510   7.334  0.2257  0.4459  0.2023
 5009SOL    HW117181   4.147   4.526   7.351 -0.2733 -1.0087 -0.8548
 5009SOL    HW217182   4.276   4.483   7.418 -0.1146  1.7975  0.7938
 5010SOL     OW17183   3.362   1.029   8.817  0.0729 -0.1057 -0.0894
 5010SOL    HW117184   3.361   1.120   8.789  1.2332 -0.1710 -0.3811
 5010SOL    HW217185   3.272   0.999   8.802  0.4567  0.0206 -3.3219
 5011SOL     OW17186   5.244   2.335   7.030  0.2379  0.3808  0.0973
 5011SOL    HW117187   5.174   2.272   7.016  0.7551  0.4044 -3.3071
 5011SOL    HW217188   5.323   2.291   6.997  1.2459  1.5765  0.8106
 5012SOL     OW17189   4.491   0.412   1.080 -0.0344  0.0339 -0.5063
 5012SOL    HW117190   4.453   0.491   1.120 -0.8554 -0.2280 -0.7413
 5012SOL    HW217191   4.512   0.356   1.154  1.3377  0.8015 -0.2891
 5013SOL     OW17192   2.148   7.105   9.205  0.0117  0.3361  0.1991
 5013SOL    HW117193   2.087   7.138   9.139  0.7368  1.2311 -0.0416
 5013SOL    HW217194   2.234   7.122   9.169  0.4608  2.0672  1.9104
 5014SOL     OW17195   0.533   5.791   9.291 -0.3350 -0.1075  0.1220
 5014SOL    HW117196   0.612   5.822   9.246 -1.0722  1.9108  0.1276
 5014SOL    HW217197   0.562   5.716   9.342  1.6457  0.7327  0.3042
 5015SOL     OW17198   6.528   0.146   3.498  0.3387  0.4848 -0.1274
 5015SOL    HW117199   6.466   0.218   3.493  1.0355  1.1887  0.9812
 5015SOL    HW217200   6.478   0.069   3.471  0.1100  1.6171 -3.2603
 5016SOL     OW17201   7.411   4.104   2.217 -0.2505 -0.2528  0.5370
 5016SOL    HW117202   7.382   4.162   2.287 -1.3228  0.5066 -0.5072
 5016SOL    HW217203   7.331   4.082   2.169  0.3557 -1.4028  0.0105
 5017SOL     OW17204   4.163   9.387   9.444 -0.3040 -0.1833 -0.3815
 5017SOL    HW117205   4.202   9.474   9.443  0.2493 -0.4112  0.3713
 5017SOL    HW217206   4.081   9.396   9.396 -0.2146  0.7326 -0.3669
 5018SOL     OW17207   9.400   3.303   6.878  0.3121  0.4621  0.6790
 5018SOL    HW117208   9.417   3.240   6.808  0.2111  1.4642 -0.2800
 5018SOL    HW217209   9.322   3.270   6.923 -0.2214  0.3326 -0.3294
 5019SOL     OW17210   1.961   5.719   6.059  0.0137  0.2206 -0.4045
 5019SOL    HW117211   1.975   5.795   6.002  1.1178  1.0477  0.9015
 5019SOL    HW217212   1.923   5.653   6.002 -0.9361  1.7398 -1.5984
 5020SOL     OW17213   4.121   0.638   9.331  0.1900 -0.1718 -0.4360
 5020SOL    HW117214   4.117   0.663   9.424  2.0527  0.5832 -0.5126
 5020SOL    HW217215   4.211   0.606   9.319  0.2980  0.6977 -2.2075
 5021SOL     OW17216   4.430   2.376   6.951 -0.3881  0.2789 -0.2892
 5021SOL    HW117217   4.441   2.449   7.013  1.4062 -0.3478  0.1720
 5021SOL    HW217218   4.421   2.418   6.866 -1.1524  1.0914  0.1702
 5022SOL     OW17219   7.414   4.058   1.686 -0.2817 -0.3798  0.1054
 5022SOL    HW117220   7.342   4.027   1.631 -0.2644  0.6046 -0.4901
 5022SOL    HW217221   7.389   4.031   1.774 -0.2063 -2.1761 -0.3730
 5023SOL     OW17222   9.547   6.860   1.723 -0.0631  0.0441 -0.5612
 5023SOL    HW117223   9.605   6.800   1.771 -0.3217 -0.1245 -0.4601
 5023SOL    HW217224   9.543   6.824   1.635 -0.9965 -0.6419 -0.2506
 5024SOL     OW17225   8.023   2.604   1.248 -0.5240  0.1014 -0.2210
 5024SOL    HW117226   8.041   2.687   1.293 -0.0195  0.2541 -0.6838
 5024SOL    HW217227   8.070   2.612   1.165 -0.3206 -0.7210 -0.1934
 5025SOL     OW17228   1.565   4.990   8.942 -0.1413  0.1427  0.2148
 5025SOL    HW117229   1.629   5.040   8.993 -1.8033 -1.3839  4.2469
 5025SOL    HW217230   1.516   5.056   8.894 -0.8854  2.3658  3.6382
 5026SOL     OW17231   0.830   1.582   6.457 -0.0903  0.2577  0.3823
 5026SOL    HW117232   0.754   1.614   6.506  0.4789  0.4759  1.1629
 5026SOL    HW217233   0.802   1.499   6.419 -0.2747 -0.3807  1.8567
 5027SOL     OW17234   3.534   4.274   4.171  0.1343  0.5467 -0.0818
 5027SOL    HW117235   3.440   4.270   4.189 -0.0804  0.7849 -1.1127
 5027SOL    HW217236   3.554   4.190   4.130 -0.2427  1.6190 -2.6043
 5028SOL     OW17237   1.896   2.074   5.459 -0.4841  0.2153 -0.1172
 5028SOL    HW117238   1.920   2.053   5.549 -0.5177  1.0239  0.0896
 5028SOL    HW217239   1.837   2.004   5.432  0.3662 -0.6042  0.1215
 5029SOL     OW17240   7.007   4.591   8.151 -0.2940 -0.1654  0.0762
 5029SOL    HW117241   6.919   4.628   8.146  0.3968  1.4084 -1.9569
 5029SOL    HW217242   7.058   4.658   8.196  0.3431  0.0376 -0.9264
 5030SOL     OW17243   3.066   2.507   1.085  0.1455  0.3419 -0.2693
 5030SOL    HW117244   3.156   2.480   1.066 -0.2194 -0.5140 -0.8407
 5030SOL    HW217245   3.049   2.473   1.173  0.7464  1.4899  0.3136
 5031SOL     OW17246   6.955   8.516   6.653 -0.0340 -0.1904  0.1793
 5031SOL    HW117247   6.918   8.453   6.715  0.4477 -0.8657 -0.2189
 5031SOL    HW217248   6.890   8.587   6.651 -0.8780 -0.9427  0.1603
 5032SOL     OW17249   4.719   6.182   5.714  0.5823 -0.2476 -0.0101
 5032SOL    HW117250   4.745   6.171   5.805  2.3604 -0.3352 -0.4949
 5032SOL    HW217251   4.677   6.099   5.691  0.1311 -0.2239  0.7216
 5033SOL     OW17252   7.307   3.337   9.572  0.1204 -0.5366 -0.2315
 5033SOL    HW117253   7.291   3.309   9.482  0.1915 -0.0332 -0.4031
 5033SOL    HW217254   7.225   3.318   9.618 -0.6072  0.9813 -0.8435
 5034SOL     OW17255   4.058   0.586   4.464  0.3221 -0.4079 -0.4731
 5034SOL    HW117256   4.024   0.635   4.540  1.3319  0.7636 -0.7480
 5034SOL    HW217257   4.025   0.634   4.388  0.7811 -0.5362 -0.7551
 5035SOL     OW17258   8.542   8.768   9.485 -0.0156  0.1414  0.1513
 5035SOL    HW117259   8.611   8.711   9.452 -0.1908 -0.1094  0.2172
 5035SOL    HW217260   8.574   8.857   9.467 -0.5832  0.0231 -1.7262
 5036SOL     OW17261   9.224   2.027   9.267  0.2750 -0.3902  0.0624
 5036SOL    HW117262   9.239   2.002   9.176  1.3674  0.9414 -0.1631
 5036SOL    HW217263   9.225   2.123   9.266  0.0385 -0.3575  1.4345
 5037SOL     OW17264   5.404   3.604   0.911  0.0946  0.4102  0.0584
 5037SOL    HW117265   5.469   3.674   0.901  0.7504 -0.3475 -1.2930
 5037SOL    HW217266   5.435   3.534   0.853 -1.7588 -0.1106 -0.3728
 5038SOL     OW17267   0.817   5.366   3.639  0.4028 -0.0918  0.1296
 5038SOL    HW117268   0.768   5.284   3.640  2.7690 -1.5726 -0.1819
 5038SOL    HW217269   0.824   5.390   3.732  0.5616 -0.7641  0.2943
 5039SOL     OW17270   7.577   5.669   4.803 -0.3706  0.2317 -0.1279
 5039SOL    HW117271   7.563   5.575   4.817  2.6830 -0.3424 -0.3491
 5039SOL    HW217272   7.645   5.694   4.865 -0.2714  2.0300 -0.8807
 5040SOL     OW17273   9.110   0.919   4.432  0.4931  0.1489 -0.3778
 5040SOL    HW117274   9.187   0.941   4.483 -1.5948  2.7555  1.9980
 5040SOL    HW217275   9.092   0.827   4.452  1.7382  0.1383  0.7752
 5041SOL     OW17276   8.195   6.855   5.006 -0.3050 -0.6159  0.0201
 5041SOL    HW117277   8.105   6.850   4.973 -1.2544 -0.4279  2.4051
 5041SOL    HW217278   8.212   6.948   5.016  0.1903 -0.6504 -0.4725
 5042SOL     OW17279   1.159   3.347   9.380  0.1692 -0.0164  0.1579
 5042SOL    HW117280   1.247   3.313   9.395  1.8158  3.3148 -0.8727
 5042SOL    HW217281   1.142   3.328   9.288 -0.5756 -1.3087  0.5368
 5043SOL     OW17282   3.592   9.288   5.011  0.2383  0.5971  0.0995
 5043SOL    HW117283   3.585   9.362   5.071  2.7507 -1.0609  2.7320
 5043SOL    HW217284   3.538   9.220   5.051 -0.4012  0.3203 -1.1760
 5044SOL     OW17285   6.372   7.461   1.232  0.3885  0.4941  0.4108
 5044SOL    HW117286   6.436   7.532   1.224  0.2897  0.4248 -1.3281
 5044SOL    HW217287   6.289   7.506   1.250  0.2424  0.8947 -1.1152
 5045SOL     OW17288   7.296   3.123   0.834  0.3230  0.6359 -0.2527
 5045SOL    HW117289   7.245   3.180   0.891  0.2884  1.3444 -0.9687
 5045SOL    HW217290   7.247   3.041   0.832 -1.0943  1.4571 -1.3316
 5046SOL     OW17291   7.853   0.991   6.807  0.4626  0.2889 -0.5942
 5046SOL    HW117292   7.929   1.034   6.846  1.5102 -1.9451  0.0011
 5046SOL    HW217293   7.872   0.987   6.714  0.9712 -0.0560 -0.4766
 5047SOL     OW17294   8.226   1.423   8.674  0.2556 -0.4248 -0.5340
 5047SOL    HW117295   8.160   1.354   8.686  1.0619 -1.2219 -0.6096
 5047SOL    HW217296   8.188   1.500   8.717  0.1668 -1.4293  1.2543
 5048SOL     OW17297   8.014   8.872   8.765 -0.0194  0.1797  0.7189
 5048SOL    HW117298   8.048   8.790   8.801 -1.6407 -0.7105  0.3463
 5048SOL    HW217299   8.085   8.906   8.711  0.6527 -1.0496  0.7857
 5049SOL     OW17300   6.690   5.429   0.752 -0.1632 -0.5484 -0.6338
 5049SOL    HW117301   6.718   5.469   0.835  0.3431 -0.0233 -1.0551
 5049SOL    HW217302   6.599   5.458   0.742  0.1724  0.4481 -0.8910
 5050SOL     OW17303   2.247   2.876   2.089  0.3615 -0.5815 -0.4993
 5050SOL    HW117304   2.153   2.894   2.086  0.6858  2.5923  2.3239
 5050SOL    HW217305   2.255   2.799   2.145 -0.5126 -2.5069 -2.8043
 5051SOL     OW17306   6.592   6.547   7.658 -0.4243  0.5445 -0.5880
 5051SOL    HW117307   6.591   6.541   7.754  1.0258 -1.6949 -0.6288
 5051SOL    HW217308   6.679   6.581   7.638 -0.5864  0.6354 -1.1377
 5052SOL     OW17309   1.226   6.225   8.019 -0.1368 -0.5760  0.2583
 5052SOL    HW117310   1.193   6.315   8.011  0.2275 -0.4498  0.1385
 5052SOL    HW217311   1.189   6.180   7.943  0.8951 -0.1372 -0.5284
 5053SOL     OW17312   0.635   4.546   5.800 -0.8394  0.5220  0.4763
 5053SOL    HW117313   0.669   4.610   5.862  0.1073  0.9279 -0.4446
 5053SOL    HW217314   0.712   4.513   5.753 -1.4914 -0.0504 -0.2322
 5054SOL     OW17315   8.285   4.381   2.909  0.2041 -0.2358 -0.3902
 5054SOL    HW117316   8.225   4.454   2.923  0.8966 -0.0592  2.3049
 5054SOL    HW217317   8.359   4.419   2.862 -0.7159  0.0849 -1.6205
 5055SOL     OW17318   3.180   0.194   2.857 -0.6394  0.1867  0.0512
 5055SOL    HW117319   3.220   0.281   2.864  0.5344 -0.4014  1.1304
 5055SOL    HW217320   3.193   0.155   2.943 -0.2894 -1.4117 -0.6839
 5056SOL     OW17321   8.501   7.097   3.996  0.2165  0.0693  0.0604
 5056SOL    HW117322   8.420   7.051   4.018  0.8476 -0.5153  1.2950
 5056SOL    HW217323   8.515   7.157   4.069  0.6796  0.4688 -0.3495
 5057SOL     OW17324   1.929   2.069   6.824 -0.1853  0.2078 -0.6545
 5057SOL    HW117325   1.967   2.078   6.737 -0.7839  1.3776 -0.8266
 5057SOL    HW217326   1.939   2.156   6.863 -1.2386  0.1091 -0.1285
 5058SOL     OW17327   0.715   2.152   8.064  0.9230  0.1803  0.1097
 5058SOL    HW117328   0.742   2.199   8.143  1.0980 -1.0219  0.7886
 5058SOL    HW217329   0.747   2.206   7.992  2.4016  0.3801  0.8765
 5059SOL     OW17330   6.075   4.331   4.585  0.6604 -0.1510  0.3565
 5059SOL    HW117331   6.037   4.243   4.584 -0.4375  0.2529 -2.1705
 5059SOL    HW217332   5.999   4.390   4.590  1.3953  0.6959  2.4068
 5060SOL     OW17333   4.778   7.151   4.719  0.4763 -0.4874  0.5866
 5060SOL    HW117334   4.692   7.183   4.694  1.6617  0.8233 -2.1921
 5060SOL    HW217335   4.816   7.221   4.771  0.3905 -0.4669  0.6220
 5061SOL     OW17336   6.281   5.244   2.722 -0.3567 -0.3428 -0.5895
 5061SOL    HW117337   6.328   5.232   2.805  0.0789  0.3236 -0.7355
 5061SOL    HW217338   6.193   5.212   2.740 -0.2782 -0.1633  0.1540
 5062SOL     OW17339   9.539   4.123   8.522 -0.7246  0.2785 -0.4523
 5062SOL    HW117340   9.622   4.092   8.559  0.1314  1.9238 -0.8379
 5062SOL    HW217341   9.505   4.049   8.472  0.8847 -0.2406 -0.8459
 5063SOL     OW17342   7.038   8.731   5.059  0.0202 -0.0606 -0.1518
 5063SOL    HW117343   7.083   8.749   4.977 -0.6512  0.9227 -0.3136
 5063SOL    HW217344   7.073   8.794   5.121 -0.9770  0.5917 -0.2323
 5064SOL     OW17345   6.282   6.946   1.197 -0.3074  0.0692  0.0046
 5064SOL    HW117346   6.367   6.983   1.224 -0.0101 -0.7311  0.2133
 5064SOL    HW217347   6.301   6.898   1.117 -0.1935 -1.4987  0.9284
 5065SOL     OW17348   5.959   6.676   0.507 -0.4623 -0.0566  0.0196
 5065SOL    HW117349   5.933   6.587   0.529  0.6291 -0.9136 -1.9408
 5065SOL    HW217350   5.878   6.721   0.484 -0.7557 -1.3393 -1.5596
 5066SOL     OW17351   3.179   6.339   4.068  0.7810 -0.0703 -0.2755
 5066SOL    HW117352   3.144   6.428   4.071  2.1489  0.4863 -0.0997
 5066SOL    HW217353   3.139   6.299   3.991 -1.1106  0.1239  0.5445
 5067SOL     OW17354   7.970   6.845   1.666 -0.2584 -0.1208 -0.2271
 5067SOL    HW117355   7.946   6.867   1.756 -0.4845 -2.5277  0.3762
 5067SOL    HW217356   7.887   6.846   1.618 -0.5676 -1.4556  0.2377
 5068SOL     OW17357   8.324   7.031   6.765  0.3427 -0.0219 -0.3660
 5068SOL    HW117358   8.407   7.022   6.719 -0.2320 -0.6321 -1.3268
 5068SOL    HW217359   8.348   7.038   6.858  1.4270 -0.8544 -0.5653
 5069SOL     OW17360   8.414   7.724   7.202  0.3185  0.3594  0.2960
 5069SOL    HW117361   8.412   7.814   7.236 -1.6771  0.5635 -0.2880
 5069SOL    HW217362   8.381   7.731   7.113  0.0389 -0.9778  0.2744
 5070SOL     OW17363   3.563   2.688   0.240  0.5871  0.1134  0.2473
 5070SOL    HW117364   3.629   2.648   0.297 -0.4812  0.1479  1.5470
 5070SOL    HW217365   3.524   2.615   0.193  1.0969  0.0262 -0.0492
 5071SOL     OW17366   8.825   3.971   4.271  0.3469 -0.5053  0.9733
 5071SOL    HW117367   8.820   4.020   4.353  1.4919 -0.5680  1.0981
 5071SOL    HW217368   8.918   3.952   4.260  0.1919 -0.6350 -0.2692
 5072SOL     OW17369   0.844   0.221   3.982  0.2619  0.1869  0.0441
 5072SOL    HW117370   0.799   0.294   4.025 -0.6928 -0.7008  0.5862
 5072SOL    HW217371   0.784   0.147   3.992  0.7570 -0.4274 -1.4051
 5073SOL     OW17372   7.779   6.850   8.510  0.1041  0.1307  0.3212
 5073SOL    HW117373   7.784   6.894   8.594 -0.1292 -0.5993  0.7260
 5073SOL    HW217374   7.815   6.763   8.526  3.5674  1.1238 -1.1898
 5074SOL     OW17375   8.093   3.770   2.896  0.2077  0.6820 -0.6689
 5074SOL    HW117376   8.125   3.789   2.985 -1.6603  1.9235 -0.2085
 5074SOL    HW217377   8.172   3.748   2.847  1.3720  0.5993  1.1403
 5075SOL     OW17378   2.657   2.788   8.594 -0.0567 -0.0165 -0.3632
 5075SOL    HW117379   2.715   2.757   8.663  0.8905  0.0220 -1.1232
 5075SOL    HW217380   2.618   2.708   8.558  0.6914 -0.1759 -0.8463
 5076SOL     OW17381   8.091   5.674   3.459  0.0014  0.0205  0.2163
 5076SOL    HW117382   8.181   5.656   3.436  0.3182  0.9750  0.6368
 5076SOL    HW217383   8.040   5.652   3.381  0.4523 -1.5837  0.3512
 5077SOL     OW17384   0.022   7.121   8.275 -0.1289  0.4309 -0.7396
 5077SOL    HW117385   0.062   7.034   8.269  2.0502  1.3249  0.1132
 5077SOL    HW217386  -0.013   7.125   8.364  0.8290  0.8387 -0.3711
 5078SOL     OW17387   9.016   2.755   0.150  0.0908 -0.1786  0.4632
 5078SOL    HW117388   9.085   2.821   0.155  0.4044 -0.4595 -0.0849
 5078SOL    HW217389   8.968   2.777   0.070  0.3766 -0.7909  0.1230
 5079SOL     OW17390   9.632   9.107   6.199  0.1209 -0.0076  0.5668
 5079SOL    HW117391   9.678   9.187   6.226 -0.3149  0.8614 -1.1606
 5079SOL    HW217392   9.562   9.098   6.264 -1.4405  2.5129 -0.6165
 5080SOL     OW17393   6.455   2.659   3.213  0.0510 -0.1783  0.1693
 5080SOL    HW117394   6.540   2.699   3.194  0.3643 -0.7437  0.3819
 5080SOL    HW217395   6.469   2.610   3.294 -0.4563 -0.3487  0.1565
 5081SOL     OW17396   2.996   5.081   9.118  0.1593  0.0688  0.4191
 5081SOL    HW117397   2.949   5.057   9.038  1.7789  2.1749 -1.2828
 5081SOL    HW217398   2.965   5.169   9.139 -0.2380 -0.4528  2.1816
 5082SOL     OW17399   6.315   3.517   7.702  0.1250  0.3615 -0.6782
 5082SOL    HW117400   6.235   3.466   7.711 -0.7642  1.8451  0.2511
 5082SOL    HW217401   6.287   3.608   7.710  1.7220  1.0009 -1.7518
 5083SOL     OW17402   3.874   9.395   2.601 -0.2506  0.3663 -0.0549
 5083SOL    HW117403   3.926   9.434   2.671 -2.0213  0.9709  1.0066
 5083SOL    HW217404   3.840   9.314   2.640 -1.2531  0.7129 -0.1863
 5084SOL     OW17405   6.441   5.574   0.789  0.5615  0.0124 -0.1855
 5084SOL    HW117406   6.352   5.539   0.794  0.5053  0.2655  0.6557
 5084SOL    HW217407   6.452   5.625   0.869  0.8302  1.5008 -1.1455
 5085SOL     OW17408   2.740   4.790   9.223  0.1028  0.5116 -0.7275
 5085SOL    HW117409   2.826   4.828   9.240 -0.4243  1.3709  0.0949
 5085SOL    HW217410   2.716   4.824   9.137 -0.0146  1.4159 -0.3481
 5086SOL     OW17411   3.000   2.052   8.323 -0.2087 -0.0980  0.7174
 5086SOL    HW117412   3.017   1.979   8.264 -0.2152  0.3927  0.0957
 5086SOL    HW217413   3.013   2.016   8.411  0.8394 -0.5747  0.3839
 5087SOL     OW17414   0.202   7.293   8.146  0.1979 -0.6039  0.4631
 5087SOL    HW117415   0.137   7.239   8.191 -0.4899  0.7168  1.1039
 5087SOL    HW217416   0.245   7.342   8.216  0.4288  0.0753 -0.1397
 5088SOL     OW17417   3.120   6.968   8.952  0.5184  0.0886 -0.1248
 5088SOL    HW117418   3.185   7.036   8.935  1.6364 -1.0583 -0.5440
 5088SOL    HW217419   3.160   6.912   9.018  0.5842 -1.4246 -1.3782
 5089SOL     OW17420   6.865   7.518   1.416 -0.4321  0.5181 -0.0405
 5089SOL    HW117421   6.894   7.608   1.401 -0.5913  0.4613 -0.7264
 5089SOL    HW217422   6.816   7.522   1.498  1.4423  0.6306  1.1576
 5090SOL     OW17423   3.816   7.025   5.157  0.7009  0.0732  0.7343
 5090SOL    HW117424   3.825   6.931   5.173  1.8950 -0.0092 -0.2489
 5090SOL    HW217425   3.803   7.033   5.063  1.7296  0.9389  0.6450
 5091SOL     OW17426   8.701   7.480   4.310  0.4327 -0.1408 -0.1255
 5091SOL    HW117427   8.780   7.504   4.358 -0.7408  0.8106  1.4661
 5091SOL    HW217428   8.697   7.542   4.237 -0.6376  2.3196  1.8544
 5092SOL     OW17429   4.279   0.208   7.372  0.0137 -0.0037  0.0626
 5092SOL    HW117430   4.271   0.295   7.412 -0.7651 -0.1043  0.1435
 5092SOL    HW217431   4.210   0.207   7.305  0.2073 -0.4549 -0.1320
 5093SOL     OW17432   5.747   6.176   4.020  0.3340  0.5841  0.6207
 5093SOL    HW117433   5.811   6.243   3.993  0.9798  0.7974  2.4821
 5093SOL    HW217434   5.703   6.151   3.940  1.9608  1.2969 -0.5560
 5094SOL     OW17435   8.535   5.641   0.308  0.3878 -0.4200 -0.3897
 5094SOL    HW117436   8.514   5.720   0.358  2.7675  0.4049 -0.5511
 5094SOL    HW217437   8.459   5.585   0.319 -1.6119  2.0418 -0.5999
 5095SOL     OW17438   3.811   5.839   7.490 -1.0407 -0.0572 -0.2348
 5095SOL    HW117439   3.785   5.866   7.578  1.1986  0.0397  0.4465
 5095SOL    HW217440   3.786   5.747   7.485 -0.3368 -0.3235  0.8672
 5096SOL     OW17441   2.607   0.247   6.327  0.0968  0.4115  0.0969
 5096SOL    HW117442   2.588   0.339   6.344 -0.0012  0.7925 -1.8029
 5096SOL    HW217443   2.523   0.203   6.337  0.0243  0.6238  0.4346
 5097SOL     OW17444   7.903   9.374   5.538 -0.1356 -0.2346 -0.1615
 5097SOL    HW117445   7.898   9.280   5.554  1.4749 -0.4428 -0.6447
 5097SOL    HW217446   7.837   9.391   5.471 -0.2791 -1.0594 -0.2422
 5098SOL     OW17447   3.699   2.955   8.368 -0.1602  0.0957  0.5945
 5098SOL    HW117448   3.760   3.000   8.428  0.0416  1.6426 -0.6955
 5098SOL    HW217449   3.754   2.925   8.296 -0.6622 -0.1118  0.2957
 5099SOL     OW17450   7.064   5.493   4.235  0.1531  0.0249 -0.0840
 5099SOL    HW117451   7.030   5.507   4.323  0.6787  0.4177  0.0673
 5099SOL    HW217452   6.997   5.529   4.177 -1.4985 -2.7140 -0.0107
 5100SOL     OW17453   1.163   9.470   5.203  1.0372 -0.6416  0.3571
 5100SOL    HW117454   1.183   9.404   5.136  0.3398 -1.1306  0.6160
 5100SOL    HW217455   1.248   9.510   5.223  1.3681 -1.0006 -0.2837
 5101SOL     OW17456   8.906   0.416   2.291  0.0640  0.5073  0.0232
 5101SOL    HW117457   8.879   0.343   2.346  0.3889 -0.9175 -1.6214
 5101SOL    HW217458   8.976   0.381   2.236  1.2087  2.4722  0.1530
 5102SOL     OW17459   7.687   7.361   4.100 -0.2545 -0.3210  0.9278
 5102SOL    HW117460   7.619   7.395   4.158  0.2051  2.5826 -0.0702
 5102SOL    HW217461   7.769   7.391   4.141  0.3659 -2.2542  1.1827
 5103SOL     OW17462   0.008   9.317   2.744 -0.0260  0.1994 -0.0996
 5103SOL    HW117463   0.034   9.266   2.667 -1.0713  0.0337 -0.3618
 5103SOL    HW217464   0.057   9.399   2.736  1.3702 -0.5675  0.1161
 5104SOL     OW17465   4.307   3.298   0.907  0.3078  0.2523 -0.2538
 5104SOL    HW117466   4.330   3.363   0.974  0.6467 -0.6821  0.5645
 5104SOL    HW217467   4.378   3.304   0.842 -1.6548  3.4941 -2.3837
 5105SOL     OW17468   9.393   3.316   6.163 -0.5098 -0.3232  0.0503
 5105SOL    HW117469   9.404   3.234   6.212  2.0647  0.2730  0.5868
 5105SOL    HW217470   9.434   3.382   6.218 -0.6121  0.9824 -1.3865
 5106SOL     OW17471   6.075   7.259   0.913 -0.5767  0.5017 -0.8925
 5106SOL    HW117472   6.035   7.338   0.949 -1.1131  1.0337 -2.5549
 5106SOL    HW217473   6.146   7.290   0.858 -0.7721 -0.1661 -1.5417
 5107SOL     OW17474   7.736   8.359   8.388 -0.1115  0.2851 -0.5147
 5107SOL    HW117475   7.740   8.276   8.342 -0.3760  0.8878 -1.6695
 5107SOL    HW217476   7.757   8.338   8.479  1.9600 -0.7365 -1.1674
 5108SOL     OW17477   8.650   7.671   2.735 -1.1929 -0.8165  0.3553
 5108SOL    HW117478   8.680   7.596   2.787 -0.1172 -0.7230 -0.1058
 5108SOL    HW217479   8.727   7.728   2.729 -1.9347  0.2113  0.4885
 5109SOL     OW17480   8.335   2.891   6.137 -0.0237  0.0377 -0.0224
 5109SOL    HW117481   8.364   2.864   6.224 -0.0441  0.3541  0.0857
 5109SOL    HW217482   8.291   2.975   6.152  1.2995  0.8647 -0.5225
 5110SOL     OW17483   6.453   0.193   1.144  0.4962 -0.6769  0.1383
 5110SOL    HW117484   6.409   0.218   1.062  1.4354 -2.3688 -0.9549
 5110SOL    HW217485   6.441   0.098   1.149  2.3657 -0.9321  0.7633
 5111SOL     OW17486   9.578   6.172   0.578  0.0578 -0.3780  0.6495
 5111SOL    HW117487   9.514   6.143   0.514  2.0677  0.3283 -1.8467
 5111SOL    HW217488   9.542   6.253   0.614 -0.5621 -0.1000 -0.5561
 5112SOL     OW17489   4.743   4.180   8.738 -0.0903 -0.0738 -0.3663
 5112SOL    HW117490   4.721   4.252   8.679 -1.6556 -0.7124 -0.6124
 5112SOL    HW217491   4.688   4.107   8.708 -0.1689 -0.7222  1.2568
 5113SOL     OW17492   5.177   6.409   7.500 -0.0492  0.3611 -0.3504
 5113SOL    HW117493   5.182   6.380   7.591 -2.3043 -0.2299 -0.3735
 5113SOL    HW217494   5.141   6.498   7.504 -1.6982 -0.2520 -0.6910
 5114SOL     OW17495   8.770   7.443   9.452 -0.6576  0.0618  0.2610
 5114SOL    HW117496   8.739   7.394   9.376  2.1630  1.2134 -1.8040
 5114SOL    HW217497   8.803   7.376   9.512  0.0924 -0.7875 -1.0357
 5115SOL     OW17498   2.655   4.048   0.400 -0.2235 -0.0656  0.0498
 5115SOL    HW117499   2.733   4.027   0.348 -0.9890 -0.3234 -1.0301
 5115SOL    HW217500   2.626   4.132   0.367  0.6696  0.9929  1.7919
 5116SOL     OW17501   2.082   8.347   2.847 -0.2388 -0.4766 -0.0176
 5116SOL    HW117502   2.080   8.295   2.927  0.0438 -0.4408  0.0112
 5116SOL    HW217503   2.080   8.438   2.877 -2.1067 -0.4455 -0.0874
 5117SOL     OW17504   6.904   1.715   8.583 -0.0137  0.0665  0.1145
 5117SOL    HW117505   6.941   1.774   8.649 -1.0589  0.3811  0.4385
 5117SOL    HW217506   6.861   1.774   8.521 -1.8145 -0.3750  0.9033
 5118SOL     OW17507   6.169   7.972   2.596 -0.1233 -0.3328  0.2270
 5118SOL    HW117508   6.182   7.943   2.686  0.4236 -1.0650 -0.0761
 5118SOL    HW217509   6.257   7.993   2.564 -0.5096  1.9559  0.5060
 5119SOL     OW17510   7.826   7.216   0.288  0.7477 -0.9853  1.0284
 5119SOL    HW117511   7.758   7.154   0.316  1.1012 -2.0898 -0.4261
 5119SOL    HW217512   7.778   7.290   0.252  0.3204 -0.7964  1.9554
 5120SOL     OW17513   0.185   3.846   9.245 -0.0611  0.0433 -0.3809
 5120SOL    HW117514   0.171   3.755   9.270  2.5593  0.0576  1.4672
 5120SOL    HW217515   0.219   3.841   9.155  0.0632 -0.7838 -0.2916
 5121SOL     OW17516   1.111   5.312   7.167  0.3909 -0.2861  0.6911
 5121SOL    HW117517   1.038   5.369   7.143  0.8959  0.1806  0.2324
 5121SOL    HW217518   1.074   5.224   7.168 -0.1771 -0.0522  0.4694
 5122SOL     OW17519   4.501   9.042   9.275 -0.4868 -0.0570 -0.1249
 5122SOL    HW117520   4.413   9.070   9.301 -1.7029 -2.6366 -1.0602
 5122SOL    HW217521   4.531   8.987   9.347 -0.4865 -0.7372 -0.6284
 5123SOL     OW17522   1.867   8.370   4.057 -0.0315 -0.2606 -0.0840
 5123SOL    HW117523   1.955   8.332   4.061  0.0941 -0.0170 -0.4796
 5123SOL    HW217524   1.815   8.314   4.115  0.8812  0.9494  2.0125
 5124SOL     OW17525   5.581   8.985   5.626  0.8757  0.1792  0.7679
 5124SOL    HW117526   5.658   8.990   5.568 -0.0771  1.1780 -0.4872
 5124SOL    HW217527   5.606   9.037   5.702  1.1978  1.1589  0.0250
 5125SOL     OW17528   1.240   6.543   5.092 -0.2063  0.0553 -0.0582
 5125SOL    HW117529   1.184   6.497   5.029  0.6598 -2.5418  0.9428
 5125SOL    HW217530   1.206   6.518   5.178  1.9296 -0.9739  0.5637
 5126SOL     OW17531   2.146   0.748   0.607  0.0448 -0.2355  0.2748
 5126SOL    HW117532   2.149   0.792   0.522  0.7388 -0.4171  0.1944
 5126SOL    HW217533   2.177   0.659   0.589 -1.7884 -0.9328  0.3414
 5127SOL     OW17534   8.717   8.542   4.137  0.4350  0.2188 -0.1846
 5127SOL    HW117535   8.763   8.465   4.105  2.6006  0.6135  1.7334
 5127SOL    HW217536   8.706   8.528   4.231 -2.7931  0.5217 -0.4004
 5128SOL     OW17537   0.662   2.099   2.215  0.1306 -0.1757 -0.3540
 5128SOL    HW117538   0.648   2.005   2.228  0.5605 -0.1313  0.5708
 5128SOL    HW217539   0.580   2.140   2.244  0.2951 -0.2174  0.1927
 5129SOL     OW17540   5.721   5.622   4.647  0.3081 -0.0180  0.6863
 5129SOL    HW117541   5.799   5.614   4.592 -0.9792 -0.2832 -1.1996
 5129SOL    HW217542   5.697   5.532   4.669  0.5626  0.0663  1.3271
 5130SOL     OW17543   2.695   1.678   8.736  0.1280  0.7643 -0.2650
 5130SOL    HW117544   2.703   1.745   8.668 -0.5857 -0.1855 -1.3317
 5130SOL    HW217545   2.769   1.694   8.794 -0.4649  2.9683 -0.0173
 5131SOL     OW17546   0.220   5.111   8.200  0.1502 -0.5549  0.0353
 5131SOL    HW117547   0.303   5.136   8.239 -1.4093  2.5519  1.7618
 5131SOL    HW217548   0.208   5.019   8.224  2.5523 -0.7655  0.6206
 5132SOL     OW17549   6.456   8.424   4.458  0.2167  0.0624 -0.0288
 5132SOL    HW117550   6.494   8.418   4.546  0.7864  1.4169 -0.1591
 5132SOL    HW217551   6.489   8.346   4.413  0.3577 -0.3646  0.7931
 5133SOL     OW17552   0.904   4.051   1.558 -0.0796 -0.3136 -0.4062
 5133SOL    HW117553   0.928   4.133   1.515 -0.9187  0.3033  0.2566
 5133SOL    HW217554   0.987   4.011   1.582  0.3394  0.4266 -0.5964
 5134SOL     OW17555   1.518   0.026   8.532 -0.4028  0.1905 -0.1330
 5134SOL    HW117556   1.526   0.017   8.437  1.3324 -0.6428  0.0381
 5134SOL    HW217557   1.589   0.086   8.556 -2.8051  3.0556  0.3606
 5135SOL     OW17558   0.982   2.919   8.330 -0.2821  0.0580 -0.3003
 5135SOL    HW117559   0.969   3.013   8.322 -2.1924  0.0822  1.9158
 5135SOL    HW217560   0.910   2.881   8.281 -0.8454 -0.1523  0.6529
 5136SOL     OW17561   6.731   6.253   7.872 -0.4178 -0.2243  0.6848
 5136SOL    HW117562   6.669   6.188   7.840  0.4699 -0.4501 -0.6209
 5136SOL    HW217563   6.778   6.283   7.794 -0.2900  1.4451  1.3597
 5137SOL     OW17564   2.255   4.011   6.826  0.3820  0.5044 -0.2829
 5137SOL    HW117565   2.349   4.022   6.841 -0.0718  3.0586  1.1890
 5137SOL    HW217566   2.214   4.025   6.911 -1.3871 -0.0587 -0.9860
 5138SOL     OW17567   2.201   4.082   2.769 -0.1058  0.0543  0.2231
 5138SOL    HW117568   2.107   4.101   2.776  0.0795  0.5144  2.0630
 5138SOL    HW217569   2.242   4.139   2.834  1.3758 -0.6965 -0.0035
 5139SOL     OW17570   2.490   7.578   3.346  0.6643 -0.5551 -0.7247
 5139SOL    HW117571   2.520   7.489   3.325 -0.9564 -0.9470 -1.5606
 5139SOL    HW217572   2.568   7.622   3.379  1.4169 -2.4102  0.1311
 5140SOL     OW17573   0.773   2.405   5.606  0.0609  0.2859  0.2800
 5140SOL    HW117574   0.713   2.427   5.534  0.4628  0.6187  0.0384
 5140SOL    HW217575   0.824   2.485   5.620 -0.6680  0.5515  1.6024
 5141SOL     OW17576   9.093   0.447   8.576 -0.0198 -0.3116  0.0949
 5141SOL    HW117577   9.047   0.376   8.532 -0.4021 -0.8573  1.3385
 5141SOL    HW217578   9.082   0.429   8.669 -0.0303  1.3201  0.4400
 5142SOL     OW17579   1.352   3.832   4.500  0.0816  0.2401  0.0004
 5142SOL    HW117580   1.320   3.863   4.415 -0.6267  0.0253  0.1828
 5142SOL    HW217581   1.317   3.895   4.563  0.5436  0.3555  0.1446
 5143SOL     OW17582   0.322   6.801   8.456 -0.2301  0.7319  0.8266
 5143SOL    HW117583   0.350   6.762   8.539  0.2561 -0.2303  0.2349
 5143SOL    HW217584   0.386   6.769   8.392 -1.9315 -0.5130 -0.3558
 5144SOL     OW17585   3.071   9.419   8.063  0.0448 -0.3405  0.0156
 5144SOL    HW117586   3.020   9.341   8.085 -1.0564  0.3098 -0.1750
 5144SOL    HW217587   3.052   9.481   8.133  1.3277 -0.4018  0.4502
 5145SOL     OW17588   3.283   8.085   8.139  0.3679  0.5173  0.2371
 5145SOL    HW117589   3.321   8.152   8.196 -0.8711  0.2995  1.3749
 5145SOL    HW217590   3.285   8.124   8.052  2.0278  0.9811  0.4516
 5146SOL     OW17591   2.918   6.596   9.096  0.2666 -0.2411  0.4122
 5146SOL    HW117592   2.840   6.571   9.146 -1.7659 -0.9683 -2.7851
 5146SOL    HW217593   2.958   6.513   9.071 -0.7911 -0.1477 -1.9208
 5147SOL     OW17594   5.110   4.590   9.568 -0.2229  0.0874  0.2623
 5147SOL    HW117595   5.107   4.495   9.558 -0.5894 -0.3203  3.3102
 5147SOL    HW217596   5.194   4.616   9.531 -1.4305 -0.8666 -3.6086
 5148SOL     OW17597   7.583   2.687   3.653  0.6109 -0.2750 -0.2633
 5148SOL    HW117598   7.600   2.714   3.743 -1.3738  0.5794 -0.1058
 5148SOL    HW217599   7.589   2.768   3.602  2.0908 -0.8048 -1.0113
 5149SOL     OW17600   1.510   6.041   7.334 -0.6539 -0.3083  0.4659
 5149SOL    HW117601   1.593   6.065   7.374 -1.1695 -1.3496  2.2679
 5149SOL    HW217602   1.460   6.123   7.332  0.5986  0.4627 -1.2351
 5150SOL     OW17603   5.783   6.085   7.883  0.1057  0.0935 -0.0418
 5150SOL    HW117604   5.745   6.167   7.852 -0.6749  0.1802  1.0759
 5150SOL    HW217605   5.822   6.107   7.968 -1.4137 -0.9681  0.9847
 5151SOL     OW17606   1.584   3.040   2.227 -0.1073 -0.1998  0.0773
 5151SOL    HW117607   1.520   3.039   2.299  1.1155 -0.5798  1.1988
 5151SOL    HW217608   1.656   3.094   2.259 -0.1116  0.7501 -1.4257
 5152SOL     OW17609   7.166   9.430   6.590 -0.1262  0.2539 -0.8707
 5152SOL    HW117610   7.112   9.392   6.521  0.7275  1.2091 -2.1221
 5152SOL    HW217611   7.200   9.355   6.638 -1.2856 -0.4116 -1.0468
 5153SOL     OW17612   8.987   6.407   3.654 -0.3727  0.1343  0.2429
 5153SOL    HW117613   9.037   6.484   3.683  1.5683 -0.8773 -0.2816
 5153SOL    HW217614   8.988   6.412   3.559  0.5258 -0.9820  0.1802
 5154SOL     OW17615   2.046   1.145   0.382  0.3361  0.1630  0.0802
 5154SOL    HW117616   2.028   1.099   0.464 -0.0247 -0.3900 -0.2996
 5154SOL    HW217617   2.139   1.168   0.387  0.7957 -1.5364 -0.1571
 5155SOL     OW17618   3.936   3.344   4.798 -0.2529  0.2763 -0.0991
 5155SOL    HW117619   3.851   3.348   4.843 -0.4129  1.2022 -0.4441
 5155SOL    HW217620   3.999   3.370   4.864 -0.4897  1.6463 -0.3786
 5156SOL     OW17621   6.122   8.938   1.615  0.6589 -0.2271  0.2689
 5156SOL    HW117622   6.071   8.920   1.536  0.4786  0.0333  0.3255
 5156SOL    HW217623   6.196   8.990   1.584 -0.0730  0.9640  0.4422
 5157SOL     OW17624   0.402   3.565   4.247  0.2329  0.7029 -0.3358
 5157SOL    HW117625   0.388   3.548   4.154 -1.8757  0.8374 -0.1113
 5157SOL    HW217626   0.315   3.589   4.280  0.7036 -0.3678  1.8867
 5158SOL     OW17627   5.233   9.251   2.247 -0.5310 -0.3286  0.1665
 5158SOL    HW117628   5.142   9.256   2.274 -0.2522 -1.5965  1.4550
 5158SOL    HW217629   5.234   9.186   2.177 -0.8672  1.1011 -1.2317
 5159SOL     OW17630   5.150   2.441   2.438 -0.0720  0.2279  0.3177
 5159SOL    HW117631   5.234   2.446   2.483 -0.0110 -0.5081  0.3107
 5159SOL    HW217632   5.085   2.465   2.505 -0.0740 -1.8500  1.1699
 5160SOL     OW17633   3.805   8.155   6.464 -0.2127  0.0879  0.6122
 5160SOL    HW117634   3.795   8.096   6.390 -0.9087  1.7610 -0.7164
 5160SOL    HW217635   3.727   8.210   6.462  0.5090  1.2217  1.6133
 5161SOL     OW17636   2.852   0.522   2.285 -0.5424  0.2416 -0.2361
 5161SOL    HW117637   2.810   0.450   2.332 -2.9320  0.5923 -1.6726
 5161SOL    HW217638   2.891   0.481   2.208 -1.1871  0.3442 -0.6256
 5162SOL     OW17639   2.122   1.689   2.234  0.4356  1.1171  0.1420
 5162SOL    HW117640   2.100   1.782   2.229 -0.6009  0.8957  0.3756
 5162SOL    HW217641   2.057   1.646   2.178  0.6710  0.4978  0.3361
 5163SOL     OW17642   2.245   5.870   6.211  0.2024 -0.4698 -0.1654
 5163SOL    HW117643   2.209   5.802   6.267 -0.6516 -0.0490 -0.1851
 5163SOL    HW217644   2.169   5.910   6.169  0.8257 -0.8223 -1.6869
 5164SOL     OW17645   0.647   9.090   3.953  0.2758 -0.1530 -0.6925
 5164SOL    HW117646   0.698   9.055   3.880  0.2619 -1.6049 -0.0284
 5164SOL    HW217647   0.645   9.020   4.018 -0.6886  0.6893  0.2382
 5165SOL     OW17648   2.174   3.455   8.407 -0.5642  0.4787 -0.3561
 5165SOL    HW117649   2.220   3.389   8.459 -1.8194 -1.2868 -1.3957
 5165SOL    HW217650   2.235   3.476   8.336 -0.4128 -0.0930 -0.4016
 5166SOL     OW17651   0.610   2.663   7.400 -0.1264 -0.1538  0.0633
 5166SOL    HW117652   0.698   2.667   7.437 -0.0962  0.1623 -0.0358
 5166SOL    HW217653   0.625   2.640   7.308 -0.1047  0.4417 -0.0904
 5167SOL     OW17654   5.524   7.815   1.899  0.7441  0.3323 -0.6284
 5167SOL    HW117655   5.478   7.774   1.825  0.2626 -1.5958  0.6435
 5167SOL    HW217656   5.454   7.852   1.953  1.0214  0.9728 -0.7022
 5168SOL     OW17657   2.480   6.964   0.413  0.0362 -0.1713  0.0668
 5168SOL    HW117658   2.566   6.996   0.385 -0.3784  0.0957 -0.9866
 5168SOL    HW217659   2.450   6.910   0.340 -0.8688  0.0905  0.2294
 5169SOL     OW17660   0.597   6.274   6.500 -0.9054 -0.3209  0.1170
 5169SOL    HW117661   0.557   6.190   6.520  1.9430 -1.6348  0.7939
 5169SOL    HW217662   0.668   6.283   6.564  2.5662 -0.1711 -3.3938
 5170SOL     OW17663   3.698   8.536   0.449  0.2309 -0.1549  0.3607
 5170SOL    HW117664   3.741   8.598   0.390  0.7410 -0.8738 -0.0231
 5170SOL    HW217665   3.760   8.524   0.520 -0.2076  0.3808  0.8544
 5171SOL     OW17666   3.173   4.367   8.961 -0.0479 -0.1541 -0.3627
 5171SOL    HW117667   3.249   4.420   8.938  0.0588 -0.2234 -0.1752
 5171SOL    HW217668   3.098   4.423   8.944  0.0216 -0.2417 -0.9792
 5172SOL     OW17669   4.057   4.707   3.389 -0.0692  0.4042 -0.6867
 5172SOL    HW117670   4.029   4.645   3.322  1.0412  0.9267 -1.6812
 5172SOL    HW217671   3.977   4.730   3.436 -0.9306  0.2274 -2.0188
 5173SOL     OW17672   0.827   7.630   8.880 -0.4247  0.0247 -0.1589
 5173SOL    HW117673   0.822   7.607   8.973  0.1602  1.6629  0.3254
 5173SOL    HW217674   0.844   7.547   8.835 -3.0274 -1.2043  0.9103
 5174SOL     OW17675   5.005   5.360   1.776 -0.2592 -0.1766 -0.5483
 5174SOL    HW117676   4.953   5.439   1.794 -1.7385 -1.5374  1.7556
 5174SOL    HW217677   4.999   5.348   1.681 -0.3143  2.2329 -0.9113
 5175SOL     OW17678   9.506   3.223   1.405 -0.0904 -0.3274 -0.5023
 5175SOL    HW117679   9.496   3.290   1.472  0.0127  1.4152 -2.1426
 5175SOL    HW217680   9.548   3.149   1.451 -1.9822 -0.0828  1.8047
 5176SOL     OW17681   7.112   2.133   8.367  0.1020  0.3108  0.0330
 5176SOL    HW117682   7.057   2.135   8.289  1.3472 -0.4013 -0.9080
 5176SOL    HW217683   7.071   2.067   8.424 -0.2950  0.1460 -0.4379
 5177SOL     OW17684   4.880   0.325   1.595 -0.2762  0.0001 -0.0514
 5177SOL    HW117685   4.892   0.268   1.672  2.0033  2.9373  2.0195
 5177SOL    HW217686   4.787   0.345   1.596 -0.5493 -1.1093  1.1231
 5178SOL     OW17687   1.918   4.568   1.944 -0.0398  0.3817  1.0506
 5178SOL    HW117688   1.967   4.646   1.916  0.1096  0.3055  1.1011
 5178SOL    HW217689   1.827   4.598   1.949 -0.4202 -0.1159 -1.5741
 5179SOL     OW17690   6.872   8.038   2.357 -0.0807 -0.3041 -0.5235
 5179SOL    HW117691   6.856   8.127   2.387  0.6184 -0.7958  1.4340
 5179SOL    HW217692   6.787   7.994   2.364  0.2406 -0.6903  1.9198
 5180SOL     OW17693   0.888   1.687   0.074  0.1203  0.1541 -0.0753
 5180SOL    HW117694   0.951   1.630   0.031 -0.2346 -0.5175  0.2725
 5180SOL    HW217695   0.823   1.627   0.112 -0.4746  0.8056 -0.0332
 5181SOL     OW17696   2.956   0.092   1.598 -0.6381 -0.5093 -0.1709
 5181SOL    HW117697   2.974   0.186   1.596 -1.8680 -0.1776  1.9221
 5181SOL    HW217698   3.041   0.052   1.618 -0.3983  0.2885  0.4969
 5182SOL     OW17699   1.347   4.758   4.112 -0.1107 -0.3932 -0.0773
 5182SOL    HW117700   1.317   4.699   4.180  0.0801  1.7988  2.0474
 5182SOL    HW217701   1.301   4.840   4.129  1.2207  0.7397 -1.5492
 5183SOL     OW17702   5.505   5.888   2.963  0.3694 -0.0051  0.3711
 5183SOL    HW117703   5.510   5.878   3.058  1.9864 -0.1729  0.2965
 5183SOL    HW217704   5.584   5.936   2.940 -0.7170  1.3519 -0.7548
 5184SOL     OW17705   8.895   2.797   2.177  0.1654 -0.1965 -0.1351
 5184SOL    HW117706   8.973   2.812   2.124  0.9671 -2.0294  0.4626
 5184SOL    HW217707   8.906   2.853   2.254 -0.2838  1.3332 -1.1381
 5185SOL     OW17708   4.469   9.282   8.171 -0.7043  0.7606 -0.2661
 5185SOL    HW117709   4.385   9.315   8.205 -1.0870 -0.5051  0.0749
 5185SOL    HW217710   4.444   9.223   8.100 -0.1208  0.1250  0.0525
 5186SOL     OW17711   5.884   3.992   2.024  0.3973  0.0637 -0.0482
 5186SOL    HW117712   5.831   4.024   2.098 -0.0459 -1.2092  0.2128
 5186SOL    HW217713   5.880   3.897   2.032  0.3126 -0.1000 -1.7402
 5187SOL     OW17714   9.055   2.408   2.483 -0.5932 -0.2563 -0.4815
 5187SOL    HW117715   9.090   2.336   2.431 -0.0502  0.9572 -1.8653
 5187SOL    HW217716   8.999   2.456   2.423  0.7611  1.7200 -0.2819
 5188SOL     OW17717   2.100   8.134   7.361  0.0974  0.5432 -0.2870
 5188SOL    HW117718   2.109   8.191   7.437  3.4971  0.0653 -0.1730
 5188SOL    HW217719   2.135   8.050   7.389  2.1972  0.5601 -2.4908
 5189SOL     OW17720   0.430   8.318   7.186  0.6742  0.3713  0.5271
 5189SOL    HW117721   0.463   8.262   7.256  0.2395 -2.9607 -1.7343
 5189SOL    HW217722   0.335   8.314   7.195  0.6391  1.2253  0.6397
 5190SOL     OW17723   4.902   4.192   8.941  0.7914 -0.1730  0.4332
 5190SOL    HW117724   4.850   4.171   8.863 -2.2719  3.2853  1.2370
 5190SOL    HW217725   4.971   4.251   8.910  0.9887 -0.6159  0.0358
 5191SOL     OW17726   6.270   7.259   7.831  0.2846 -0.7654 -0.3397
 5191SOL    HW117727   6.336   7.317   7.870 -2.0145  0.2859  2.3266
 5191SOL    HW217728   6.292   7.172   7.864  0.2786 -0.3947  0.6804
 5192SOL     OW17729   9.145   7.392   9.113  0.3991 -0.4004  0.4247
 5192SOL    HW117730   9.072   7.351   9.067  0.2020  0.5312 -0.1119
 5192SOL    HW217731   9.113   7.402   9.203 -0.3589  0.4963  0.0724
 5193SOL     OW17732   3.748   2.518   3.325  0.0366  0.1952  0.2012
 5193SOL    HW117733   3.822   2.465   3.297  1.0411 -0.2902  3.3260
 5193SOL    HW217734   3.708   2.468   3.396 -2.6533  0.9645 -0.6500
 5194SOL     OW17735   3.177   2.105   4.989  0.1880 -0.0059  0.2525
 5194SOL    HW117736   3.258   2.151   5.009 -0.7705  1.3588  1.2427
 5194SOL    HW217737   3.161   2.051   5.066  1.3825 -2.2091 -0.9649
 5195SOL     OW17738   2.248   8.030   0.964  0.1291  0.6164 -0.2577
 5195SOL    HW117739   2.294   8.066   1.040  0.0222  1.3512 -0.5335
 5195SOL    HW217740   2.192   7.961   1.000  1.8128 -0.6699  0.0207
 5196SOL     OW17741   1.931   9.044   2.812 -0.1812 -0.0473  0.3936
 5196SOL    HW117742   1.871   9.027   2.739  1.3540 -2.4943 -0.4289
 5196SOL    HW217743   1.877   9.035   2.890 -0.9587 -2.0418 -0.3222
 5197SOL     OW17744   4.451   5.129   0.704 -0.3826 -0.1874 -0.1991
 5197SOL    HW117745   4.382   5.063   0.706  0.5106 -1.2420 -2.0676
 5197SOL    HW217746   4.430   5.183   0.628  0.2481  0.1765 -0.1252
 5198SOL     OW17747   7.626   8.939   5.787 -0.2829  0.8478 -0.1072
 5198SOL    HW117748   7.575   8.860   5.772  1.8260 -0.9408  1.4557
 5198SOL    HW217749   7.567   8.997   5.834 -1.2572 -0.6415  0.5824
 5199SOL     OW17750   4.095   2.642   5.873 -0.0956 -0.5597 -0.1207
 5199SOL    HW117751   4.075   2.550   5.855  0.2232 -0.5614 -0.4860
 5199SOL    HW217752   4.190   2.648   5.863  0.3397 -0.8660  2.9753
 5200SOL     OW17753   9.254   4.464   4.628  0.3353 -0.3068  0.4850
 5200SOL    HW117754   9.206   4.407   4.687  0.6499 -0.7524  0.3192
 5200SOL    HW217755   9.275   4.542   4.680  0.1979 -0.4897  0.8129
 5201SOL     OW17756   9.284   8.680   7.520  0.5837  0.2790 -0.7038
 5201SOL    HW117757   9.320   8.638   7.599  0.6883  2.5709  0.5697
 5201SOL    HW217758   9.189   8.680   7.535  0.4368 -0.9236 -1.4981
 5202SOL     OW17759   5.524   0.521   3.407 -0.2391 -0.2966  0.2263
 5202SOL    HW117760   5.508   0.615   3.419  0.8436  0.4895 -3.4207
 5202SOL    HW217761   5.439   0.480   3.424 -1.2393  1.5640 -0.0152
 5203SOL     OW17762   3.758   2.371   1.852 -0.5667  0.5578  0.3054
 5203SOL    HW117763   3.754   2.458   1.893  2.0470  0.4696  0.9248
 5203SOL    HW217764   3.763   2.389   1.758  0.5178  1.1489  0.4543
 5204SOL     OW17765   1.185   1.185   4.432 -1.0189  0.1399 -0.9789
 5204SOL    HW117766   1.135   1.261   4.461  0.5324  1.0295 -0.4706
 5204SOL    HW217767   1.129   1.110   4.451 -1.1678  0.8776  1.9417
 5205SOL     OW17768   7.313   8.476   6.257 -0.0375 -0.0139 -0.5391
 5205SOL    HW117769   7.306   8.528   6.338 -0.1529 -1.4367  0.3928
 5205SOL    HW217770   7.223   8.465   6.228 -0.3344 -2.2241  0.9687
 5206SOL     OW17771   5.533   5.613   7.275 -0.0830 -0.5849  0.2646
 5206SOL    HW117772   5.612   5.633   7.325 -0.0835 -1.8602  0.8166
 5206SOL    HW217773   5.462   5.617   7.340 -0.1586 -1.6992  0.2666
 5207SOL     OW17774   3.617   4.572   6.902  0.0805 -0.5942 -0.1498
 5207SOL    HW117775   3.637   4.565   6.996  0.8211  2.0864 -0.0293
 5207SOL    HW217776   3.703   4.570   6.860  0.0225  1.4734 -0.4479
 5208SOL     OW17777   2.016   1.714   4.722  0.1393 -0.1998 -0.5115
 5208SOL    HW117778   1.990   1.622   4.729 -0.9727  0.1445  0.1210
 5208SOL    HW217779   1.938   1.763   4.748  1.3507  0.8974  1.2840
 5209SOL     OW17780   1.184   4.389   8.356 -0.2818 -0.2170  0.2862
 5209SOL    HW117781   1.151   4.351   8.438  1.5531 -1.2454  0.6108
 5209SOL    HW217782   1.108   4.393   8.298 -1.7717  1.0557  2.1828
 5210SOL     OW17783   4.139   4.143   2.443 -0.0292  0.0890 -0.2280
 5210SOL    HW117784   4.078   4.107   2.508 -1.6613  2.1236 -0.5304
 5210SOL    HW217785   4.225   4.110   2.471 -0.8467 -0.2601  2.1408
 5211SOL     OW17786   3.049   2.308   8.511  0.0885 -0.0491  0.2755
 5211SOL    HW117787   3.131   2.280   8.472  0.1366 -2.4147  1.8932
 5211SOL    HW217788   2.986   2.308   8.439  0.9578 -0.5855 -0.5028
 5212SOL     OW17789   1.031   7.736   4.238 -0.4108 -0.0430  0.2941
 5212SOL    HW117790   0.981   7.673   4.289 -2.0406  0.6288 -0.3855
 5212SOL    HW217791   1.057   7.689   4.159  0.4521 -0.5352  0.8683
 5213SOL     OW17792   7.372   8.438   1.923 -0.6006 -0.0507 -0.1648
 5213SOL    HW117793   7.410   8.514   1.877 -1.5671 -0.3854 -1.5916
 5213SOL    HW217794   7.386   8.457   2.016  0.1171  1.3774 -0.5269
 5214SOL     OW17795   1.501   5.102   6.728  0.0581  0.2116 -0.0323
 5214SOL    HW117796   1.450   5.051   6.791 -0.9435  0.8243 -0.3157
 5214SOL    HW217797   1.579   5.128   6.775 -0.3443  0.0644  0.7314
 5215SOL     OW17798   5.230   4.677   8.354 -0.0725 -0.3073 -1.2495
 5215SOL    HW117799   5.200   4.703   8.267 -0.3980 -1.1112 -1.3900
 5215SOL    HW217800   5.311   4.726   8.367 -0.4193  0.4006 -1.6842
 5216SOL     OW17801   2.100   1.661   1.676 -0.1810 -0.3360  0.3200
 5216SOL    HW117802   2.017   1.692   1.640  0.9736  0.3407 -1.9713
 5216SOL    HW217803   2.136   1.736   1.723  0.0373  0.0151 -0.3985
 5217SOL     OW17804   7.053   9.292   3.652 -0.6908 -0.0499 -0.2633
 5217SOL    HW117805   7.144   9.264   3.644 -1.0152 -1.1149 -0.4390
 5217SOL    HW217806   7.005   9.211   3.669 -1.8415  0.2270 -2.0170
 5218SOL     OW17807   3.333   8.549   8.075 -0.1984  0.2748  0.2290
 5218SOL    HW117808   3.273   8.526   8.004 -0.0255 -2.2838  0.8426
 5218SOL    HW217809   3.296   8.630   8.111 -1.6022  0.3552 -1.2679
 5219SOL     OW17810   8.974   7.957   8.930 -0.0555  0.2691  0.0132
 5219SOL    HW117811   8.967   7.951   8.835  0.8253 -0.1548 -0.0309
 5219SOL    HW217812   9.027   7.882   8.955 -1.0554 -0.1564  0.9387
 5220SOL     OW17813   4.580   2.696   8.948  0.0757  0.2746  0.5334
 5220SOL    HW117814   4.604   2.610   8.913 -1.1660  0.0492  0.1889
 5220SOL    HW217815   4.646   2.756   8.914  0.4570 -0.4029  0.0605
 5221SOL     OW17816   7.767   8.207   0.263 -0.2969 -0.0634  0.1107
 5221SOL    HW117817   7.774   8.120   0.224  0.8037 -0.0014  0.1245
 5221SOL    HW217818   7.851   8.220   0.308 -0.2541  1.1769 -0.2829
 5222SOL     OW17819   1.252   5.667   3.033  0.3159 -0.1224 -0.3912
 5222SOL    HW117820   1.209   5.650   3.117 -1.7979 -1.6857 -1.7016
 5222SOL    HW217821   1.230   5.758   3.013 -0.3099 -0.1498  0.1417
 5223SOL     OW17822   6.936   5.244   1.094  0.5075 -0.7647 -0.2980
 5223SOL    HW117823   6.931   5.162   1.142  0.2732  0.2498  1.4649
 5223SOL    HW217824   6.850   5.256   1.055  0.3667 -1.0748 -0.0756
 5224SOL     OW17825   8.470   9.489   9.133 -0.0100 -0.2694  0.0985
 5224SOL    HW117826   8.388   9.443   9.150  0.1507 -0.8753 -0.6752
 5224SOL    HW217827   8.537   9.432   9.171  0.1255 -0.2552 -0.1162
 5225SOL     OW17828   1.181   6.095   2.839  0.3659 -0.5006  0.3593
 5225SOL    HW117829   1.251   6.158   2.854  0.8492 -0.5442 -1.4951
 5225SOL    HW217830   1.101   6.145   2.851  0.7442  0.4907 -1.1055
 5226SOL     OW17831   1.430   6.694   0.351 -0.5316 -0.0058  0.7608
 5226SOL    HW117832   1.396   6.636   0.282 -0.0516  2.0309 -1.3028
 5226SOL    HW217833   1.366   6.765   0.356  0.1535  0.5789  1.4457
 5227SOL     OW17834   7.780   9.514   2.845 -0.1298  0.3044 -0.2601
 5227SOL    HW117835   7.750   9.498   2.935  0.7404 -0.0615 -0.0130
 5227SOL    HW217836   7.757   9.434   2.798  0.9320 -0.2183  0.0712
 5228SOL     OW17837   7.408   2.879   5.513  0.5697  0.0316  0.3289
 5228SOL    HW117838   7.442   2.894   5.425 -0.2323  0.1274  0.0271
 5228SOL    HW217839   7.390   2.967   5.547  0.4163 -0.0293  0.4029
 5229SOL     OW17840   1.143   7.526   1.509 -0.0305  0.1182 -0.2182
 5229SOL    HW117841   1.237   7.511   1.496  0.3138  0.9952  1.0023
 5229SOL    HW217842   1.134   7.540   1.603 -1.2882  0.7279 -0.4045
 5230SOL     OW17843   0.084   7.156   9.183  0.4423  0.1229  0.0831
 5230SOL    HW117844   0.061   7.242   9.149 -0.2586 -0.2741 -0.4680
 5230SOL    HW217845  -0.000   7.111   9.196  0.6473  0.2335  2.3424
 5231SOL     OW17846   7.105   4.729   6.215  0.3690  0.6676 -0.5828
 5231SOL    HW117847   7.099   4.825   6.219  1.3253  0.7410 -0.7053
 5231SOL    HW217848   7.105   4.709   6.122  2.4577  0.7362 -0.6433
 5232SOL     OW17849   6.639   5.330   5.988 -0.3824  0.8901 -0.0870
 5232SOL    HW117850   6.653   5.279   5.908 -2.6487  2.3689 -1.5308
 5232SOL    HW217851   6.727   5.351   6.018  0.5995 -2.0363 -0.5619
 5233SOL     OW17852   0.923   3.222   9.460 -0.2015 -0.3673  0.2801
 5233SOL    HW117853   0.937   3.159   9.531 -2.0673 -2.1253 -0.7825
 5233SOL    HW217854   1.003   3.274   9.457  0.7946 -1.6781  2.2384
 5234SOL     OW17855   3.958   7.835   9.598  0.2191 -0.4456 -0.7238
 5234SOL    HW117856   4.010   7.758   9.575  0.8616 -0.2823  0.1409
 5234SOL    HW217857   3.960   7.890   9.520  0.8340 -0.7186 -0.9054
 5235SOL     OW17858   9.180   5.077   9.566 -0.3655 -0.4805  0.1567
 5235SOL    HW117859   9.142   5.054   9.481  1.8831 -2.2827 -0.4855
 5235SOL    HW217860   9.208   4.993   9.603  1.3995  0.5234  1.2741
 5236SOL     OW17861   0.668   1.907   7.882  0.9643 -0.4618  0.2702
 5236SOL    HW117862   0.589   1.862   7.912  0.9591 -0.2423  0.5924
 5236SOL    HW217863   0.666   1.991   7.927  1.6554 -0.6611  0.7010
 5237SOL     OW17864   9.172   3.858   5.651 -0.6985 -0.0943 -0.5829
 5237SOL    HW117865   9.256   3.897   5.628 -0.3778 -0.4624 -0.0480
 5237SOL    HW217866   9.190   3.803   5.727 -0.9467 -1.9214 -1.7603
 5238SOL     OW17867   4.201   7.893   2.911 -0.2032 -0.1257  0.4219
 5238SOL    HW117868   4.153   7.976   2.916  2.1956  1.3726 -0.0047
 5238SOL    HW217869   4.274   7.903   2.971  1.3771 -1.0320 -1.2601
 5239SOL     OW17870   4.694   7.691   4.533  0.4924  0.5368  0.0317
 5239SOL    HW117871   4.724   7.612   4.488 -0.8392  1.6264 -3.0803
 5239SOL    HW217872   4.600   7.679   4.542  0.2440  1.8108 -0.6590
 5240SOL     OW17873   3.538   6.819   1.942  0.0448 -0.4912 -0.1409
 5240SOL    HW117874   3.516   6.760   1.869 -0.3712 -0.7065  0.1538
 5240SOL    HW217875   3.519   6.906   1.909  0.3639 -0.5439 -0.4736
 5241SOL     OW17876   5.174   6.368   6.848 -0.1921 -0.5245 -0.1976
 5241SOL    HW117877   5.237   6.297   6.835  0.3592 -0.0441 -0.1918
 5241SOL    HW217878   5.114   6.360   6.774  0.4082 -0.4355 -0.7058
 5242SOL     OW17879   7.450   9.330   6.842 -0.7873 -0.0270  0.3320
 5242SOL    HW117880   7.411   9.270   6.778  2.1238 -2.1232  0.3125
 5242SOL    HW217881   7.471   9.409   6.791 -1.8707 -0.1850 -0.3944
 5243SOL     OW17882   1.884   6.820   5.738  0.6864  0.0538 -0.3111
 5243SOL    HW117883   1.870   6.808   5.832 -1.0966 -1.9841 -0.7640
 5243SOL    HW217884   1.870   6.914   5.724  0.1855  0.2593  1.3389
 5244SOL     OW17885   9.125   6.557   6.169  0.5892 -0.4708  0.3985
 5244SOL    HW117886   9.040   6.527   6.200  0.0151 -1.1970 -1.6727
 5244SOL    HW217887   9.145   6.634   6.222 -0.7978 -0.9623  1.7018
 5245SOL     OW17888   3.052   1.055   2.620  0.3430  0.0555  0.1418
 5245SOL    HW117889   3.143   1.065   2.591 -0.0406  1.2640 -0.7264
 5245SOL    HW217890   3.031   1.137   2.663 -0.5975  0.1418 -0.4479
 5246SOL     OW17891   0.195   2.164   8.234  0.2370  0.0008  0.4192
 5246SOL    HW117892   0.286   2.173   8.205  0.5439 -1.0923  1.0024
 5246SOL    HW217893   0.186   2.229   8.304  0.2445  0.8549 -0.3538
 5247SOL     OW17894   2.959   1.152   7.157 -0.7479 -0.6401 -0.0631
 5247SOL    HW117895   2.880   1.148   7.103  0.0229  1.2563 -1.4606
 5247SOL    HW217896   3.030   1.128   7.097 -0.2122 -2.2025  1.1374
 5248SOL     OW17897   5.411   8.443   3.286 -0.2569  0.4518  0.4018
 5248SOL    HW117898   5.474   8.411   3.350  0.3317 -1.3866 -1.0325
 5248SOL    HW217899   5.334   8.388   3.299  0.1850 -0.5322 -1.0237
 5249SOL     OW17900   7.498   7.156   7.777 -0.2917 -0.1103  0.2294
 5249SOL    HW117901   7.409   7.174   7.808 -0.1333  0.2532  0.4792
 5249SOL    HW217902   7.504   7.204   7.694 -1.3641 -2.6074 -1.4079
 5250SOL     OW17903   7.757   9.015   5.269  0.2569 -0.0816  0.2706
 5250SOL    HW117904   7.699   9.009   5.345 -1.4647 -0.0299 -0.9813
 5250SOL    HW217905   7.698   9.020   5.194  1.8962 -1.4513 -1.2007
 5251SOL     OW17906   2.313   4.885   7.223  0.4860 -0.5142  0.2305
 5251SOL    HW117907   2.359   4.810   7.185 -0.4670 -0.4796 -1.0581
 5251SOL    HW217908   2.268   4.926   7.149  0.0019  0.6248  1.1162
 5252SOL     OW17909   0.736   5.269   0.147 -0.2562  0.5641  0.7496
 5252SOL    HW117910   0.754   5.264   0.053  0.4756 -2.4413  0.9407
 5252SOL    HW217911   0.787   5.344   0.178  1.7123 -0.0336 -0.8453
 5253SOL     OW17912   8.438   6.121   3.617 -0.0979  0.2520 -0.5443
 5253SOL    HW117913   8.376   6.162   3.556 -0.3911 -0.0311 -0.4414
 5253SOL    HW217914   8.452   6.186   3.686 -1.4914 -0.2614  0.2538
 5254SOL     OW17915   4.481   7.135   8.181 -0.4116 -0.1556  0.0579
 5254SOL    HW117916   4.497   7.049   8.221  0.7497  0.2643  0.5634
 5254SOL    HW217917   4.457   7.116   8.091  1.7655 -0.9886 -0.4156
 5255SOL     OW17918   4.471   1.491   1.242 -0.6380 -0.0309  0.1168
 5255SOL    HW117919   4.386   1.501   1.285  0.1886  1.9059  1.4585
 5255SOL    HW217920   4.468   1.551   1.167 -0.0351  1.0624  0.9362
 5256SOL     OW17921   8.994   7.730   9.162  0.5727  0.4925 -0.3980
 5256SOL    HW117922   9.065   7.755   9.103  0.3511  0.2142 -0.7866
 5256SOL    HW217923   8.989   7.635   9.155 -0.9016  0.6267 -1.6336
 5257SOL     OW17924   4.392   6.401   4.768 -0.1333  0.0925 -0.3519
 5257SOL    HW117925   4.378   6.489   4.802 -2.0358  0.2889 -1.5554
 5257SOL    HW217926   4.327   6.390   4.700 -0.3118 -2.4649  0.1270
 5258SOL     OW17927   5.795   0.626   8.649  0.5683  0.2578  0.0076
 5258SOL    HW117928   5.759   0.538   8.633 -1.3375  0.7806  1.1642
 5258SOL    HW217929   5.889   0.611   8.660  0.2019 -1.7537  0.8945
 5259SOL     OW17930   2.391   8.553   5.712  0.2168  0.0721 -0.4172
 5259SOL    HW117931   2.324   8.490   5.683 -1.4423  1.2809  0.5831
 5259SOL    HW217932   2.342   8.619   5.761  2.1856  1.0127  0.3942
 5260SOL     OW17933   3.314   5.876   7.560 -0.5841 -0.1879 -0.0621
 5260SOL    HW117934   3.251   5.829   7.506 -0.7235  0.8964 -0.8665
 5260SOL    HW217935   3.276   5.962   7.573 -1.1981 -0.8011  2.9337
 5261SOL     OW17936   7.774   6.412   2.001  0.2670 -0.1880  0.2079
 5261SOL    HW117937   7.723   6.466   2.060 -0.5002 -1.6184  0.9147
 5261SOL    HW217938   7.715   6.342   1.975  1.1520 -0.5834 -0.8378
 5262SOL     OW17939   0.464   6.091   3.071 -0.2205 -0.1359  0.4264
 5262SOL    HW117940   0.483   6.150   3.144 -0.6568  0.2940  0.2015
 5262SOL    HW217941   0.407   6.024   3.108 -0.8076  0.3337  0.3824
 5263SOL     OW17942   3.888   7.389   1.025  0.3588  0.3434  0.6600
 5263SOL    HW117943   3.817   7.351   1.077  0.4530 -1.9106 -0.7127
 5263SOL    HW217944   3.939   7.313   0.995  0.8641  1.5846 -1.8949
 5264SOL     OW17945   4.675   2.255   0.368  0.1416 -0.3499  0.2771
 5264SOL    HW117946   4.640   2.278   0.455  1.0569 -0.9655  0.8285
 5264SOL    HW217947   4.612   2.192   0.333  0.8480 -1.7498  1.4225
 5265SOL     OW17948   0.873   6.247   0.758 -0.2312 -0.0151  0.0768
 5265SOL    HW117949   0.900   6.332   0.793 -1.5284  0.8277 -0.8841
 5265SOL    HW217950   0.923   6.237   0.677 -1.4026  0.6962 -0.7526
 5266SOL     OW17951   9.026   1.565   4.250 -0.0558  0.1201  0.1472
 5266SOL    HW117952   8.993   1.578   4.161 -0.7583 -2.7428 -0.0811
 5266SOL    HW217953   9.118   1.592   4.245  0.3790 -1.5252 -1.9045
 5267SOL     OW17954   4.215   1.980   0.797  0.1371 -0.0078  0.1520
 5267SOL    HW117955   4.270   1.912   0.758 -0.9133 -0.5984 -0.3533
 5267SOL    HW217956   4.170   1.935   0.869 -1.1273 -0.0763 -0.6512
 5268SOL     OW17957   0.602   8.656   2.814  0.0810 -0.4723 -0.4637
 5268SOL    HW117958   0.565   8.594   2.876 -1.0916 -1.6262 -2.2220
 5268SOL    HW217959   0.546   8.733   2.821  1.0993  0.1849  1.1962
 5269SOL     OW17960   7.112   5.441   0.422 -0.7989 -0.1589  0.1935
 5269SOL    HW117961   7.037   5.494   0.451  0.2092  1.2460  0.2978
 5269SOL    HW217962   7.143   5.398   0.502 -1.4049 -0.6814  0.1649
 5270SOL     OW17963   3.473   5.048   3.628  0.5101  0.3397  0.0079
 5270SOL    HW117964   3.427   5.087   3.553  0.3567  2.6014  1.2049
 5270SOL    HW217965   3.560   5.087   3.626 -0.3003  2.5262  2.4207
 5271SOL     OW17966   4.208   4.320   8.221  0.5364  0.0693  0.4677
 5271SOL    HW117967   4.160   4.341   8.141 -0.4116  0.9030  1.2295
 5271SOL    HW217968   4.193   4.395   8.279  2.0621 -0.0446  1.0556
 5272SOL     OW17969   1.007   7.409   2.098 -0.6819 -0.1454 -0.5952
 5272SOL    HW117970   0.964   7.328   2.124 -0.6251  0.2052  0.6577
 5272SOL    HW217971   0.947   7.448   2.034 -0.7493 -1.1101 -1.1520
 5273SOL     OW17972   1.039   1.154   8.792  0.3151  0.1642  0.1949
 5273SOL    HW117973   1.031   1.073   8.742 -0.7555  0.5050 -0.2041
 5273SOL    HW217974   0.979   1.143   8.866 -1.2604  1.2942 -0.8533
 5274SOL     OW17975   7.970   2.437   3.795  0.1347 -0.3541 -0.0949
 5274SOL    HW117976   7.910   2.453   3.722  0.7729 -0.1294 -0.5715
 5274SOL    HW217977   8.052   2.412   3.754  0.3158 -0.8627  0.5660
 5275SOL     OW17978   7.993   0.367   7.337 -0.5132 -0.0247 -0.1541
 5275SOL    HW117979   8.081   0.403   7.329 -0.5652  0.3511  0.7601
 5275SOL    HW217980   7.936   0.444   7.337 -0.7112 -0.1545  0.7384
 5276SOL     OW17981   8.916   1.208   7.796 -0.1771  0.2304 -0.2338
 5276SOL    HW117982   8.972   1.284   7.814 -0.5828  0.1129  1.8249
 5276SOL    HW217983   8.876   1.188   7.881  0.2516 -2.5638 -0.6137
 5277SOL     OW17984   9.276   3.385   1.822 -0.2437  0.0956 -0.1258
 5277SOL    HW117985   9.311   3.327   1.890  0.4535 -0.7517 -1.1619
 5277SOL    HW217986   9.262   3.469   1.866 -0.4255 -0.6091  1.1995
 5278SOL     OW17987   8.815   1.214   6.719 -0.0772 -0.5536 -0.5741
 5278SOL    HW117988   8.814   1.278   6.790 -0.1976 -0.1829 -0.9002
 5278SOL    HW217989   8.766   1.257   6.648 -1.2079 -1.4903 -0.3941
 5279SOL     OW17990   0.172   7.159   4.875  0.4464  0.5750 -0.2697
 5279SOL    HW117991   0.123   7.237   4.848 -0.1538  1.1790  2.2595
 5279SOL    HW217992   0.110   7.087   4.862  0.3444  0.7755 -0.9081
 5280SOL     OW17993   4.049   1.187   2.383 -0.1857  0.2554  0.4064
 5280SOL    HW117994   4.022   1.256   2.323 -3.6866  0.0616  1.5014
 5280SOL    HW217995   4.094   1.233   2.454 -0.1877  1.0722 -0.1088
 5281SOL     OW17996   4.565   0.984   1.762 -0.2024  0.2473 -0.5183
 5281SOL    HW117997   4.522   1.051   1.814 -1.0676 -0.0146 -0.8796
 5281SOL    HW217998   4.533   0.998   1.673 -0.8538 -1.0022 -0.4981
 5282SOL     OW17999   7.769   9.181   2.730  0.4861  0.2043  0.4950
 5282SOL    HW118000   7.675   9.191   2.745  0.7832  1.7587  1.5718
 5282SOL    HW218001   7.797   9.117   2.796  0.0900 -0.8202 -0.3032
 5283SOL     OW18002   1.281   9.320   7.700  0.2852 -0.4572  0.1852
 5283SOL    HW118003   1.308   9.263   7.628  0.1940 -2.0041  1.3415
 5283SOL    HW218004   1.299   9.270   7.779  0.0519  1.0688  1.2531
 5284SOL     OW18005   3.904   4.374   4.247  0.0966  0.4989 -0.1149
 5284SOL    HW118006   3.864   4.308   4.191 -0.1006  0.4034  0.1357
 5284SOL    HW218007   3.833   4.434   4.268  0.6802  1.9179 -1.9271
 5285SOL     OW18008   4.653   9.479   7.421 -0.5367  0.0378 -0.5593
 5285SOL    HW118009   4.647   9.520   7.507 -0.5732  0.2686 -0.6725
 5285SOL    HW218010   4.580   9.515   7.371 -0.9242 -0.6061 -0.4719
 5286SOL     OW18011   9.592   4.230   6.196 -0.0627 -0.2284  0.1603
 5286SOL    HW118012   9.631   4.237   6.108 -0.6224 -0.1685 -0.0891
 5286SOL    HW218013   9.544   4.147   6.194  0.2884 -0.4460  0.5637
 5287SOL     OW18014   4.653   3.281   8.905 -0.0799  0.4817  0.5777
 5287SOL    HW118015   4.565   3.258   8.877  0.2917  0.4723 -0.6535
 5287SOL    HW218016   4.685   3.204   8.951 -1.2479  1.0305  2.4307
 5288SOL     OW18017   5.991   1.157   0.678 -0.4297 -0.3523  0.4825
 5288SOL    HW118018   6.009   1.251   0.677  0.2839 -0.4747 -0.8684
 5288SOL    HW218019   6.009   1.129   0.768 -1.5557  0.9551  1.1389
 5289SOL     OW18020   7.920   7.607   0.397 -0.1466  0.1910  0.4136
 5289SOL    HW118021   7.969   7.541   0.446  1.3126 -0.0679 -1.2539
 5289SOL    HW218022   7.913   7.570   0.309  1.3894  2.5134 -0.7987
 5290SOL     OW18023   5.308   5.185   1.470  0.6222 -0.1470 -0.0242
 5290SOL    HW118024   5.359   5.121   1.519  0.2536  0.7317  1.5660
 5290SOL    HW218025   5.260   5.133   1.406 -0.1245 -1.5539  1.5978
 5291SOL     OW18026   7.401   3.618   3.546 -0.2512  0.0827  0.3999
 5291SOL    HW118027   7.382   3.607   3.453  0.3403 -0.1733  0.3017
 5291SOL    HW218028   7.395   3.529   3.582  1.5942 -0.1652  0.1901
 5292SOL     OW18029   4.930   8.702   0.615  0.4528 -0.3480 -0.1879
 5292SOL    HW118030   5.023   8.724   0.617  0.3528  0.0114  1.1985
 5292SOL    HW218031   4.887   8.782   0.584  0.4495  0.0810  0.9128
 5293SOL     OW18032   2.747   5.177   2.691 -0.3468  0.2275 -0.0209
 5293SOL    HW118033   2.711   5.237   2.626 -2.1356 -0.3278  0.4123
 5293SOL    HW218034   2.671   5.133   2.728  0.8979 -2.3919 -0.3826
 5294SOL     OW18035   7.770   4.014   0.626 -0.1074 -0.1549  0.2529
 5294SOL    HW118036   7.679   3.987   0.634 -0.8434  2.5372  2.7013
 5294SOL    HW218037   7.784   4.021   0.531 -2.0643 -1.6329 -0.2136
 5295SOL     OW18038   5.947   0.401   2.896  0.7977 -0.2888  0.8599
 5295SOL    HW118039   5.904   0.378   2.978 -3.1658 -0.3610 -1.0128
 5295SOL    HW218040   5.911   0.339   2.832 -0.5151  3.0533 -1.9380
 5296SOL     OW18041   5.343   4.980   1.150 -0.2659  0.5115  0.1266
 5296SOL    HW118042   5.379   4.893   1.166 -0.8873  0.6176  2.3263
 5296SOL    HW218043   5.353   4.992   1.055 -0.3997 -2.0462 -0.2883
 5297SOL     OW18044   6.175   0.646   5.877 -0.2765  0.1816 -0.0168
 5297SOL    HW118045   6.214   0.624   5.962 -1.3125 -0.8293  0.2174
 5297SOL    HW218046   6.145   0.736   5.887  1.6589  0.8983 -0.1035
 5298SOL     OW18047   7.006   1.087   8.194  0.1315 -0.0860 -0.0970
 5298SOL    HW118048   6.974   1.025   8.260  2.4998 -0.8251  0.4293
 5298SOL    HW218049   7.054   1.033   8.131  0.8549  1.0126 -0.5170
 5299SOL     OW18050   2.600   2.045   1.837  0.0362 -0.2831  0.5854
 5299SOL    HW118051   2.587   1.951   1.848 -1.7526  0.0573  1.8081
 5299SOL    HW218052   2.535   2.086   1.894 -0.2718  1.7172 -1.0369
 5300SOL     OW18053   4.974   5.648   5.267 -0.5339 -0.8265 -0.0024
 5300SOL    HW118054   4.988   5.707   5.341  4.3374  0.4073 -1.5423
 5300SOL    HW218055   4.958   5.563   5.307  1.9328 -0.2359  2.5771
 5301SOL     OW18056   3.680   6.693   4.776 -0.3657 -0.0065 -0.5400
 5301SOL    HW118057   3.663   6.600   4.761  1.9384 -0.3851 -1.1378
 5301SOL    HW218058   3.756   6.694   4.835 -1.3815  1.5318  0.8408
 5302SOL     OW18059   0.752   4.822   8.010  0.0954  0.6614  0.4535
 5302SOL    HW118060   0.721   4.749   8.062  0.1680 -0.5624 -1.1411
 5302SOL    HW218061   0.810   4.871   8.068  0.9982 -1.2281  1.1971
 5303SOL     OW18062   7.992   2.877   3.369  0.1469 -0.4993 -0.1732
 5303SOL    HW118063   7.921   2.827   3.331 -0.7102  0.7248 -0.2333
 5303SOL    HW218064   7.974   2.968   3.345  2.2439 -0.2362 -1.0237
 5304SOL     OW18065   6.400   1.842   3.627 -0.0672 -0.8631  0.7921
 5304SOL    HW118066   6.490   1.872   3.612 -0.5380 -0.2055 -1.0782
 5304SOL    HW218067   6.370   1.813   3.540 -2.6121  1.7187  0.6472
 5305SOL     OW18068   5.179   4.649   3.056  0.1556  0.3080  0.4144
 5305SOL    HW118069   5.268   4.644   3.021  0.1593  0.6927  0.3594
 5305SOL    HW218070   5.189   4.692   3.141 -0.0822  1.2623 -0.0243
 5306SOL     OW18071   7.032   2.989   1.671  0.1817 -0.2493 -0.5964
 5306SOL    HW118072   7.071   2.997   1.758 -2.1045  0.8695  0.4235
 5306SOL    HW218073   6.954   2.935   1.685 -0.7058  0.6763 -1.7525
 5307SOL     OW18074   6.004   6.124   3.497 -0.2898 -0.3075 -0.4339
 5307SOL    HW118075   5.924   6.175   3.481  0.0063 -0.4299 -2.6793
 5307SOL    HW218076   6.060   6.182   3.548 -1.1079  0.4969 -0.4246
 5308SOL     OW18077   7.199   0.542   7.458 -0.5177  0.1205 -0.3897
 5308SOL    HW118078   7.237   0.539   7.370 -0.8684  2.3874 -0.6803
 5308SOL    HW218079   7.251   0.481   7.509  1.2912  0.5733 -1.6020
 5309SOL     OW18080   1.877   2.870   7.607  0.0713  0.0002 -0.5122
 5309SOL    HW118081   1.817   2.795   7.607 -0.8640  0.7153  0.4544
 5309SOL    HW218082   1.871   2.906   7.519 -0.8156 -0.0281 -0.4708
 5310SOL     OW18083   8.398   2.549   7.756 -0.0688 -0.2777  0.7269
 5310SOL    HW118084   8.486   2.548   7.720 -0.8652  0.3507 -1.3940
 5310SOL    HW218085   8.377   2.642   7.765 -0.6185 -0.4163  0.9525
 5311SOL     OW18086   6.231   6.393   7.030  0.1557 -0.0002  0.6010
 5311SOL    HW118087   6.168   6.330   7.065 -1.8458  1.5564  0.0106
 5311SOL    HW218088   6.203   6.407   6.940  3.6102 -1.9545 -0.9668
 5312SOL     OW18089   1.712   7.224   3.382  0.3953  0.3862  0.1140
 5312SOL    HW118090   1.777   7.246   3.315 -0.5822 -0.5275 -1.1738
 5312SOL    HW218091   1.642   7.180   3.334  0.3541 -1.6785  1.9626
 5313SOL     OW18092   5.364   5.850   3.425 -0.0070  0.7604 -0.1261
 5313SOL    HW118093   5.383   5.757   3.438 -1.3224  0.1598 -2.0832
 5313SOL    HW218094   5.272   5.860   3.453  0.0631  1.4303 -0.1180
 5314SOL     OW18095   3.758   9.609   2.799 -0.2229 -0.1578 -0.7855
 5314SOL    HW118096   3.704   9.688   2.804 -0.7179 -0.5255 -0.2159
 5314SOL    HW218097   3.700   9.538   2.829  0.9027 -0.3931  1.0164
 5315SOL     OW18098   0.250   0.440   7.121 -0.4089  0.0189 -0.2417
 5315SOL    HW118099   0.188   0.371   7.144 -1.3501  0.3229 -1.7286
 5315SOL    HW218100   0.195   0.513   7.094  0.5630  1.3537  1.1776
 5316SOL     OW18101   3.674   4.829   2.906  0.0539  0.6590 -0.1639
 5316SOL    HW118102   3.739   4.854   2.840 -0.1090 -0.1698 -0.6496
 5316SOL    HW218103   3.718   4.763   2.959  0.1956  1.3409  0.6032
 5317SOL     OW18104   2.993   2.555   1.796 -0.1018 -0.3099  0.5953
 5317SOL    HW118105   2.973   2.643   1.829 -2.3742 -0.0096 -1.3401
 5317SOL    HW218106   2.988   2.499   1.872  2.0136  1.2531  2.0096
 5318SOL     OW18107   2.695   6.005   7.810 -0.1373  0.1787 -0.0015
 5318SOL    HW118108   2.645   5.942   7.758 -1.5708 -0.3703  1.9452
 5318SOL    HW218109   2.642   6.085   7.810 -0.1774  0.1575  0.6367
 5319SOL     OW18110   1.043   4.693   7.437  0.1396  0.3856 -0.0164
 5319SOL    HW118111   1.007   4.620   7.487 -1.0394 -0.0863 -1.4908
 5319SOL    HW218112   1.137   4.673   7.430 -0.2321 -1.2852 -0.8126
 5320SOL     OW18113   6.310   9.134   2.439 -0.2195  0.2663  0.1207
 5320SOL    HW118114   6.376   9.077   2.398 -0.3254 -0.8018  1.3599
 5320SOL    HW218115   6.291   9.200   2.373  0.9149 -0.3495 -0.8677
 5321SOL     OW18116   8.491   0.363   8.541  0.2726  0.0429 -0.0106
 5321SOL    HW118117   8.423   0.368   8.609 -0.9138 -0.5893 -1.1025
 5321SOL    HW218118   8.442   0.363   8.459  1.7163  1.6819 -0.9291
 5322SOL     OW18119   1.649   0.695   7.295  0.0844  0.0351 -0.6316
 5322SOL    HW118120   1.731   0.732   7.325  0.3166 -0.2038 -0.9528
 5322SOL    HW218121   1.633   0.620   7.353  0.9927 -0.9731 -1.6286
 5323SOL     OW18122   0.308   1.516   8.944 -0.6710  0.9228 -0.4101
 5323SOL    HW118123   0.273   1.439   8.899 -2.4165  0.8437  0.9757
 5323SOL    HW218124   0.350   1.481   9.023  0.4117  1.2444 -0.8242
 5324SOL     OW18125   9.188   2.129   1.032 -0.0169 -0.4248  0.0832
 5324SOL    HW118126   9.109   2.090   0.995 -0.7115 -0.1149  1.2073
 5324SOL    HW218127   9.226   2.060   1.086 -0.6120  0.0555  1.1362
 5325SOL     OW18128   4.259   0.817   7.457 -0.1478  0.1375 -0.4197
 5325SOL    HW118129   4.284   0.792   7.368 -0.9971  0.5842 -0.7965
 5325SOL    HW218130   4.340   0.850   7.497  0.0553  0.7363 -1.3126
 5326SOL     OW18131   4.633   6.577   3.656  0.0702 -0.5500 -0.1781
 5326SOL    HW118132   4.687   6.568   3.577 -1.1837  1.1783 -1.2917
 5326SOL    HW218133   4.674   6.518   3.720  1.4881 -1.5214 -1.9047
 5327SOL     OW18134   0.550   2.518   1.300  0.4808 -0.0258  0.4806
 5327SOL    HW118135   0.567   2.435   1.254 -1.7884  0.0588 -0.6577
 5327SOL    HW218136   0.591   2.584   1.244 -1.6325  0.0041 -1.1364
 5328SOL     OW18137   6.631   5.813   2.368  0.3113 -0.3629 -0.3580
 5328SOL    HW118138   6.685   5.766   2.305  0.1461 -0.0713 -0.7195
 5328SOL    HW218139   6.693   5.860   2.424  0.4456 -0.3776 -0.4960
 5329SOL     OW18140   0.317   4.994   9.128  0.8710  0.1085  0.0523
 5329SOL    HW118141   0.372   5.012   9.204  0.5383 -0.5162  0.4555
 5329SOL    HW218142   0.227   4.997   9.162  0.7164 -0.1055 -0.3286
 5330SOL     OW18143   0.452   5.160   8.334 -0.2278 -0.0330  0.0291
 5330SOL    HW118144   0.511   5.104   8.284 -0.5516 -0.9106  0.6015
 5330SOL    HW218145   0.510   5.226   8.374  0.3036 -0.5900  0.1947
 5331SOL     OW18146   0.577   1.413   4.806  0.3611  0.2228 -0.3005
 5331SOL    HW118147   0.574   1.491   4.862 -0.8855 -0.7743  1.1337
 5331SOL    HW218148   0.593   1.447   4.718 -0.9647  2.1951  0.1417
 5332SOL     OW18149   4.196   6.008   7.151 -0.0282 -0.1560 -0.1086
 5332SOL    HW118150   4.283   5.982   7.121 -0.1654 -0.9677  0.1838
 5332SOL    HW218151   4.191   6.102   7.132  0.9723 -0.0681  0.0396
 5333SOL     OW18152   3.220   9.571   8.603  0.1094  0.0836  0.0930
 5333SOL    HW118153   3.219   9.564   8.507  1.2004 -0.3019  0.0929
 5333SOL    HW218154   3.305   9.611   8.623 -0.7663  1.6683  0.8326
 5334SOL     OW18155   7.890   6.531   7.152 -0.3705  0.0833  0.6165
 5334SOL    HW118156   7.906   6.489   7.237 -0.4300 -2.2879 -0.4835
 5334SOL    HW218157   7.966   6.507   7.099 -2.7006 -3.0588 -1.6230
 5335SOL     OW18158   9.361   0.594   2.703  0.0505  0.1429  0.3324
 5335SOL    HW118159   9.410   0.515   2.679 -1.1392  0.0672 -2.2399
 5335SOL    HW218160   9.270   0.571   2.686 -0.3909  1.8519  0.2174
 5336SOL     OW18161   3.825   4.991   3.781 -0.1117 -0.3154  0.1330
 5336SOL    HW118162   3.829   5.008   3.687  0.0363  2.7463  0.5849
 5336SOL    HW218163   3.735   4.963   3.797 -0.0955 -1.0101 -0.9240
 5337SOL     OW18164   2.973   1.134   4.600 -0.3775 -0.0360 -0.1787
 5337SOL    HW118165   3.009   1.212   4.558  0.5601  0.5046  1.5415
 5337SOL    HW218166   2.997   1.143   4.692 -0.2310 -2.3672  0.0676
 5338SOL     OW18167   9.604   4.472   8.559  0.7531 -0.4898 -0.1710
 5338SOL    HW118168   9.684   4.500   8.514  0.1913  1.4180 -0.0766
 5338SOL    HW218169   9.605   4.522   8.641 -0.8937  0.1526 -0.5137
 5339SOL     OW18170   1.719   7.650   3.643  0.1313  0.0229 -0.0358
 5339SOL    HW118171   1.652   7.600   3.596  0.5502 -0.8933  0.3067
 5339SOL    HW218172   1.762   7.702   3.575  0.8799 -1.4534 -0.7489
 5340SOL     OW18173   5.526   1.808   6.208 -0.1868  0.2177  0.3988
 5340SOL    HW118174   5.505   1.854   6.127 -0.7501  1.8512  1.4309
 5340SOL    HW218175   5.484   1.722   6.198  1.2169 -0.2974 -1.7287
 5341SOL     OW18176   1.249   8.399   4.652 -0.1065  0.0084 -0.1574
 5341SOL    HW118177   1.169   8.451   4.646 -0.9136 -1.0773  0.8681
 5341SOL    HW218178   1.278   8.408   4.743 -0.3526 -1.4481  0.0826
 5342SOL     OW18179   0.605   6.643   3.493  0.2044  1.4878  0.1170
 5342SOL    HW118180   0.572   6.652   3.403 -1.5134  0.8965  0.6553
 5342SOL    HW218181   0.537   6.683   3.547 -0.3336 -0.9661  1.3791
 5343SOL     OW18182   3.569   2.019   2.582 -0.2965  0.3535  0.0051
 5343SOL    HW118183   3.571   1.999   2.675  1.7086  1.8119  0.3317
 5343SOL    HW218184   3.476   2.030   2.562 -1.0197 -2.5656  1.1837
 5344SOL     OW18185   3.189   0.437   5.355  0.6977  0.3565 -0.6670
 5344SOL    HW118186   3.195   0.531   5.342  1.1455  0.4187 -0.0384
 5344SOL    HW218187   3.182   0.426   5.450 -0.2550 -0.1944 -0.7857
 5345SOL     OW18188   7.993   2.141   4.359 -0.0704 -0.0643  0.3448
 5345SOL    HW118189   8.051   2.131   4.435  0.0160  0.6599  0.3793
 5345SOL    HW218190   7.905   2.134   4.395 -0.0474  1.0254  0.6356
 5346SOL     OW18191   8.529   4.795   5.708  0.0973 -0.2852  0.0080
 5346SOL    HW118192   8.476   4.873   5.725  1.4801  0.8358 -0.7029
 5346SOL    HW218193   8.502   4.733   5.777 -0.0461  1.2892  1.4415
 5347SOL     OW18194   4.956   9.242   1.395  0.3928 -0.0463  0.4048
 5347SOL    HW118195   5.038   9.243   1.445 -0.5516  0.9988  2.0060
 5347SOL    HW218196   4.922   9.154   1.407  0.8010 -0.1903  0.5325
 5348SOL     OW18197   8.542   0.421   1.413  0.6218 -0.1841 -0.6062
 5348SOL    HW118198   8.457   0.395   1.377  0.4407 -1.0820  0.4241
 5348SOL    HW218199   8.520   0.472   1.491  1.0364 -1.0284  0.0680
 5349SOL     OW18200   0.087   1.490   3.736 -0.3516 -0.2051  0.1298
 5349SOL    HW118201   0.028   1.436   3.684 -0.4003 -0.6699  0.6602
 5349SOL    HW218202   0.037   1.570   3.753 -0.2606  0.0399 -0.6955
 5350SOL     OW18203   8.716   6.896   5.261 -0.2271 -0.3654 -0.0937
 5350SOL    HW118204   8.774   6.972   5.257 -0.5470 -0.0664  0.7211
 5350SOL    HW218205   8.743   6.849   5.340 -1.6454  0.2588  0.8080
 5351SOL     OW18206   4.049   9.584   4.646 -0.6477 -0.1151  0.1422
 5351SOL    HW118207   3.998   9.505   4.664 -1.3067  0.2196 -0.2179
 5351SOL    HW218208   4.022   9.646   4.714  0.3391 -0.3948  0.8139
 5352SOL     OW18209   2.330   0.150   2.642  0.1347  0.2773 -0.3084
 5352SOL    HW118210   2.313   0.189   2.556  1.6022  0.3197 -0.6179
 5352SOL    HW218211   2.283   0.206   2.704 -1.5780 -0.1985 -1.1209
 5353SOL     OW18212   2.456   3.706   1.246  0.2374  0.7620  0.5739
 5353SOL    HW118213   2.525   3.733   1.185 -1.9234  2.7449 -1.1481
 5353SOL    HW218214   2.422   3.788   1.281 -1.9771 -0.0844  0.5289
 5354SOL     OW18215   1.557   7.730   5.676 -0.4123  0.9868  0.1626
 5354SOL    HW118216   1.560   7.761   5.585 -0.2069  0.3985 -0.0370
 5354SOL    HW218217   1.600   7.645   5.674 -0.4368  0.9516  0.8107
 5355SOL     OW18218   1.842   2.332   7.839  0.8834 -0.0763  0.3907
 5355SOL    HW118219   1.918   2.390   7.823  0.5027  0.6084  0.9877
 5355SOL    HW218220   1.801   2.323   7.753  2.2109 -1.3060 -0.1603
 5356SOL     OW18221   7.961   3.470   0.265  0.3418  0.4898 -0.4410
 5356SOL    HW118222   8.000   3.385   0.287  1.4670  1.1923  0.3601
 5356SOL    HW218223   8.031   3.534   0.281 -0.4275  1.5539 -1.2158
 5357SOL     OW18224   0.140   2.272   3.604  0.3139 -0.1477  0.4500
 5357SOL    HW118225   0.182   2.196   3.644 -0.7769  0.6149  3.3357
 5357SOL    HW218226   0.079   2.235   3.541  0.1362 -1.6897  1.4557
 5358SOL     OW18227   0.725   9.324   0.162 -0.1685  0.0089  0.5644
 5358SOL    HW118228   0.656   9.351   0.223 -0.2634  0.2428  0.3557
 5358SOL    HW218229   0.742   9.233   0.184 -0.0091  0.1687  1.1250
 5359SOL     OW18230   9.534   8.392   7.454 -0.1597  0.1617  0.6407
 5359SOL    HW118231   9.614   8.343   7.475  0.0594  0.3457  0.2504
 5359SOL    HW218232   9.465   8.348   7.503 -0.0374 -0.7842 -0.0101
 5360SOL     OW18233   5.114   2.949   9.321  0.4975  0.8757  0.0712
 5360SOL    HW118234   5.123   3.035   9.278  2.1234 -0.3356 -2.2038
 5360SOL    HW218235   5.198   2.935   9.363  0.4881  0.0868 -0.1695
 5361SOL     OW18236   2.404   0.593   4.947  0.4512 -0.5575 -0.5309
 5361SOL    HW118237   2.446   0.507   4.940  2.5776  0.2860  0.6341
 5361SOL    HW218238   2.396   0.608   5.042 -1.2502 -0.0529 -0.7195
 5362SOL     OW18239   4.768   8.094   3.562 -0.4958 -0.1359 -0.2210
 5362SOL    HW118240   4.814   8.162   3.611 -0.3374 -0.3676 -0.0453
 5362SOL    HW218241   4.711   8.141   3.502  1.1075  0.1920 -1.5601
 5363SOL     OW18242   1.920   4.096   3.025 -0.5331 -0.3142 -0.4857
 5363SOL    HW118243   1.909   4.090   2.930 -2.0659  0.8515 -0.4072
 5363SOL    HW218244   1.850   4.041   3.060 -1.8665  1.6059 -0.0284
 5364SOL     OW18245   3.763   2.712   0.027  0.0294  0.3585  0.2244
 5364SOL    HW118246   3.715   2.644  -0.020 -0.2902  0.8961 -0.2381
 5364SOL    HW218247   3.708   2.732   0.103 -0.4756  0.9727 -0.3037
 5365SOL     OW18248   1.172   1.162   5.821 -0.5634 -0.3085  0.7752
 5365SOL    HW118249   1.213   1.238   5.862 -2.3318 -0.5908  3.3303
 5365SOL    HW218250   1.084   1.192   5.797 -0.0084 -0.5297 -1.8416
 5366SOL     OW18251   6.915   8.366   3.476 -0.1864 -1.4556  0.5245
 5366SOL    HW118252   6.984   8.310   3.440  0.3633 -1.2053  1.1679
 5366SOL    HW218253   6.835   8.315   3.465 -0.1168 -1.2008 -1.4438
 5367SOL     OW18254   8.798   2.489   7.980  0.2716  0.5020 -0.1349
 5367SOL    HW118255   8.830   2.445   8.059  0.0137 -0.1439 -0.3764
 5367SOL    HW218256   8.738   2.555   8.012  1.1429  1.1146  0.2738
 5368SOL     OW18257   0.622   3.053   9.281  0.2618 -0.0803  0.5047
 5368SOL    HW118258   0.564   2.987   9.318 -0.5491  0.1834 -0.2602
 5368SOL    HW218259   0.573   3.135   9.289  0.8548  0.2785  0.5532
 5369SOL     OW18260   7.319   2.468   2.838  0.8964 -0.4659  0.3691
 5369SOL    HW118261   7.342   2.375   2.846  0.1293 -0.7014 -0.0592
 5369SOL    HW218262   7.249   2.470   2.773 -0.9913  0.1010  2.2797
 5370SOL     OW18263   4.369   0.228   0.907  0.2976  0.3612  0.1595
 5370SOL    HW118264   4.376   0.294   0.976 -0.4876  0.1136  0.4889
 5370SOL    HW218265   4.386   0.275   0.826  0.7166  0.7601  0.4749
 5371SOL     OW18266   8.505   1.614   2.991 -0.4025  0.1416 -0.3668
 5371SOL    HW118267   8.478   1.689   3.044 -0.9912 -0.6966  0.5512
 5371SOL    HW218268   8.433   1.602   2.928 -0.4539  0.1534 -0.3102
 5372SOL     OW18269   0.295   1.001   7.492 -0.3771 -0.5528 -0.1949
 5372SOL    HW118270   0.223   1.059   7.518 -0.4446 -0.6041 -0.2687
 5372SOL    HW218271   0.276   0.918   7.534 -0.4579 -0.6203 -0.3650
 5373SOL     OW18272   6.883   6.379   0.862 -0.0070 -0.5952 -0.2887
 5373SOL    HW118273   6.942   6.443   0.822 -1.4765  1.1361  0.2143
 5373SOL    HW218274   6.882   6.401   0.955  0.2478 -2.0321  0.0787
 5374SOL     OW18275   7.769   7.654   4.282  0.8008 -0.2430 -0.0762
 5374SOL    HW118276   7.841   7.650   4.219  0.2928  0.1047 -0.6800
 5374SOL    HW218277   7.719   7.731   4.258  0.9518  0.2640  1.1483
 5375SOL     OW18278   3.000   1.782   2.443 -0.7048 -0.3729 -0.0809
 5375SOL    HW118279   2.914   1.823   2.428 -1.5791 -1.2989  2.0052
 5375SOL    HW218280   3.037   1.830   2.517  0.1991 -0.5590 -0.4068
 5376SOL     OW18281   3.894   8.399   3.992 -0.4622  0.6256  0.1293
 5376SOL    HW118282   3.935   8.316   3.966 -1.5966  0.0226  0.1846
 5376SOL    HW218283   3.875   8.443   3.909 -1.6138 -0.0683 -0.0005
 5377SOL     OW18284   3.215   5.528   8.149 -0.0266 -0.3445 -0.8276
 5377SOL    HW118285   3.124   5.500   8.137 -0.2759 -1.4077  2.3809
 5377SOL    HW218286   3.263   5.446   8.160  0.7096  0.2491  0.6685
 5378SOL     OW18287   8.312   5.689   3.270  0.3988  0.2767 -0.3039
 5378SOL    HW118288   8.364   5.663   3.346  0.7549 -2.5199 -1.3849
 5378SOL    HW218289   8.375   5.699   3.199 -0.1366  0.8605 -0.7151
 5379SOL     OW18290   8.575   5.252   6.120 -0.1994 -0.0382 -0.2664
 5379SOL    HW118291   8.595   5.165   6.085  1.1826  1.0303 -2.4056
 5379SOL    HW218292   8.646   5.271   6.181 -0.5745 -0.4320  0.3047
 5380SOL     OW18293   6.547   1.007   4.577 -0.0440 -0.4317  0.5959
 5380SOL    HW118294   6.467   0.975   4.536  0.3365 -2.4309  1.3191
 5380SOL    HW218295   6.553   0.959   4.660  1.8961 -0.3645  0.5486
 5381SOL     OW18296   4.620   6.634   7.255  0.3439 -0.2434 -0.1420
 5381SOL    HW118297   4.527   6.616   7.242  0.4202 -1.7230  1.1435
 5381SOL    HW218298   4.636   6.713   7.203 -1.6951  0.2532 -0.0974
 5382SOL     OW18299   5.520   7.450   1.258  0.1902  0.1700  0.3912
 5382SOL    HW118300   5.587   7.423   1.322  0.7897 -0.5776 -0.5077
 5382SOL    HW218301   5.564   7.515   1.204  0.2720 -0.4793 -0.3369
 5383SOL     OW18302   4.740   9.460   5.937  0.3331 -0.3432 -0.2766
 5383SOL    HW118303   4.810   9.520   5.962 -1.7080  1.1929  2.1849
 5383SOL    HW218304   4.735   9.469   5.842  1.3915  1.9327 -0.1960
 5384SOL     OW18305   4.372   5.789   5.067 -0.0757 -0.4921  0.4845
 5384SOL    HW118306   4.451   5.805   5.015 -1.1869 -0.7738 -1.3517
 5384SOL    HW218307   4.392   5.709   5.116 -0.7323 -3.2710 -3.3439
 5385SOL     OW18308   5.586   5.188   3.810 -0.3005  0.0778 -0.2795
 5385SOL    HW118309   5.576   5.136   3.889 -2.2676  1.2804  0.3272
 5385SOL    HW218310   5.639   5.133   3.752  1.3066 -0.7773  1.8679
 5386SOL     OW18311   2.785   1.775   6.768 -0.5329  0.1335 -0.6363
 5386SOL    HW118312   2.774   1.812   6.855 -1.9639 -0.5019 -0.5230
 5386SOL    HW218313   2.780   1.851   6.709 -1.1165  0.3990 -0.2577
 5387SOL     OW18314   4.987   2.215   3.621  0.2186 -0.1008  0.5806
 5387SOL    HW118315   4.989   2.310   3.613  1.4946 -0.1858 -0.3946
 5387SOL    HW218316   4.940   2.199   3.703 -1.2664  1.3063  0.0741
 5388SOL     OW18317   9.264   8.964   9.620 -0.3352 -0.1382  0.2989
 5388SOL    HW118318   9.311   8.909   9.683 -1.4943 -0.7238  0.6751
 5388SOL    HW218319   9.309   8.949   9.537 -0.6697 -1.7382  0.3763
 5389SOL     OW18320   3.774   0.299   4.762 -0.0032 -0.7619  0.0803
 5389SOL    HW118321   3.803   0.306   4.671 -0.3318 -1.0572 -0.0504
 5389SOL    HW218322   3.854   0.311   4.813  0.2165 -0.7780 -0.2525
 5390SOL     OW18323   4.165   2.467   6.709 -0.2856  0.0963 -0.6417
 5390SOL    HW118324   4.160   2.489   6.616  0.3052 -1.3764 -1.0629
 5390SOL    HW218325   4.254   2.491   6.735  0.9362 -2.9411 -1.5116
 5391SOL     OW18326   2.259   6.888   2.808 -0.2154  0.6410 -0.1502
 5391SOL    HW118327   2.289   6.968   2.850  0.7528  0.9941 -1.4531
 5391SOL    HW218328   2.318   6.820   2.842  1.0909  1.0574 -1.4514
 5392SOL     OW18329   5.205   2.607   5.957 -0.3585  0.0023 -0.1816
 5392SOL    HW118330   5.206   2.604   5.861  1.0131  1.3071 -0.2434
 5392SOL    HW218331   5.213   2.515   5.984 -0.8180 -0.3859 -1.3062
 5393SOL     OW18332   6.943   4.653   4.059  0.2585  0.6052 -0.0576
 5393SOL    HW118333   7.014   4.589   4.058  0.2495  0.5790  0.5538
 5393SOL    HW218334   6.912   4.657   3.968 -0.3244 -0.9181  0.0489
 5394SOL     OW18335   2.335   3.800   2.426 -0.3825  0.5374  0.0234
 5394SOL    HW118336   2.324   3.887   2.462  2.1061  1.0714 -0.3842
 5394SOL    HW218337   2.428   3.781   2.435 -0.4029 -1.0145 -2.2341
 5395SOL     OW18338   1.671   6.593   5.506  0.0655 -0.3903  0.2403
 5395SOL    HW118339   1.622   6.673   5.487 -0.0276 -0.3452  0.6578
 5395SOL    HW218340   1.614   6.522   5.477 -0.4042 -0.3520  1.0458
 5396SOL     OW18341   0.484   7.238   1.493  0.0993  0.2599 -0.1455
 5396SOL    HW118342   0.430   7.316   1.490 -0.2426  0.0231 -0.1989
 5396SOL    HW218343   0.564   7.262   1.446 -0.4797  0.2141 -1.1748
 5397SOL     OW18344   7.702   8.709   4.324  0.2957 -0.5944  0.0355
 5397SOL    HW118345   7.613   8.681   4.304 -0.0815  0.2877  0.4412
 5397SOL    HW218346   7.709   8.797   4.285  1.6070 -1.3661 -1.6587
 5398SOL     OW18347   5.046   4.955   4.083  0.4060  0.2557 -0.2483
 5398SOL    HW118348   4.995   4.938   4.162  1.0729  0.1727  0.1715
 5398SOL    HW218349   4.991   5.014   4.031 -0.4182 -0.3957 -0.1327
 5399SOL     OW18350   6.409   7.078   8.621 -0.0839 -0.0902 -0.3900
 5399SOL    HW118351   6.473   7.134   8.576 -0.0208  0.0581 -0.1228
 5399SOL    HW218352   6.324   7.116   8.599 -0.0109  0.4695  0.2606
 5400SOL     OW18353   5.476   5.553   2.268 -0.4165  0.1359  0.2539
 5400SOL    HW118354   5.571   5.556   2.255 -0.5246 -1.9229 -1.6067
 5400SOL    HW218355   5.461   5.471   2.315 -1.3543 -0.3024 -0.7648
 5401SOL     OW18356   8.918   4.115   3.546 -0.3376 -0.2079 -0.0089
 5401SOL    HW118357   8.991   4.063   3.516 -1.1258 -0.6191 -1.2748
 5401SOL    HW218358   8.864   4.130   3.468 -1.7230 -0.1233  0.9131
 5402SOL     OW18359   1.174   3.099   6.156 -0.0531  0.3631  0.5655
 5402SOL    HW118360   1.207   3.028   6.212 -0.4686 -0.5834 -0.3426
 5402SOL    HW218361   1.240   3.108   6.087  0.4999  1.5814  1.2197
 5403SOL     OW18362   0.451   7.086   5.255  0.0075  0.1634  0.3456
 5403SOL    HW118363   0.449   7.181   5.254  0.4627  0.1710 -0.0453
 5403SOL    HW218364   0.494   7.061   5.173 -0.7594 -0.3973  0.0976
 5404SOL     OW18365   8.192   3.744   1.731  0.3436 -0.2870  0.0948
 5404SOL    HW118366   8.274   3.781   1.698  0.3901 -1.8510 -1.7517
 5404SOL    HW218367   8.212   3.718   1.821  1.8502 -0.4871 -0.2660
 5405SOL     OW18368   7.999   2.531   6.559  0.2806 -0.1684 -0.7475
 5405SOL    HW118369   8.083   2.565   6.529  1.9480 -3.3983 -0.1908
 5405SOL    HW218370   7.955   2.498   6.480  0.9203 -1.1495 -0.7103
 5406SOL     OW18371   2.777   8.726   2.580  0.1991  0.5040  0.1575
 5406SOL    HW118372   2.852   8.767   2.624  0.4818 -0.1121  0.2582
 5406SOL    HW218373   2.727   8.685   2.651 -0.9735  2.0215  0.2701
 5407SOL     OW18374   4.353   0.150   3.303 -0.3408  0.1865 -0.3289
 5407SOL    HW118375   4.381   0.224   3.249 -0.0849 -0.1741 -0.6976
 5407SOL    HW218376   4.375   0.175   3.393 -0.7769  0.7947 -0.3858
 5408SOL     OW18377   2.834   6.386   0.458  0.4282  0.0799  0.1756
 5408SOL    HW118378   2.916   6.412   0.500  0.6785  0.0784 -0.3147
 5408SOL    HW218379   2.803   6.465   0.414  0.9465 -0.3043 -0.9181
 5409SOL     OW18380   9.312   6.976   7.525  0.4344 -0.1232 -0.5608
 5409SOL    HW118381   9.305   7.029   7.604 -2.0317 -1.0291 -0.0954
 5409SOL    HW218382   9.322   6.886   7.557  0.7552 -0.3570 -1.2928
 5410SOL     OW18383   3.727   0.454   3.557 -0.1665 -0.3763  0.1158
 5410SOL    HW118384   3.808   0.405   3.543 -0.0354 -0.2941  0.5813
 5410SOL    HW218385   3.730   0.525   3.493 -0.1508 -0.7176 -0.2639
 5411SOL     OW18386   0.430   2.108   3.487  0.1294  0.3542  0.5927
 5411SOL    HW118387   0.434   2.185   3.544  1.2467  1.0181 -0.3361
 5411SOL    HW218388   0.394   2.039   3.543  0.1650  1.2517  1.7753
 5412SOL     OW18389   0.026   8.266   9.617 -0.4179  0.0144 -0.0798
 5412SOL    HW118390   0.047   8.358   9.630 -0.0023 -0.0769 -0.0940
 5412SOL    HW218391   0.076   8.220   9.685 -0.0517 -0.2596 -0.5263
 5413SOL     OW18392   7.716   3.785   3.352  0.2609  0.4241 -0.0583
 5413SOL    HW118393   7.676   3.717   3.298  0.8377 -0.9187  1.1228
 5413SOL    HW218394   7.740   3.740   3.434  0.9095  1.9904  0.6653
 5414SOL     OW18395   5.509   7.197   9.588 -0.2871  0.3116  0.1044
 5414SOL    HW118396   5.529   7.129   9.523 -2.4705 -0.6467  0.3586
 5414SOL    HW218397   5.542   7.161   9.670 -1.4218 -0.4796  0.2359
 5415SOL     OW18398   7.594   8.714   5.508 -0.1146  0.4152  0.3431
 5415SOL    HW118399   7.651   8.653   5.556 -0.9539 -1.4333 -0.9043
 5415SOL    HW218400   7.536   8.658   5.456 -0.8317  2.2854 -1.0064
 5416SOL     OW18401   9.128   4.725   7.440 -0.7205 -0.5493 -0.6451
 5416SOL    HW118402   9.214   4.753   7.471 -0.1190 -2.5008 -0.3825
 5416SOL    HW218403   9.106   4.650   7.495 -1.5812 -1.4372 -2.1380
 5417SOL     OW18404   0.463   1.495   4.026  0.2686 -0.3251 -0.4440
 5417SOL    HW118405   0.431   1.584   4.040  0.6893 -0.3713  0.9863
 5417SOL    HW218406   0.442   1.475   3.934 -0.2914  1.0458 -0.6266
 5418SOL     OW18407   0.369   3.686   2.896 -0.1059 -0.1527  0.0314
 5418SOL    HW118408   0.383   3.775   2.930 -1.3997  0.3629 -0.6993
 5418SOL    HW218409   0.298   3.696   2.832 -0.3645 -1.7416  0.0289
 5419SOL     OW18410   4.719   3.829   0.652 -0.1062 -0.3373  0.0991
 5419SOL    HW118411   4.772   3.838   0.731 -0.3828 -0.0665  0.2572
 5419SOL    HW218412   4.773   3.778   0.592  0.4616  0.2017  0.1450
 5420SOL     OW18413   4.145   6.247   8.254 -0.0397 -0.7260 -0.9384
 5420SOL    HW118414   4.174   6.196   8.329  0.0232  0.8978  0.1805
 5420SOL    HW218415   4.049   6.245   8.259 -0.0427  0.2665 -0.1423
 5421SOL     OW18416   4.994   5.093   1.132 -0.1966 -0.0889  0.3505
 5421SOL    HW118417   4.910   5.066   1.168  0.6287 -2.3951  0.7327
 5421SOL    HW218418   5.001   5.048   1.048  0.9488 -0.5688  0.6751
 5422SOL     OW18419   7.580   8.537   3.177 -0.1205  0.2492 -0.0086
 5422SOL    HW118420   7.541   8.455   3.208 -0.0578 -0.8099 -2.4608
 5422SOL    HW218421   7.507   8.583   3.136 -0.4931  2.2161  2.6425
 5423SOL     OW18422   3.506   0.648   1.290 -0.4727 -0.5023 -0.2552
 5423SOL    HW118423   3.492   0.677   1.200 -2.0026  1.1443  0.4464
 5423SOL    HW218424   3.510   0.729   1.341  1.7105 -1.3299  1.0297
 5424SOL     OW18425   0.275   7.860   5.336  0.4618  0.1405 -0.3610
 5424SOL    HW118426   0.248   7.788   5.393  0.0141  0.4695 -0.1564
 5424SOL    HW218427   0.260   7.939   5.388  0.6544  0.4036 -0.7016
 5425SOL     OW18428   3.960   4.212   1.235 -0.1478 -0.2753  0.2818
 5425SOL    HW118429   3.905   4.135   1.250  0.3593 -1.1498 -1.9911
 5425SOL    HW218430   3.919   4.259   1.163 -0.1626  1.3684  1.2875
 5426SOL     OW18431   6.690   7.285   3.462 -0.3025 -0.5263  0.2559
 5426SOL    HW118432   6.665   7.199   3.496 -0.0909 -1.0507 -0.8796
 5426SOL    HW218433   6.767   7.311   3.514 -0.1624 -1.1710  0.3697
 5427SOL     OW18434   9.355   4.555   2.497 -0.0745  0.3231  0.3131
 5427SOL    HW118435   9.383   4.484   2.440 -1.8809  1.0160 -1.5756
 5427SOL    HW218436   9.437   4.596   2.526  0.9757  0.2440 -2.2489
 5428SOL     OW18437   6.097   6.069   6.634  0.3123  0.1611  0.1765
 5428SOL    HW118438   6.030   6.016   6.591  0.2649  0.1084  0.3147
 5428SOL    HW218439   6.179   6.022   6.615  0.2909  0.1324  0.1542
 5429SOL     OW18440   7.290   6.624   1.397  0.1968 -0.0180  0.0001
 5429SOL    HW118441   7.271   6.663   1.483 -1.5573 -0.8503  0.0301
 5429SOL    HW218442   7.333   6.541   1.417  1.4935  0.6253 -0.0040
 5430SOL     OW18443   6.970   5.680   0.863 -0.4767  0.8564 -0.6068
 5430SOL    HW118444   7.030   5.643   0.928 -0.2734  0.4675 -1.0084
 5430SOL    HW218445   7.010   5.657   0.779 -0.8602  1.1508 -0.8692
 5431SOL     OW18446   4.658   6.527   7.916 -0.0042 -0.2393  0.3849
 5431SOL    HW118447   4.696   6.456   7.968 -0.1095 -0.4896  0.1256
 5431SOL    HW218448   4.732   6.582   7.892  0.3896 -1.3588 -1.0971
 5432SOL     OW18449   3.623   2.709   2.185 -0.3902  0.1131  0.2140
 5432SOL    HW118450   3.629   2.803   2.166 -0.3149  0.4340  1.6688
 5432SOL    HW218451   3.695   2.670   2.137  0.8253  1.0890  1.1695
 5433SOL     OW18452   9.522   2.828   3.882  0.1432 -0.7828  0.1587
 5433SOL    HW118453   9.454   2.884   3.920 -0.6850 -0.5886 -1.5253
 5433SOL    HW218454   9.482   2.741   3.878 -0.0512 -0.6603 -0.8754
 5434SOL     OW18455   4.466   2.556   7.145  0.3027 -0.3476  0.0081
 5434SOL    HW118456   4.401   2.617   7.110 -0.8518 -1.2368  0.5269
 5434SOL    HW218457   4.418   2.504   7.209  1.5695 -0.9532  0.5058
 5435SOL     OW18458   0.571   9.577   4.526 -0.6615 -0.4359  0.4327
 5435SOL    HW118459   0.533   9.496   4.560 -2.2302  0.3184  0.5618
 5435SOL    HW218460   0.654   9.585   4.573 -0.8498 -1.5438  1.0116
 5436SOL     OW18461   5.218   7.409   9.294  0.2530  0.2245 -0.3079
 5436SOL    HW118462   5.242   7.348   9.364  0.9115 -0.5470 -1.1816
 5436SOL    HW218463   5.214   7.494   9.338  2.3040  0.0256  0.3786
 5437SOL     OW18464   7.982   6.632   2.499  0.2338  0.2357  0.7295
 5437SOL    HW118465   7.934   6.636   2.417 -0.3355 -1.0018  0.9772
 5437SOL    HW218466   7.927   6.578   2.556  1.2697 -0.0701  1.4673
 5438SOL     OW18467   4.997   9.590   7.156 -0.1288  0.6092  0.5179
 5438SOL    HW118468   5.086   9.564   7.129 -0.9370 -0.9629 -0.8226
 5438SOL    HW218469   5.010   9.670   7.207  1.9681  1.0423 -0.5717
 5439SOL     OW18470   8.856   4.000   2.542  0.0100  0.1777 -0.5373
 5439SOL    HW118471   8.888   4.004   2.451  0.2009  1.3605 -0.4408
 5439SOL    HW218472   8.918   4.055   2.591  1.3652 -2.3475  0.7960
 5440SOL     OW18473   1.543   1.226   5.730  0.6424 -0.3035 -0.5246
 5440SOL    HW118474   1.489   1.152   5.757  0.7930 -0.3791 -0.4292
 5440SOL    HW218475   1.520   1.240   5.638  0.1556 -0.0678 -0.3662
 5441SOL     OW18476   1.266   4.255   2.189  0.2687 -0.3557 -0.3964
 5441SOL    HW118477   1.232   4.201   2.261  0.1329 -0.1581 -0.3145
 5441SOL    HW218478   1.190   4.301   2.155  0.4634  0.1496 -0.1576
 5442SOL     OW18479   7.652   5.638   1.916 -0.1586  0.1076 -0.0924
 5442SOL    HW118480   7.616   5.551   1.934  3.2687 -1.4318  0.1712
 5442SOL    HW218481   7.654   5.644   1.820  2.6034 -1.7036 -0.2807
 5443SOL     OW18482   5.906   2.093   1.397  0.0025 -0.1954  0.1262
 5443SOL    HW118483   5.937   2.060   1.482 -0.2186 -0.6304  0.0398
 5443SOL    HW218484   5.827   2.141   1.418  0.6868  0.8788  0.3424
 5444SOL     OW18485   2.799   2.575   1.311 -0.3678 -0.6609  0.2700
 5444SOL    HW118486   2.885   2.536   1.297 -0.9646 -1.8536 -0.3404
 5444SOL    HW218487   2.793   2.589   1.405  0.3699 -0.8661  0.3519
 5445SOL     OW18488   4.874   5.639   6.039  0.1741  0.0475  0.0889
 5445SOL    HW118489   4.961   5.637   6.000 -0.7392 -0.0328 -2.0777
 5445SOL    HW218490   4.830   5.712   5.996 -0.8867 -0.0122  1.0318
 5446SOL     OW18491   4.219   6.522   5.209 -0.3404  0.2627  0.3493
 5446SOL    HW118492   4.253   6.440   5.174 -0.2046  0.3401  0.3009
 5446SOL    HW218493   4.140   6.539   5.158  0.2518  0.7539 -0.4246
 5447SOL     OW18494   7.236   2.903   1.497  0.0711 -0.1169  0.3329
 5447SOL    HW118495   7.157   2.926   1.546 -0.6217 -1.8966  0.1320
 5447SOL    HW218496   7.227   2.950   1.414  0.6742  1.9764  1.3970
 5448SOL     OW18497   0.910   8.991   1.642 -0.0899 -0.1172 -0.1567
 5448SOL    HW118498   0.941   8.967   1.555  3.6224 -0.6384  1.1300
 5448SOL    HW218499   0.899   8.907   1.687 -0.2224  0.1842  0.3783
 5449SOL     OW18500   2.250   4.321   3.883 -0.1478  0.5537  0.7214
 5449SOL    HW118501   2.212   4.233   3.892  0.3312  0.3200  0.5123
 5449SOL    HW218502   2.222   4.367   3.962  0.2381 -0.0367  1.2173
 5450SOL     OW18503   0.816   0.903   6.435  0.4574  0.3640 -0.5509
 5450SOL    HW118504   0.724   0.879   6.444  0.7958 -0.3886  1.4968
 5450SOL    HW218505   0.862   0.845   6.495  2.1937  1.2253 -0.9742
 5451SOL     OW18506   4.166   7.566   0.140  0.1862 -0.2382  0.3060
 5451SOL    HW118507   4.242   7.573   0.083  0.5448 -0.5137  0.7410
 5451SOL    HW218508   4.200   7.528   0.221 -0.4173 -0.3813  0.5000
 5452SOL     OW18509   3.488   4.171   8.224  0.2345 -0.4441 -0.2223
 5452SOL    HW118510   3.469   4.084   8.191 -0.5983 -0.5802  0.5686
 5452SOL    HW218511   3.582   4.182   8.212  0.5060 -1.8178  0.4857
 5453SOL     OW18512   7.209   5.918   3.928 -0.1305  0.3659 -0.1439
 5453SOL    HW118513   7.226   5.846   3.867 -1.4809  1.6593 -2.1539
 5453SOL    HW218514   7.114   5.927   3.929 -0.0093  1.9502  0.2792
 5454SOL     OW18515   4.133   5.328   5.801  0.4904 -0.0979 -0.3743
 5454SOL    HW118516   4.113   5.419   5.824  2.5149  0.5764 -1.0435
 5454SOL    HW218517   4.124   5.280   5.884  1.5938  1.1634  0.5352
 5455SOL     OW18518   6.433   5.628   0.530 -0.2267 -0.2482  0.2167
 5455SOL    HW118519   6.370   5.700   0.520  0.0920 -0.0579 -0.4818
 5455SOL    HW218520   6.459   5.632   0.622  0.8989  1.4896 -0.1197
 5456SOL     OW18521   7.833   7.513   5.161 -1.0179 -0.7164 -0.3053
 5456SOL    HW118522   7.906   7.551   5.112 -0.3207 -0.1658  1.1052
 5456SOL    HW218523   7.808   7.436   5.110 -0.5847  0.0290 -1.7190
 5457SOL     OW18524   7.457   7.108   4.874 -0.3264 -0.0335  0.3735
 5457SOL    HW118525   7.476   7.133   4.783  2.1688 -0.7470  0.6186
 5457SOL    HW218526   7.427   7.189   4.915 -0.8894  0.4486 -0.9165
 5458SOL     OW18527   1.992   3.899   6.109 -0.4427 -0.2090 -0.0735
 5458SOL    HW118528   2.026   3.832   6.168 -0.8487  0.2754  0.7262
 5458SOL    HW218529   2.069   3.953   6.088 -0.7593  1.3844  2.3832
 5459SOL     OW18530   2.650   2.783   4.168  0.1180 -0.0460  0.0851
 5459SOL    HW118531   2.606   2.846   4.111  0.6654  1.0396  0.8308
 5459SOL    HW218532   2.609   2.699   4.146 -2.5419  0.9177  0.9185
 5460SOL     OW18533   2.006   6.222   8.337 -0.0452  0.0242  0.4841
 5460SOL    HW118534   1.943   6.225   8.266  0.1282 -0.3834  0.3073
 5460SOL    HW218535   2.082   6.176   8.300  1.8730  3.5977 -0.4979
 5461SOL     OW18536   8.240   4.151   4.957 -0.2064 -0.1688  0.2715
 5461SOL    HW118537   8.168   4.158   4.894 -0.6733 -0.7337  0.7287
 5461SOL    HW218538   8.301   4.221   4.932 -0.7520  0.1035 -0.3261
 5462SOL     OW18539   1.021   1.934   0.344 -0.1031 -0.0143  0.4210
 5462SOL    HW118540   0.991   1.848   0.313  1.8417 -0.4677 -0.3435
 5462SOL    HW218541   1.077   1.915   0.419 -0.3060  0.6618  0.7524
 5463SOL     OW18542   8.079   6.031   3.452  0.4124  0.3902 -0.1933
 5463SOL    HW118543   8.153   6.088   3.434 -1.4512  2.5757 -1.4027
 5463SOL    HW218544   8.056   6.050   3.543  0.7129  0.4213 -0.1217
 5464SOL     OW18545   3.093   6.100   5.565  0.0300  0.0858 -0.0098
 5464SOL    HW118546   3.020   6.150   5.530 -0.4457  0.5231  1.5342
 5464SOL    HW218547   3.171   6.145   5.533 -0.3804  0.4746 -0.4713
 5465SOL     OW18548   3.750   0.932   5.904 -0.3250  0.5978  0.4901
 5465SOL    HW118549   3.688   0.955   5.973  0.1275 -3.0011  2.3776
 5465SOL    HW218550   3.695   0.907   5.830 -1.0422  0.2857  1.1092
 5466SOL     OW18551   9.075   4.493   7.875 -0.0145 -0.3324  0.1451
 5466SOL    HW118552   9.031   4.409   7.884  0.2413 -0.3824  1.0110
 5466SOL    HW218553   9.114   4.490   7.788 -0.3444 -0.9429  0.0109
 5467SOL     OW18554   6.840   8.341   3.204  0.1109  0.1003 -0.1082
 5467SOL    HW118555   6.891   8.421   3.192 -0.0517  0.3723  0.9365
 5467SOL    HW218556   6.810   8.344   3.295  0.3731 -1.3146  0.0542
 5468SOL     OW18557   4.053   4.673   5.312  0.2606 -0.2263 -0.2584
 5468SOL    HW118558   4.142   4.709   5.306  0.4412 -0.7449 -0.8285
 5468SOL    HW218559   4.066   4.578   5.313 -0.1423 -0.3121  2.1447
 5469SOL     OW18560   8.986   8.754   8.226  0.0905 -0.2196 -0.3060
 5469SOL    HW118561   8.959   8.693   8.293  1.0060  1.5597  1.8142
 5469SOL    HW218562   9.066   8.794   8.261  0.8259  0.5132 -2.6341
 5470SOL     OW18563   0.281   2.756   6.487  0.2700  0.1454  0.2702
 5470SOL    HW118564   0.297   2.697   6.561 -0.5707  0.5934  0.8243
 5470SOL    HW218565   0.279   2.843   6.526 -0.0309  0.3978 -0.3036
 5471SOL     OW18566   7.694   9.072   7.468  0.5118 -0.1316  0.1653
 5471SOL    HW118567   7.718   9.161   7.441 -0.7678  0.5868  1.2912
 5471SOL    HW218568   7.658   9.033   7.389 -0.3854  0.9153  0.0199
 5472SOL     OW18569   2.154   4.362   1.410 -0.2943  0.1595  0.4857
 5472SOL    HW118570   2.218   4.302   1.448  0.1509 -0.5576 -1.3001
 5472SOL    HW218571   2.194   4.391   1.328 -2.0107  0.1360 -0.4050
 5473SOL     OW18572   1.173   7.240   1.808  0.2532 -0.1399 -0.2371
 5473SOL    HW118573   1.242   7.174   1.795 -1.8361 -2.4884 -0.2174
 5473SOL    HW218574   1.102   7.212   1.750 -2.0891  0.0082  2.3709
 5474SOL     OW18575   6.674   9.307   8.271  0.1638 -0.1583  0.2421
 5474SOL    HW118576   6.719   9.287   8.353  0.3897  1.4952  0.5506
 5474SOL    HW218577   6.661   9.402   8.273 -1.6500 -0.3391 -0.7119
 5475SOL     OW18578   0.771   4.816   4.474  0.6137 -0.3289  0.0937
 5475SOL    HW118579   0.686   4.846   4.506  0.6209 -1.4736  1.2779
 5475SOL    HW218580   0.782   4.859   4.390 -0.8334  0.3690  0.2403
 5476SOL     OW18581   1.557   5.274   2.549  0.0179  0.2183  0.1411
 5476SOL    HW118582   1.592   5.312   2.630  2.6248 -1.4976 -0.0444
 5476SOL    HW218583   1.467   5.251   2.569  0.2119  1.0115  2.1354
 5477SOL     OW18584   7.169   1.568   6.093 -0.7531 -0.2285 -0.4278
 5477SOL    HW118585   7.152   1.651   6.048 -0.2572  1.1677  1.8150
 5477SOL    HW218586   7.248   1.534   6.050 -1.0758  0.3441 -1.5143
 5478SOL     OW18587   7.865   5.324   4.776 -0.0821  0.9034 -0.1510
 5478SOL    HW118588   7.793   5.330   4.713  1.6181  0.9449 -2.1818
 5478SOL    HW218589   7.824   5.291   4.856 -2.4148  1.3279 -1.0931
 5479SOL     OW18590   8.577   3.008   7.062 -0.1143  0.4063  0.6126
 5479SOL    HW118591   8.669   3.036   7.066  0.3067 -0.7062 -0.5607
 5479SOL    HW218592   8.562   2.988   6.970 -0.7744 -1.7949  1.1370
 5480SOL     OW18593   7.907   7.243   6.709  0.3396 -0.7965 -0.5194
 5480SOL    HW118594   7.971   7.232   6.779 -0.9280 -2.8651  0.4074
 5480SOL    HW218595   7.960   7.256   6.630  1.8776 -1.7543  0.3105
 5481SOL     OW18596   6.490   1.183   3.448  0.1773 -0.0961  0.3299
 5481SOL    HW118597   6.457   1.240   3.517  1.8273  0.1509  0.9521
 5481SOL    HW218598   6.437   1.205   3.371  0.8873  2.4590  0.4777
 5482SOL     OW18599   4.366   3.549   3.803 -0.1655  0.1035  0.1960
 5482SOL    HW118600   4.438   3.612   3.808  0.1414 -0.2779  0.6039
 5482SOL    HW218601   4.313   3.566   3.882  0.9717 -1.4090  1.3479
 5483SOL     OW18602   0.782   9.067   8.489 -0.0538  0.0973 -0.6086
 5483SOL    HW118603   0.695   9.082   8.450 -0.8813  0.4199  1.2465
 5483SOL    HW218604   0.813   9.155   8.512  1.0048  0.0276 -1.6705
 5484SOL     OW18605   7.387   7.971   3.318  0.2381  0.7535 -0.1125
 5484SOL    HW118606   7.480   7.985   3.296  0.8992  1.7839  2.8963
 5484SOL    HW218607   7.388   7.939   3.408 -2.3257 -0.7605 -0.5349
 5485SOL     OW18608   5.750   7.864   8.518 -0.3891 -0.0470 -0.2819
 5485SOL    HW118609   5.837   7.902   8.508 -0.2496  0.2258  1.6791
 5485SOL    HW218610   5.702   7.926   8.573 -2.1762  0.2740 -2.0395
 5486SOL     OW18611   7.062   1.657   4.615 -0.2413  0.0405 -0.2426
 5486SOL    HW118612   7.005   1.731   4.595  0.8765  0.8326 -0.6007
 5486SOL    HW218613   7.005   1.580   4.610 -1.3156  0.8261 -0.3495
 5487SOL     OW18614   7.370   4.496   0.667 -0.3322  0.9012  0.4031
 5487SOL    HW118615   7.404   4.561   0.605  1.6960 -0.9038 -0.4698
 5487SOL    HW218616   7.287   4.534   0.697 -0.7958  2.4202 -2.4562
 5488SOL     OW18617   6.016   4.992   9.524  0.0304 -0.2972  0.4034
 5488SOL    HW118618   6.084   5.033   9.579 -0.1414 -0.0510  0.4354
 5488SOL    HW218619   5.955   4.954   9.587  0.6267 -1.3357  0.3664
 5489SOL     OW18620   5.256   0.655   1.579  0.5915 -0.6056 -0.1564
 5489SOL    HW118621   5.276   0.614   1.663  0.1001 -0.0954  0.2170
 5489SOL    HW218622   5.166   0.628   1.560  0.0405  0.7765  0.3941
 5490SOL     OW18623   3.227   1.754   4.290 -0.2510  0.5792  0.0207
 5490SOL    HW118624   3.225   1.660   4.311 -1.9284  0.7004  0.5588
 5490SOL    HW218625   3.266   1.795   4.366 -1.9531  0.5463  0.9602
 5491SOL     OW18626   1.788   2.067   0.685  0.2168 -0.4454 -0.4472
 5491SOL    HW118627   1.770   2.125   0.759  1.2684  0.0707 -0.5702
 5491SOL    HW218628   1.801   2.126   0.611 -0.0317 -0.9190 -0.8739
 5492SOL     OW18629   3.543   4.973   8.164  0.6530  0.5558 -0.2635
 5492SOL    HW118630   3.520   4.948   8.074 -1.1410  0.5486  0.1619
 5492SOL    HW218631   3.485   5.046   8.184  2.2365  1.7274  0.3268
 5493SOL     OW18632   0.685   0.564   3.790 -0.7350  0.1623 -0.1074
 5493SOL    HW118633   0.678   0.506   3.866 -0.7184  1.2432  0.7474
 5493SOL    HW218634   0.694   0.651   3.827 -0.7603  0.7265 -1.3660
 5494SOL     OW18635   0.059   4.605   6.367  0.7829 -0.1438  0.2252
 5494SOL    HW118636   0.065   4.622   6.273  2.3395 -0.4812  0.2396
 5494SOL    HW218637   0.016   4.683   6.402 -1.6131 -0.8284 -0.9703
 5495SOL     OW18638   7.699   3.762   0.051 -0.7075 -0.1510  0.1760
 5495SOL    HW118639   7.780   3.811   0.033 -0.6899  0.1504  1.0247
 5495SOL    HW218640   7.632   3.810   0.003 -0.4290 -0.2546 -0.3284
 5496SOL     OW18641   6.299   5.376   8.866  0.1982 -0.3739  0.4391
 5496SOL    HW118642   6.312   5.289   8.830  1.8644 -0.3927  0.9484
 5496SOL    HW218643   6.232   5.416   8.812  1.2517 -1.0621 -1.4522
 5497SOL     OW18644   0.658   5.083   0.966 -0.1186 -0.6170  0.5014
 5497SOL    HW118645   0.743   5.065   0.926  0.6943  1.3769  1.1973
 5497SOL    HW218646   0.626   4.998   0.995  0.9079 -1.6177 -1.1557
 5498SOL     OW18647   0.425   1.728   0.513 -0.1549  0.4343  0.0488
 5498SOL    HW118648   0.469   1.695   0.592  0.1982  0.7377 -0.0179
 5498SOL    HW218649   0.451   1.668   0.444 -1.0444 -0.2606  0.2951
 5499SOL     OW18650   7.894   6.179   9.547  0.0039  0.1276  0.2763
 5499SOL    HW118651   7.881   6.112   9.614 -1.3025  0.7811  0.7286
 5499SOL    HW218652   7.981   6.163   9.512  0.2601 -0.9246  1.3537
 5500SOL     OW18653   5.589   4.236   7.184  0.1304 -0.4544 -0.2491
 5500SOL    HW118654   5.572   4.330   7.170 -1.6463 -0.7046 -0.0214
 5500SOL    HW218655   5.514   4.192   7.144  0.6530 -1.7605  0.1530
 5501SOL     OW18656   7.491   7.731   0.277  0.3084  0.7391  0.7119
 5501SOL    HW118657   7.416   7.716   0.336  1.2358  0.3781  1.8442
 5501SOL    HW218658   7.499   7.649   0.228 -0.3980  0.9969  0.1509
 5502SOL     OW18659   0.411   7.364   8.770  0.1409 -0.4701  0.0064
 5502SOL    HW118660   0.353   7.372   8.694  0.3007 -3.0454 -0.4705
 5502SOL    HW218661   0.491   7.325   8.735  0.4646 -1.0930  1.3707
 5503SOL     OW18662   0.815   0.656   3.324  0.9100  0.0551 -0.3834
 5503SOL    HW118663   0.781   0.590   3.264 -0.7995  1.4329 -1.0126
 5503SOL    HW218664   0.766   0.642   3.405 -1.1181  1.8949 -1.2167
 5504SOL     OW18665   0.416   5.860   7.682  0.4758 -0.8391  0.2702
 5504SOL    HW118666   0.376   5.930   7.630  0.7365 -0.4366  0.5932
 5504SOL    HW218667   0.353   5.845   7.753  0.5507 -0.7198  0.3647
 5505SOL     OW18668   4.480   0.700   7.813 -0.0798  0.2498 -0.0614
 5505SOL    HW118669   4.407   0.646   7.784  2.4342 -2.2621 -2.2263
 5505SOL    HW218670   4.516   0.739   7.733  1.2041  1.1120  0.8808
 5506SOL     OW18671   6.851   4.999   7.208  0.3768  0.2114 -0.7704
 5506SOL    HW118672   6.927   5.044   7.246  0.2854 -1.2848  1.3296
 5506SOL    HW218673   6.885   4.912   7.184 -0.4411 -0.1288 -0.7221
 5507SOL     OW18674   3.698   4.568   6.332  0.0505 -0.2246 -0.2687
 5507SOL    HW118675   3.630   4.634   6.346  0.1547 -0.0031 -0.7886
 5507SOL    HW218676   3.757   4.607   6.268 -0.1492 -1.0072 -0.9505
 5508SOL     OW18677   5.061   7.059   6.122  0.2409 -0.6674 -0.1879
 5508SOL    HW118678   4.968   7.061   6.144  0.2850 -0.8779  0.0152
 5508SOL    HW218679   5.097   6.986   6.173  0.1847 -1.6912 -1.5396
 5509SOL     OW18680   5.720   9.003   6.304  0.0187 -0.4804  0.2992
 5509SOL    HW118681   5.780   9.073   6.329  0.9728 -0.9672 -0.5413
 5509SOL    HW218682   5.739   8.931   6.364 -1.2473  0.0844  1.4330
 5510SOL     OW18683   0.285   9.078   7.088 -0.0103  0.4462  0.0972
 5510SOL    HW118684   0.354   9.131   7.130  0.3691  0.2145 -0.2207
 5510SOL    HW218685   0.278   9.114   7.000 -1.4026  1.4896  0.5983
 5511SOL     OW18686   2.700   6.264   7.156  0.3299  0.4569  1.3146
 5511SOL    HW118687   2.692   6.191   7.218 -0.6804 -0.7485 -0.1915
 5511SOL    HW218688   2.612   6.301   7.150  0.3590  0.4015  0.4240
 5512SOL     OW18689   7.459   8.496   0.677 -0.0985 -0.4002 -0.1458
 5512SOL    HW118690   7.377   8.542   0.692  2.1851  3.9356  0.5712
 5512SOL    HW218691   7.475   8.448   0.758 -0.9054  0.5066  0.5816
 5513SOL     OW18692   0.421   0.454   2.177 -0.0865  0.0143  0.2066
 5513SOL    HW118693   0.373   0.518   2.230 -0.4231 -0.0830  0.0253
 5513SOL    HW218694   0.360   0.382   2.166  0.2842 -0.3306  0.3862
 5514SOL     OW18695   5.023   7.893   2.305 -0.4694 -0.2136 -0.3654
 5514SOL    HW118696   5.044   7.854   2.220 -0.3651  0.2943 -0.5715
 5514SOL    HW218697   4.936   7.859   2.327 -1.3321  1.1326 -1.5511
 5515SOL     OW18698   5.408   7.229   1.583  1.0762  0.0550 -0.2627
 5515SOL    HW118699   5.480   7.187   1.629  1.6872 -0.4120 -1.6047
 5515SOL    HW218700   5.424   7.323   1.593  2.3609 -0.0460 -1.2924
 5516SOL     OW18701   6.760   6.596   1.075  0.3677 -0.1040  0.3123
 5516SOL    HW118702   6.710   6.649   1.014  1.6216  1.1406  0.3107
 5516SOL    HW218703   6.733   6.627   1.161 -0.6943 -1.1972  0.4008
 5517SOL     OW18704   1.831   9.338   6.892  0.1774 -0.5025 -0.3916
 5517SOL    HW118705   1.760   9.395   6.921  1.5395  0.8734  0.3558
 5517SOL    HW218706   1.792   9.251   6.888 -1.4658  0.1705  0.2777
 5518SOL     OW18707   2.385   2.487   1.688 -0.4019  0.4403 -0.4945
 5518SOL    HW118708   2.443   2.560   1.711 -0.2291  0.4162 -0.8537
 5518SOL    HW218709   2.437   2.433   1.628  0.0125 -0.7532  0.8674
 5519SOL     OW18710   6.730   0.372   5.565  0.3846  0.1855 -0.3592
 5519SOL    HW118711   6.652   0.342   5.613  3.0852 -0.7545  4.0771
 5519SOL    HW218712   6.706   0.459   5.533 -2.1524  0.5209  1.9645
 5520SOL     OW18713   7.801   7.823   5.468 -0.1915  0.0544  0.0619
 5520SOL    HW118714   7.767   7.765   5.536  0.1928  2.1364  2.1502
 5520SOL    HW218715   7.893   7.798   5.459 -0.4263 -0.7268 -0.2742
 5521SOL     OW18716   5.250   3.690   4.498  0.2158 -0.6203 -0.2267
 5521SOL    HW118717   5.188   3.736   4.441  0.1720 -1.3045 -0.7377
 5521SOL    HW218718   5.247   3.739   4.580 -0.6982 -0.4070 -0.3766
 5522SOL     OW18719   5.098   1.839   4.837  0.3581 -0.2304 -0.1031
 5522SOL    HW118720   5.061   1.922   4.867 -0.9603 -1.0279  0.5633
 5522SOL    HW218721   5.114   1.852   4.743 -0.0329  0.7063 -0.0455
 5523SOL     OW18722   8.476   7.503   3.106 -0.4638  0.6004 -0.0224
 5523SOL    HW118723   8.423   7.573   3.143 -0.3294 -0.4616  2.3254
 5523SOL    HW218724   8.565   7.522   3.137 -0.3479 -0.3315  0.2302
 5524SOL     OW18725   7.445   4.695   3.780  0.3545 -0.2033  0.2556
 5524SOL    HW118726   7.428   4.713   3.687 -0.3120  0.7768  0.5575
 5524SOL    HW218727   7.534   4.727   3.794  0.5277 -0.5301 -0.0908
 5525SOL     OW18728   3.928   4.983   7.348  0.2671  0.3049  0.1203
 5525SOL    HW118729   3.918   5.078   7.349  1.2466  0.4259  1.5279
 5525SOL    HW218730   3.860   4.951   7.408  0.1034  0.1211 -0.1565
 5526SOL     OW18731   6.742   8.382   6.016 -0.5554  0.3310  0.0048
 5526SOL    HW118732   6.752   8.347   6.105 -0.6959  0.9692  0.2762
 5526SOL    HW218733   6.737   8.304   5.961 -0.6902 -0.0796  0.5813
 5527SOL     OW18734   5.585   7.121   2.538 -0.1025 -0.2998 -0.8570
 5527SOL    HW118735   5.625   7.195   2.493  1.3467 -0.3125  0.3172
 5527SOL    HW218736   5.492   7.143   2.543  0.1768  1.0401 -1.2702
 5528SOL     OW18737   2.853   0.160   3.936 -0.1523  0.3230 -0.3834
 5528SOL    HW118738   2.900   0.089   3.981 -2.5463 -0.8646  0.4231
 5528SOL    HW218739   2.875   0.149   3.844  0.1463 -1.0101 -0.1768
 5529SOL     OW18740   1.889   6.396   5.947  0.1377  0.0370 -0.5583
 5529SOL    HW118741   1.957   6.460   5.971 -0.0975  0.0233  0.1355
 5529SOL    HW218742   1.878   6.342   6.025 -2.9240  1.9866  0.5218
 5530SOL     OW18743   7.448   7.421   2.621  0.2087 -0.1809  0.4433
 5530SOL    HW118744   7.365   7.404   2.576  0.5169 -1.3285  0.2671
 5530SOL    HW218745   7.505   7.349   2.594  0.8346 -0.1470  1.5902
 5531SOL     OW18746   8.902   1.352   2.489  0.3075 -0.5750 -0.0057
 5531SOL    HW118747   8.875   1.424   2.546  0.8004 -0.6750  0.3663
 5531SOL    HW218748   8.838   1.352   2.418 -0.2401 -0.3681  0.4839
 5532SOL     OW18749   1.935   7.275   5.106  0.4563  0.3932 -0.5486
 5532SOL    HW118750   1.950   7.263   5.012 -1.0744 -0.8562 -0.6804
 5532SOL    HW218751   1.845   7.245   5.120  2.1095 -4.3638  2.0808
 5533SOL     OW18752   8.777   2.397   5.009 -0.0175  0.5544 -0.3946
 5533SOL    HW118753   8.859   2.412   5.057  0.4368 -0.5963 -0.7504
 5533SOL    HW218754   8.755   2.482   4.971  0.8599  0.9509 -0.0456
 5534SOL     OW18755   1.223   0.155   1.418 -0.3460  0.7636 -0.1153
 5534SOL    HW118756   1.159   0.112   1.473  1.1780 -1.8689 -0.2115
 5534SOL    HW218757   1.175   0.177   1.338 -1.2638 -0.6142  0.0257
 5535SOL     OW18758   0.099   1.275   1.299  0.0475  0.4617 -0.8457
 5535SOL    HW118759   0.054   1.191   1.291  0.7821  0.0042 -0.3172
 5535SOL    HW218760   0.117   1.284   1.392 -0.9390  1.7109 -0.7464
 5536SOL     OW18761   4.790   4.939   6.268  0.3755  0.0375 -0.0754
 5536SOL    HW118762   4.775   4.849   6.237 -0.0613  0.0266  0.1537
 5536SOL    HW218763   4.884   4.952   6.258  1.3281 -1.9844  3.8488
 5537SOL     OW18764   6.092   7.591   6.778  0.1317  0.3141  0.4273
 5537SOL    HW118765   6.066   7.557   6.864 -1.0593  1.0748  0.3892
 5537SOL    HW218766   6.187   7.579   6.775 -0.1971 -3.9789 -0.0146
 5538SOL     OW18767   0.155   0.783   8.687 -0.0017  0.0270  0.3029
 5538SOL    HW118768   0.112   0.717   8.632 -0.3777 -0.1117  0.7517
 5538SOL    HW218769   0.116   0.770   8.774  1.5872 -0.7113  0.9518
 5539SOL     OW18770   0.532   7.899   5.556 -0.2179 -0.7489  0.4250
 5539SOL    HW118771   0.454   7.930   5.512 -0.0400 -1.1796 -0.2071
 5539SOL    HW218772   0.515   7.914   5.649 -0.4088  0.5861  0.1879
 5540SOL     OW18773   5.299   4.598   5.315  0.4046 -0.5821  0.3941
 5540SOL    HW118774   5.326   4.541   5.243  0.3343  0.7258 -0.7231
 5540SOL    HW218775   5.210   4.625   5.291 -0.0168 -0.9347  1.5099
 5541SOL     OW18776   4.426   6.714   1.676  0.0366 -0.6416 -0.4606
 5541SOL    HW118777   4.434   6.704   1.581 -0.8468 -0.6509 -0.5370
 5541SOL    HW218778   4.361   6.648   1.702 -0.6270  0.1699 -0.0161
 5542SOL     OW18779   3.601   9.300   0.195  0.0142  0.0228  0.0998
 5542SOL    HW118780   3.561   9.376   0.236 -0.4362 -0.2926  0.2417
 5542SOL    HW218781   3.623   9.241   0.267  0.1415 -0.0923 -0.0306
 5543SOL     OW18782   9.429   2.368   2.418 -0.3293 -0.6580  1.0977
 5543SOL    HW118783   9.357   2.306   2.414  0.0739 -1.3394  3.1727
 5543SOL    HW218784   9.388   2.451   2.443 -0.7633 -0.2166 -0.9104
 5544SOL     OW18785   5.097   4.986   6.252  0.2357 -0.2544 -0.0873
 5544SOL    HW118786   5.097   5.033   6.335 -0.2623  0.1310 -0.3020
 5544SOL    HW218787   5.168   5.026   6.201 -0.1994  0.2888 -0.2779
 5545SOL     OW18788   4.648   5.452   9.459  0.6665  0.0908  0.8327
 5545SOL    HW118789   4.676   5.457   9.367 -0.4629  0.3053  0.4915
 5545SOL    HW218790   4.703   5.384   9.497  1.8979  0.7436  0.2737
 5546SOL     OW18791   5.055   1.607   3.989  0.5511  0.0443 -0.4114
 5546SOL    HW118792   5.127   1.572   4.041  0.6107  3.4942  2.1786
 5546SOL    HW218793   5.096   1.635   3.907  2.0398  1.1992  0.6860
 5547SOL     OW18794   7.461   1.615   2.176  0.2818  0.3815  0.1148
 5547SOL    HW118795   7.511   1.677   2.229  1.8843 -0.3374 -0.5018
 5547SOL    HW218796   7.497   1.530   2.198  0.7813  0.0239 -1.8565
 5548SOL     OW18797   8.081   6.912   4.169 -0.1308  0.2743  0.0954
 5548SOL    HW118798   8.165   6.941   4.202  0.2348 -1.3887  0.7359
 5548SOL    HW218799   8.051   6.983   4.111  1.8217  0.7748 -0.3551
 5549SOL     OW18800   0.549   6.140   8.413  0.3148  0.1678  0.2837
 5549SOL    HW118801   0.598   6.185   8.345 -0.4932  0.2914 -0.2379
 5549SOL    HW218802   0.464   6.122   8.372  0.7130 -2.1321  0.3545
 5550SOL     OW18803   7.445   5.717   3.173  0.1261 -0.0433  0.3909
 5550SOL    HW118804   7.464   5.717   3.079  1.8581 -1.2805  0.6929
 5550SOL    HW218805   7.451   5.809   3.199 -1.5455  0.4867 -0.8706
 5551SOL     OW18806   4.276   2.412   0.376  0.0723  0.4174  0.2946
 5551SOL    HW118807   4.368   2.418   0.351  0.1750 -0.8260  0.3422
 5551SOL    HW218808   4.254   2.500   0.406  0.4437  1.5446 -2.4074
 5552SOL     OW18809   5.700   8.148   6.103 -0.0919  0.3104 -0.1333
 5552SOL    HW118810   5.676   8.205   6.176  0.8243  0.1112  0.3427
 5552SOL    HW218811   5.744   8.073   6.144 -0.1874 -0.1477 -0.8401
 5553SOL     OW18812   0.114   3.855   5.990 -0.1400  0.1937  0.5731
 5553SOL    HW118813   0.186   3.801   5.957  0.2401  0.6291  0.6834
 5553SOL    HW218814   0.046   3.847   5.924  0.2241  0.2264  0.1910
 5554SOL     OW18815   2.160   0.721   5.891 -0.1554 -0.8727 -0.2474
 5554SOL    HW118816   2.135   0.813   5.902  0.0167 -0.9951  1.3301
 5554SOL    HW218817   2.080   0.672   5.908 -0.0692 -1.0503 -0.3500
 5555SOL     OW18818   6.316   3.470   2.681  0.9840 -0.6639 -0.4751
 5555SOL    HW118819   6.292   3.541   2.622 -1.0426  0.7513  1.8475
 5555SOL    HW218820   6.296   3.390   2.632  2.6086  0.2727 -2.8754
 5556SOL     OW18821   8.569   2.843   4.609 -0.3116  0.0655 -0.4528
 5556SOL    HW118822   8.586   2.900   4.534 -2.5367  1.6522  0.1038
 5556SOL    HW218823   8.495   2.788   4.581  0.8174 -1.5164 -0.4382
 5557SOL     OW18824   7.385   2.880   4.496  0.1384  0.4580  0.0822
 5557SOL    HW118825   7.455   2.883   4.560  1.3903  0.8307 -1.2607
 5557SOL    HW218826   7.381   2.788   4.469 -0.1763  0.3604  0.4538
 5558SOL     OW18827   6.943   7.326   8.295 -0.0591 -0.4364  0.0489
 5558SOL    HW118828   7.002   7.253   8.313 -0.9358 -0.6993  2.1822
 5558SOL    HW218829   6.880   7.324   8.368 -1.2173  1.3152 -0.8413
 5559SOL     OW18830   5.478   6.032   1.591  0.4034  0.3713  0.0729
 5559SOL    HW118831   5.516   6.085   1.521 -0.0602  1.6744  0.7866
 5559SOL    HW218832   5.553   5.988   1.631  0.6159 -1.0134 -1.6843
 5560SOL     OW18833   1.113   2.484   0.295  0.3958 -0.5005 -0.3262
 5560SOL    HW118834   1.045   2.449   0.353  1.5776 -1.3440  0.6132
 5560SOL    HW218835   1.066   2.539   0.233 -0.9191  0.7032  1.6137
 5561SOL     OW18836   4.044   1.066   4.725 -0.0681 -1.4558 -0.2816
 5561SOL    HW118837   4.085   0.992   4.770  1.0347 -0.7786 -0.1134
 5561SOL    HW218838   4.083   1.066   4.638  0.8246 -0.4062  0.0972
 5562SOL     OW18839   5.895   2.871   5.097 -0.0445 -0.1828 -0.0878
 5562SOL    HW118840   5.894   2.954   5.050 -0.5658  0.2341  0.6413
 5562SOL    HW218841   5.840   2.813   5.045 -0.1307  0.0921 -0.3035
 5563SOL     OW18842   8.622   0.998   6.797 -0.0775 -0.2246  0.3013
 5563SOL    HW118843   8.634   0.927   6.734  1.4507 -0.5551  0.9100
 5563SOL    HW218844   8.685   1.065   6.770  0.1809 -0.1250  1.1048
 5564SOL     OW18845   7.630   0.084   1.141 -0.4045  0.0113 -0.5812
 5564SOL    HW118846   7.706   0.094   1.199  1.0412  2.5726 -2.6574
 5564SOL    HW218847   7.562   0.138   1.182  0.3163  1.0897 -0.7372
 5565SOL     OW18848   5.315   1.538   5.685 -0.5989 -0.1068  0.9077
 5565SOL    HW118849   5.226   1.573   5.694 -0.7218 -0.3209  0.5544
 5565SOL    HW218850   5.315   1.494   5.600 -0.1082  0.0232  0.8342
 5566SOL     OW18851   7.305   8.625   9.439  0.0433 -0.0941 -0.6990
 5566SOL    HW118852   7.300   8.612   9.345  0.6686  1.4897 -0.9836
 5566SOL    HW218853   7.390   8.666   9.453 -0.8947  1.6289  0.2904
 5567SOL     OW18854   7.845   3.380   7.760  0.8085  0.5887 -0.0972
 5567SOL    HW118855   7.905   3.315   7.796 -0.6202  0.1623  1.6679
 5567SOL    HW218856   7.773   3.329   7.723  0.1762  1.1132  0.3755
 5568SOL     OW18857   8.299   8.155   2.380 -0.5923  0.4198 -0.0004
 5568SOL    HW118858   8.345   8.084   2.335  1.9351  1.5844  0.5517
 5568SOL    HW218859   8.228   8.112   2.428  1.3013 -1.8715  0.9232
 5569SOL     OW18860   2.119   2.814   9.470  0.2464 -0.5207 -0.0761
 5569SOL    HW118861   2.172   2.761   9.411 -1.1179 -0.6915 -1.2104
 5569SOL    HW218862   2.064   2.750   9.516 -1.5831 -0.1680 -1.6242
 5570SOL     OW18863   5.693   2.529   5.386  0.2564 -0.3717 -0.5390
 5570SOL    HW118864   5.746   2.608   5.392 -2.9074  2.0272 -1.5621
 5570SOL    HW218865   5.718   2.490   5.302  1.7594 -0.4887 -0.0735
 5571SOL     OW18866   3.053   2.319   4.056 -0.2577 -0.5616  0.4282
 5571SOL    HW118867   2.993   2.267   4.109 -1.1663 -0.5020 -0.5184
 5571SOL    HW218868   3.063   2.269   3.975  0.8682 -0.4950  0.5065
 5572SOL     OW18869   0.004   4.610   8.805  0.0285  0.4988 -0.0154
 5572SOL    HW118870   0.011   4.524   8.846 -0.5170  0.6081  0.3244
 5572SOL    HW218871  -0.064   4.655   8.856  0.4501  1.2018 -0.0614
 5573SOL     OW18872   7.848   7.064   2.179 -0.1774  0.1661 -0.2177
 5573SOL    HW118873   7.888   6.981   2.156 -0.0803  0.7451 -2.3572
 5573SOL    HW218874   7.919   7.117   2.215  0.4613  0.3123 -1.6278
 5574SOL     OW18875   1.132   8.039   8.008 -0.2731 -0.5405  0.1698
 5574SOL    HW118876   1.048   8.045   7.963 -0.4725 -1.6513  0.3649
 5574SOL    HW218877   1.163   8.130   8.014 -0.4104 -0.3215 -1.8751
 5575SOL     OW18878   8.675   0.173   8.500 -0.7263 -0.2434 -0.3509
 5575SOL    HW118879   8.631   0.092   8.526 -1.3406  0.6960  1.7186
 5575SOL    HW218880   8.613   0.242   8.523  0.6172  0.9466 -0.1802
 5576SOL     OW18881   5.238   3.935   6.256 -0.2511 -0.2866  0.6247
 5576SOL    HW118882   5.146   3.958   6.269 -0.3286 -0.4023  0.2782
 5576SOL    HW218883   5.248   3.849   6.298 -0.7681 -1.1775 -1.0220
 5577SOL     OW18884   6.672   5.923   7.896 -0.2928  1.2367  0.0362
 5577SOL    HW118885   6.609   5.856   7.868 -1.6829  2.4509  0.1866
 5577SOL    HW218886   6.722   5.943   7.817  0.6803 -0.5033  0.1611
 5578SOL     OW18887   2.526   1.128   2.013 -0.1154  0.2511  0.1101
 5578SOL    HW118888   2.514   1.199   1.950  0.6868  1.1592  0.9399
 5578SOL    HW218889   2.538   1.173   2.097  0.4514 -0.8718  0.6490
 5579SOL     OW18890   1.846   8.385   7.460  0.4173  0.1873 -0.0336
 5579SOL    HW118891   1.877   8.475   7.469  0.0855  0.1881  1.5741
 5579SOL    HW218892   1.801   8.367   7.543  1.3720 -1.7956  0.1314
 5580SOL     OW18893   1.871   1.430   2.109 -0.2872 -0.1115 -0.2871
 5580SOL    HW118894   1.806   1.400   2.045  0.0330  0.1877 -0.7560
 5580SOL    HW218895   1.939   1.472   2.057  0.3098 -0.4571  0.1987
 5581SOL     OW18896   6.583   7.043   4.531 -0.2031  0.3487  0.2469
 5581SOL    HW118897   6.571   7.117   4.471 -0.3667 -0.4735 -0.7568
 5581SOL    HW218898   6.540   7.071   4.612  1.0780  1.9725  0.4275
 5582SOL     OW18899   1.555   8.485   3.648  0.3993  0.2808 -0.4060
 5582SOL    HW118900   1.464   8.482   3.678  1.0810 -1.3404  1.8339
 5582SOL    HW218901   1.585   8.573   3.671 -0.2860  0.4320 -0.0431
 5583SOL     OW18902   7.928   2.131   6.871  0.3190 -0.1259 -0.0635
 5583SOL    HW118903   7.957   2.187   6.799 -0.0286 -0.4044 -0.4245
 5583SOL    HW218904   7.927   2.189   6.947  1.5805 -0.0471 -0.0808
 5584SOL     OW18905   4.558   3.073   5.565  0.5171  0.2884  0.0316
 5584SOL    HW118906   4.475   3.025   5.568  1.1875 -0.9151  0.1426
 5584SOL    HW218907   4.619   3.019   5.616  0.9867  1.9327  1.2916
 5585SOL     OW18908   7.961   0.442   1.655 -0.2167 -0.5100 -0.0447
 5585SOL    HW118909   7.949   0.529   1.694  0.4493  0.4467 -1.8606
 5585SOL    HW218910   7.911   0.383   1.711 -1.2843  1.1532  0.8184
 5586SOL     OW18911   4.948   2.709   6.037  0.4937 -0.2006 -0.4035
 5586SOL    HW118912   4.940   2.746   5.949  1.1525  1.3857  0.1655
 5586SOL    HW218913   5.027   2.655   6.032  0.3496 -0.3734 -0.8695
 5587SOL     OW18914   0.639   3.707   1.725 -0.3403  0.7022 -0.7916
 5587SOL    HW118915   0.631   3.652   1.803  0.7553  1.3319 -0.2209
 5587SOL    HW218916   0.596   3.656   1.656 -0.6442 -0.2088  0.0384
 5588SOL     OW18917   2.719   0.166   1.027  0.1257  0.3493 -0.2365
 5588SOL    HW118918   2.781   0.098   1.052 -1.4759 -1.4141 -0.7908
 5588SOL    HW218919   2.767   0.223   0.967  1.2550 -0.8278 -0.4707
 5589SOL     OW18920   6.792   1.685   7.115  0.0273 -0.1598 -0.1044
 5589SOL    HW118921   6.772   1.657   7.025 -0.1351 -0.4530  0.0225
 5589SOL    HW218922   6.819   1.777   7.106 -1.5749  0.3288 -0.2559
 5590SOL     OW18923   9.453   3.300   3.876  0.0045 -0.0960  0.0178
 5590SOL    HW118924   9.358   3.310   3.865 -0.1230  0.4396  1.4679
 5590SOL    HW218925   9.484   3.276   3.789 -1.5290 -0.8151 -0.3719
 5591SOL     OW18926   0.399   6.100   3.585  0.2070 -0.2987 -0.5129
 5591SOL    HW118927   0.462   6.081   3.516  1.7942 -1.2422  1.1108
 5591SOL    HW218928   0.453   6.125   3.661 -1.4148 -0.1314  0.6414
 5592SOL     OW18929   4.418   4.669   9.421 -0.1214  0.5515  0.5469
 5592SOL    HW118930   4.484   4.693   9.356  2.3556 -1.1315  2.2252
 5592SOL    HW218931   4.342   4.642   9.370  0.1601  3.2238 -1.4737
 5593SOL     OW18932   8.763   5.923   7.919 -0.0890 -0.1593 -0.0128
 5593SOL    HW118933   8.819   5.873   7.859 -0.2851  0.6432 -0.8865
 5593SOL    HW218934   8.805   6.009   7.924 -0.4741  0.0037  0.4390
 5594SOL     OW18935   2.536   2.618   0.250  0.1801 -0.2777  0.5279
 5594SOL    HW118936   2.576   2.600   0.165  0.7243  0.5420  0.6036
 5594SOL    HW218937   2.443   2.631   0.230  0.2512 -0.3996  0.1028
 5595SOL     OW18938   2.766   6.816   3.088  0.4300  0.3339  0.2249
 5595SOL    HW118939   2.715   6.838   3.009  1.9840  0.1812 -0.8676
 5595SOL    HW218940   2.837   6.880   3.089  1.2047 -0.5100  0.7458
 5596SOL     OW18941   4.359   0.904   3.037 -0.0062 -0.6011 -0.1398
 5596SOL    HW118942   4.276   0.857   3.029  0.1708 -0.8078 -0.8435
 5596SOL    HW218943   4.412   0.849   3.094  0.5191 -1.7323 -1.6783
 5597SOL     OW18944   8.449   8.145   9.095 -0.0885 -0.2154 -0.0039
 5597SOL    HW118945   8.473   8.233   9.067 -0.2361 -0.0986  0.2396
 5597SOL    HW218946   8.501   8.087   9.039  0.8087  0.0405  0.5477
 5598SOL     OW18947   6.474   8.629   8.531 -0.9179 -0.2228 -0.2208
 5598SOL    HW118948   6.404   8.609   8.469 -0.6862 -0.4071 -0.4282
 5598SOL    HW218949   6.466   8.723   8.547 -0.4986 -0.0254 -1.1286
 5599SOL     OW18950   8.245   5.330   4.105 -0.5989 -0.2276 -0.2241
 5599SOL    HW118951   8.295   5.261   4.063  3.0444  2.6447 -1.1319
 5599SOL    HW218952   8.172   5.346   4.045  0.1105 -1.3681 -1.4546
 5600SOL     OW18953   4.173   1.289   1.119  0.3096  0.0747 -0.4778
 5600SOL    HW118954   4.127   1.246   1.047  0.4548 -1.5837  0.3634
 5600SOL    HW218955   4.260   1.249   1.120  1.1059  1.7148 -0.7785
 5601SOL     OW18956   3.388   6.666   9.594 -0.3549 -0.3358  0.3181
 5601SOL    HW118957   3.428   6.664   9.507  1.0644 -0.1323  0.9300
 5601SOL    HW218958   3.319   6.732   9.587 -1.1782 -1.2824 -1.0001
 5602SOL     OW18959   0.850   5.268   6.931 -0.2533  0.6235  0.0189
 5602SOL    HW118960   0.889   5.188   6.964  0.0759  1.3157  1.3747
 5602SOL    HW218961   0.857   5.330   7.003 -0.6319  1.8338 -0.9411
 5603SOL     OW18962   1.849   0.291   2.771  0.0477 -0.5048 -0.0668
 5603SOL    HW118963   1.904   0.273   2.695 -1.6719 -0.8657 -1.2848
 5603SOL    HW218964   1.793   0.364   2.743  0.7229  0.7230  1.5871
 5604SOL     OW18965   0.534   5.463   4.347 -0.6832 -0.3970 -0.1871
 5604SOL    HW118966   0.533   5.552   4.381 -6.0730 -0.4949  0.8819
 5604SOL    HW218967   0.551   5.473   4.254 -1.4234  1.8424 -0.1475
 5605SOL     OW18968   8.908   4.281   7.864  0.2907  0.1882  1.1285
 5605SOL    HW118969   8.891   4.186   7.863  1.3150 -0.0396 -1.5776
 5605SOL    HW218970   8.858   4.315   7.790  0.7414  1.6297  1.4727
 5606SOL     OW18971   2.384   0.896   6.857 -0.1933  0.2781 -0.3120
 5606SOL    HW118972   2.418   0.810   6.832 -1.6292 -0.3440 -0.2508
 5606SOL    HW218973   2.308   0.909   6.800  0.2923  1.7471 -0.6595
 5607SOL     OW18974   5.076   9.208   6.572  0.1169 -0.2067 -0.4824
 5607SOL    HW118975   4.986   9.194   6.541  0.3554 -0.4499 -1.0807
 5607SOL    HW218976   5.079   9.301   6.595 -1.0630 -0.7124  2.1539
 5608SOL     OW18977   0.267   0.972   1.088  0.0974  1.0219 -0.0159
 5608SOL    HW118978   0.186   1.023   1.081 -1.3157 -0.9468  1.0557
 5608SOL    HW218979   0.275   0.953   1.181 -0.1992 -1.7951 -0.4736
 5609SOL     OW18980   5.249   0.920   4.223 -0.3637 -0.4815 -0.3520
 5609SOL    HW118981   5.155   0.925   4.239 -0.3307 -0.6454 -0.1120
 5609SOL    HW218982   5.280   1.010   4.238 -0.2470 -0.7308  1.0592
 5610SOL     OW18983   1.788   6.351   3.685 -0.0027  0.3859  0.2078
 5610SOL    HW118984   1.867   6.348   3.739 -0.8875  0.0103  1.5474
 5610SOL    HW218985   1.750   6.437   3.703  0.0452  0.5302 -0.3578
 5611SOL     OW18986   3.256   6.799   5.503 -0.5638  0.2744  0.3815
 5611SOL    HW118987   3.184   6.802   5.439 -1.4291  0.5738  1.3453
 5611SOL    HW218988   3.328   6.758   5.456 -1.7062 -1.0620 -0.2657
 5612SOL     OW18989   6.892   3.428   8.680 -0.0249 -0.4089  0.0470
 5612SOL    HW118990   6.840   3.485   8.623  0.9041 -0.2222 -0.6318
 5612SOL    HW218991   6.829   3.394   8.743 -0.5280  1.7629  0.8090
 5613SOL     OW18992   8.869   4.125   5.101 -0.4538  0.1720 -0.0152
 5613SOL    HW118993   8.962   4.103   5.093  0.0250  1.0689  2.3359
 5613SOL    HW218994   8.827   4.043   5.125  0.0419  0.1360  0.7545
 5614SOL     OW18995   3.319   3.474   0.799  0.2842  0.0774 -0.1631
 5614SOL    HW118996   3.290   3.564   0.814  1.5483  0.3581  0.7670
 5614SOL    HW218997   3.239   3.422   0.811 -0.1328  0.9303  1.0857
 5615SOL     OW18998   2.898   6.541   6.589  0.3746  0.1116 -0.3959
 5615SOL    HW118999   2.812   6.563   6.624 -0.5694 -0.4461 -2.2160
 5615SOL    HW219000   2.948   6.509   6.664 -1.0726  0.2426  0.6539
 5616SOL     OW19001   4.461   7.158   8.487 -0.3700  0.0020  0.2250
 5616SOL    HW119002   4.445   7.237   8.538  0.3249  1.1981 -1.3106
 5616SOL    HW219003   4.477   7.190   8.398  0.4130 -1.8351 -0.3426
 5617SOL     OW19004   9.405   4.361   6.629 -0.2398 -0.0166  0.1807
 5617SOL    HW119005   9.494   4.331   6.610 -0.3227  0.6657 -1.4501
 5617SOL    HW219006   9.407   4.455   6.611 -1.9080 -0.3857 -2.5962
 5618SOL     OW19007   3.548   4.376   9.043  0.0885  0.6128  0.6181
 5618SOL    HW119008   3.471   4.433   9.050  0.8960  1.6623  1.4134
 5618SOL    HW219009   3.559   4.361   8.949 -1.8376 -0.6505  0.5494
 5619SOL     OW19010   5.209   6.320   4.568 -0.3595 -0.4423  0.4166
 5619SOL    HW119011   5.199   6.247   4.507  0.6301  0.8086 -1.3536
 5619SOL    HW219012   5.170   6.395   4.522  0.9716  0.6733  1.0213
 5620SOL     OW19013   3.044   8.651   1.945 -0.2319  0.5438  0.3549
 5620SOL    HW119014   2.979   8.720   1.954 -1.5421 -0.3653 -1.3478
 5620SOL    HW219015   3.043   8.605   2.028 -0.9104  1.2540  0.7488
 5621SOL     OW19016   1.504   3.553   8.315  0.2581 -0.1085 -0.1449
 5621SOL    HW119017   1.551   3.474   8.341  0.4769  0.6663  1.9789
 5621SOL    HW219018   1.412   3.529   8.319  0.3499 -0.6067 -0.8141
 5622SOL     OW19019   9.420   2.561   2.728  0.1132 -0.1550  0.4604
 5622SOL    HW119020   9.375   2.549   2.645  0.4078 -0.8799  0.3979
 5622SOL    HW219021   9.454   2.650   2.724 -3.3606  1.3852  1.5332
 5623SOL     OW19022   4.628   1.666   6.294  0.3636 -0.0140 -0.1824
 5623SOL    HW119023   4.568   1.710   6.354  2.1866  0.6755  1.2282
 5623SOL    HW219024   4.584   1.670   6.209 -2.3079 -1.0563  1.0431
 5624SOL     OW19025   6.405   4.180   0.963  0.2789 -0.4307  0.2637
 5624SOL    HW119026   6.349   4.237   1.016 -0.6598 -0.5311 -0.5839
 5624SOL    HW219027   6.397   4.215   0.875  1.0360 -0.8683  0.0184
 5625SOL     OW19028   6.099   8.444   2.117  0.0983 -0.9462 -0.2917
 5625SOL    HW119029   6.107   8.395   2.199  1.6083 -1.2759 -0.6016
 5625SOL    HW219030   6.186   8.483   2.105 -0.2489 -0.5167 -1.4972
 5626SOL     OW19031   8.240   4.776   2.792  0.0947  0.2814 -0.3461
 5626SOL    HW119032   8.196   4.844   2.741 -0.6264 -0.0115 -0.1174
 5626SOL    HW219033   8.218   4.795   2.882 -1.2532 -1.0376 -0.3582
 5627SOL     OW19034   9.100   4.560   2.614 -0.0584  0.5197  0.2090
 5627SOL    HW119035   9.194   4.576   2.609 -0.1497  0.8665 -0.4289
 5627SOL    HW219036   9.074   4.541   2.524 -0.6513  0.7105  0.3402
 5628SOL     OW19037   9.544   7.856   4.308 -0.0922 -0.0790  0.2421
 5628SOL    HW119038   9.604   7.806   4.363 -1.3696 -0.1527  1.6382
 5628SOL    HW219039   9.459   7.813   4.320 -0.6820  0.7725 -0.6932
 5629SOL     OW19040   4.351   6.459   7.252  0.1158  0.8015  0.0402
 5629SOL    HW119041   4.386   6.370   7.256 -0.7155  0.4143 -0.9201
 5629SOL    HW219042   4.308   6.472   7.337  0.5867  0.4327  0.3328
 5630SOL     OW19043   3.537   7.222   7.842  0.6624 -0.2830  0.3365
 5630SOL    HW119044   3.485   7.161   7.791  1.5713 -2.3970  1.7797
 5630SOL    HW219045   3.475   7.290   7.869 -0.5836 -0.9733 -0.6745
 5631SOL     OW19046   1.648   0.011   3.704 -0.1737 -0.3099  0.3806
 5631SOL    HW119047   1.723  -0.023   3.754 -0.4333 -1.0799  0.2706
 5631SOL    HW219048   1.684   0.031   3.618 -0.0120 -0.3237  0.4440
 5632SOL     OW19049   5.622   8.635   2.298 -0.1513  0.2460 -0.2162
 5632SOL    HW119050   5.612   8.728   2.320  1.9889  0.6316 -0.6526
 5632SOL    HW219051   5.677   8.600   2.369  0.5455 -0.2570 -0.9924
 5633SOL     OW19052   3.103   2.480   4.537 -0.4034  0.1501 -0.4280
 5633SOL    HW119053   3.025   2.443   4.495 -0.1287 -0.3662 -0.4950
 5633SOL    HW219054   3.176   2.448   4.483 -0.1939  1.3582 -0.9014
 5634SOL     OW19055   3.846   3.579   2.293 -0.6292 -0.1203  0.0252
 5634SOL    HW119056   3.809   3.503   2.338 -0.3826  0.7589  1.8080
 5634SOL    HW219057   3.932   3.550   2.264 -1.4411 -1.2242 -1.4513
 5635SOL     OW19058   7.930   9.444   5.806  0.1571  0.1843  0.0535
 5635SOL    HW119059   7.929   9.426   5.712 -0.3367  0.3827  0.0189
 5635SOL    HW219060   7.988   9.377   5.842 -0.5834 -0.6437 -0.2447
 5636SOL     OW19061   0.187   9.050   8.358  0.0926  0.2567 -0.3645
 5636SOL    HW119062   0.233   8.991   8.298 -2.5015  0.5885 -2.9134
 5636SOL    HW219063   0.104   9.005   8.376 -2.0403  2.9411 -2.4757
 5637SOL     OW19064   0.494   7.564   0.140 -0.0553  0.2235 -0.5506
 5637SOL    HW119065   0.443   7.619   0.081  0.2796  1.6307  0.4435
 5637SOL    HW219066   0.577   7.611   0.152  0.8568 -1.2318 -0.8476
 5638SOL     OW19067   9.533   7.811   2.341  0.2749 -0.0481  0.1241
 5638SOL    HW119068   9.605   7.777   2.288 -0.0745 -1.3736  0.4600
 5638SOL    HW219069   9.561   7.796   2.432 -0.3756 -0.4638  0.2589
 5639SOL     OW19070   6.366   5.205   8.625 -0.8817 -0.7045 -0.0287
 5639SOL    HW119071   6.389   5.261   8.551 -0.3845 -0.2544  0.4602
 5639SOL    HW219072   6.270   5.197   8.621 -0.9776  0.3741  0.0402
 5640SOL     OW19073   1.722   8.617   8.680  0.2182 -0.2773  0.3397
 5640SOL    HW119074   1.770   8.579   8.607 -0.1327 -1.2404  0.5962
 5640SOL    HW219075   1.700   8.542   8.736 -0.6863  0.2741  0.7441
 5641SOL     OW19076   9.608   7.633   4.463 -0.0821 -0.2459 -0.0920
 5641SOL    HW119077   9.670   7.680   4.519 -2.7057  2.0594  1.1461
 5641SOL    HW219078   9.549   7.590   4.525 -2.0082  0.8814 -1.0792
 5642SOL     OW19079   9.501   1.308   2.952  0.0932 -0.5457 -0.1555
 5642SOL    HW119080   9.490   1.337   2.862  1.1686 -2.0354 -0.8051
 5642SOL    HW219081   9.545   1.381   2.996 -1.6146  0.7264 -0.4628
 5643SOL     OW19082   8.050   3.842   3.849 -0.4028 -0.7061 -0.3480
 5643SOL    HW119083   8.088   3.774   3.905  0.5581 -0.3695 -0.5863
 5643SOL    HW219084   8.106   3.844   3.772  1.0443  1.9965  0.6635
 5644SOL     OW19085   9.479   1.113   8.949 -0.2144  0.2627  0.5863
 5644SOL    HW119086   9.418   1.043   8.971 -2.1358  1.7530  0.2329
 5644SOL    HW219087   9.527   1.129   9.031 -1.7352  0.4360  1.4732
 5645SOL     OW19088   5.054   7.528   6.915  0.5198 -0.5606  0.6885
 5645SOL    HW119089   5.022   7.437   6.912 -1.6957  0.1868 -0.9554
 5645SOL    HW219090   4.975   7.580   6.931  1.3585  1.2357 -0.7656
 5646SOL     OW19091   3.876   0.282   7.554 -0.2109 -0.2713 -0.1464
 5646SOL    HW119092   3.851   0.374   7.546  2.0745  0.5596  1.1877
 5646SOL    HW219093   3.865   0.261   7.646  0.8503 -0.7860 -0.1101
 5647SOL     OW19094   4.031   6.045   0.401  0.3911 -0.1465 -0.8789
 5647SOL    HW119095   4.009   6.051   0.495  0.4274 -0.2753 -0.8626
 5647SOL    HW219096   4.015   6.133   0.368 -2.9196 -0.8239 -1.4726
 5648SOL     OW19097   5.342   8.792   4.402  0.2574  0.4869 -0.0831
 5648SOL    HW119098   5.313   8.866   4.455 -0.0148 -0.9875  1.9747
 5648SOL    HW219099   5.272   8.727   4.413  1.0114 -0.4920 -0.8998
 5649SOL     OW19100   3.503   0.268   1.793  0.5381  1.0329 -0.6655
 5649SOL    HW119101   3.434   0.237   1.851  0.7192 -0.2820 -1.1147
 5649SOL    HW219102   3.460   0.282   1.709  0.7427  0.5348 -0.8580
 5650SOL     OW19103   0.394   5.161   6.562 -0.2379  0.1341 -0.2231
 5650SOL    HW119104   0.487   5.144   6.574  0.0540  1.3404 -0.6701
 5650SOL    HW219105   0.367   5.207   6.641 -0.2285  0.6560 -0.5223
 5651SOL     OW19106   3.832   3.251   7.470 -0.0492 -0.3892  0.1534
 5651SOL    HW119107   3.856   3.160   7.456 -1.1857 -0.5061 -1.2318
 5651SOL    HW219108   3.787   3.252   7.555  0.1657 -1.0589  0.2790
 5652SOL     OW19109   9.431   3.989   5.592 -0.2214 -0.4563 -0.1197
 5652SOL    HW119110   9.394   4.067   5.635  0.3784 -0.0627 -0.2989
 5652SOL    HW219111   9.504   4.023   5.541  0.3616 -1.2101  0.2013
 5653SOL     OW19112   1.990   9.506   3.339  0.3383  0.1289 -0.0853
 5653SOL    HW119113   2.008   9.592   3.379  0.6326  0.3324 -0.6593
 5653SOL    HW219114   1.911   9.521   3.287  0.1871 -0.0428  0.0894
 5654SOL     OW19115   1.691   4.738   3.664  0.3032 -0.2006  0.5273
 5654SOL    HW119116   1.695   4.830   3.638  1.7361  0.1675  1.8548
 5654SOL    HW219117   1.598   4.715   3.660 -0.0378  1.2162 -0.1059
 5655SOL     OW19118   5.564   3.763   5.739 -0.0080 -0.8101 -0.0491
 5655SOL    HW119119   5.653   3.729   5.745 -0.0036 -0.8936 -0.6101
 5655SOL    HW219120   5.516   3.699   5.688 -1.0760 -2.1405  2.4230
 5656SOL     OW19121   0.423   0.109   0.253  0.1369 -0.3288  0.2011
 5656SOL    HW119122   0.331   0.100   0.228  0.1284 -1.4804  0.6099
 5656SOL    HW219123   0.471   0.106   0.170 -0.2300  0.9237 -0.0631
 5657SOL     OW19124   3.457   5.353   2.751  0.2677  0.3573 -0.3769
 5657SOL    HW119125   3.479   5.268   2.713 -1.3796 -0.7862  1.0323
 5657SOL    HW219126   3.524   5.412   2.719 -0.0495 -0.8400 -3.6185
 5658SOL     OW19127   4.388   3.660   7.843  0.3172 -0.5712  0.0871
 5658SOL    HW119128   4.417   3.642   7.754 -0.0438 -1.2135  0.0987
 5658SOL    HW219129   4.359   3.751   7.840  2.3979  0.1562  0.0955
 5659SOL     OW19130   1.815   1.635   4.104 -0.0270  0.0048  0.3466
 5659SOL    HW119131   1.778   1.624   4.017 -1.7133 -0.2079  1.0572
 5659SOL    HW219132   1.741   1.622   4.164  1.5088 -2.1874  1.9423
 5660SOL     OW19133   0.753   3.253   8.650 -0.1094  0.0058  0.3857
 5660SOL    HW119134   0.779   3.345   8.640  1.0370 -0.1749  1.4720
 5660SOL    HW219135   0.836   3.205   8.646 -0.7050 -0.9999 -0.2227
 5661SOL     OW19136   6.413   9.077   1.122 -0.5320 -0.3130  0.6116
 5661SOL    HW119137   6.362   9.147   1.082  0.4847  0.0528 -0.0916
 5661SOL    HW219138   6.358   9.044   1.193 -1.7838 -0.0270 -0.2079
 5662SOL     OW19139   0.977   0.295   0.781 -0.5254 -0.1576  0.6653
 5662SOL    HW119140   0.976   0.292   0.685 -1.3478  0.3332  0.6453
 5662SOL    HW219141   0.932   0.215   0.808 -1.1498  0.1709  0.6162
 5663SOL     OW19142   4.981   1.436   3.486  0.0113 -0.0481  0.6730
 5663SOL    HW119143   4.920   1.505   3.513 -0.5899 -0.4466  0.3465
 5663SOL    HW219144   4.931   1.382   3.425  1.5545  1.3213 -2.0125
 5664SOL     OW19145   8.792   3.594   0.606  0.3417 -0.2125 -0.3570
 5664SOL    HW119146   8.783   3.689   0.611  0.9776 -0.1522 -0.3724
 5664SOL    HW219147   8.703   3.561   0.622  0.5746  0.2824  2.5030
 5665SOL     OW19148   4.609   5.598   8.916 -0.3442  0.1881 -0.2193
 5665SOL    HW119149   4.682   5.658   8.932 -0.6120  0.6607 -0.7506
 5665SOL    HW219150   4.647   5.511   8.925 -0.4069  0.3522  2.8566
 5666SOL     OW19151   3.634   5.770   5.938 -0.0017  0.3833  0.3143
 5666SOL    HW119152   3.725   5.768   5.967 -0.3032  0.4566  1.2861
 5666SOL    HW219153   3.622   5.858   5.904 -0.0453  0.7808  1.3221
 5667SOL     OW19154   6.705   2.454   5.060  0.0964 -0.0807  0.1670
 5667SOL    HW119155   6.659   2.446   5.143 -0.9577  0.7977 -0.3166
 5667SOL    HW219156   6.761   2.376   5.056 -1.4744 -1.2784  0.6802
 5668SOL     OW19157   3.608   2.354   3.119  0.1135 -0.1105 -0.5094
 5668SOL    HW119158   3.546   2.385   3.053 -0.6611  0.6838  0.5451
 5668SOL    HW219159   3.648   2.434   3.154  2.8413 -0.6460 -2.1362
 5669SOL     OW19160   7.005   5.226   8.053 -0.0453  0.3092  0.4215
 5669SOL    HW119161   7.091   5.238   8.094 -1.1842  4.2696  2.1574
 5669SOL    HW219162   6.954   5.178   8.117  0.6663 -1.6332 -0.4122
 5670SOL     OW19163   8.438   7.269   2.367  0.0447  0.2874 -0.1300
 5670SOL    HW119164   8.369   7.211   2.399  1.5277 -0.7027  1.4080
 5670SOL    HW219165   8.435   7.258   2.272  0.4674 -2.6227  0.1014
 5671SOL     OW19166   2.075   8.907   1.221  0.1338 -0.2361 -0.2044
 5671SOL    HW119167   1.999   8.941   1.174  0.0942 -0.9618 -0.6873
 5671SOL    HW219168   2.145   8.971   1.205 -0.8210  1.4180  1.7493
 5672SOL     OW19169   9.082   7.063   5.888 -0.1025 -0.2631  0.0561
 5672SOL    HW119170   8.991   7.068   5.916 -0.4408 -1.7600 -0.6666
 5672SOL    HW219171   9.118   6.988   5.935  0.7792  0.3174  0.3451
 5673SOL     OW19172   5.067   1.783   3.088  0.4164 -0.0606 -0.1829
 5673SOL    HW119173   4.976   1.756   3.089  0.0531  0.8682 -2.2905
 5673SOL    HW219174   5.071   1.852   3.022  2.5681  0.2440  0.1728
 5674SOL     OW19175   0.503   8.105   2.444 -0.0252 -1.0146  0.4539
 5674SOL    HW119176   0.565   8.125   2.374  1.0136  0.0187  1.6271
 5674SOL    HW219177   0.417   8.111   2.402  0.6042 -1.4310 -0.9520
 5675SOL     OW19178   8.298   5.034   7.926  0.7821  0.2936  0.0483
 5675SOL    HW119179   8.233   4.988   7.872 -0.2161 -1.2802  2.4503
 5675SOL    HW219180   8.277   5.127   7.913  0.1254 -0.0484 -1.6692
 5676SOL     OW19181   0.299   9.157   8.601  0.5485  0.0588 -0.4298
 5676SOL    HW119182   0.222   9.193   8.646  0.3602 -0.6224 -0.1979
 5676SOL    HW219183   0.265   9.122   8.520  0.6692  0.0488 -0.4760
 5677SOL     OW19184   7.399   2.115   3.094 -0.2491  0.2889  0.9086
 5677SOL    HW119185   7.329   2.180   3.089  0.0090  0.5769  1.0351
 5677SOL    HW219186   7.475   2.158   3.056 -0.4298 -0.4307 -0.3131
 5678SOL     OW19187   4.465   2.330   5.907 -0.2330 -0.7708  0.6249
 5678SOL    HW119188   4.446   2.349   5.999  0.3446  2.0041  0.2576
 5678SOL    HW219189   4.519   2.403   5.878  0.8336 -2.3178 -1.5683
 5679SOL     OW19190   5.212   6.873   1.311 -0.0963 -0.3546 -0.3334
 5679SOL    HW119191   5.267   6.951   1.317 -0.6503 -0.0007  0.3413
 5679SOL    HW219192   5.223   6.842   1.221  1.1520 -0.2579 -0.2263
 5680SOL     OW19193   8.786   5.619   1.132  0.0717 -0.9372 -0.3569
 5680SOL    HW119194   8.792   5.641   1.225  1.0155 -1.7499 -0.1940
 5680SOL    HW219195   8.709   5.562   1.126 -0.2321 -0.5541 -0.1491
 5681SOL     OW19196   4.221   4.687   8.013  0.5835 -0.0169 -0.2688
 5681SOL    HW119197   4.220   4.739   8.093 -2.5902  0.0179 -0.2321
 5681SOL    HW219198   4.198   4.748   7.944 -0.0718 -0.7246 -0.6936
 5682SOL     OW19199   7.478   0.233   5.885  0.4918  0.0203 -0.0707
 5682SOL    HW119200   7.522   0.315   5.865  1.8907  0.0410  2.6358
 5682SOL    HW219201   7.476   0.230   5.981 -0.0835 -2.8298 -0.0975
 5683SOL     OW19202   6.708   8.524   8.353 -0.0835  0.1797  1.1819
 5683SOL    HW119203   6.792   8.525   8.306  0.2551  0.3560  1.7822
 5683SOL    HW219204   6.700   8.612   8.390 -0.9899  0.4573  0.3478
 5684SOL     OW19205   7.480   5.494   2.439 -0.7184  0.2290 -0.3482
 5684SOL    HW119206   7.419   5.546   2.387  0.3014  1.4280 -0.3983
 5684SOL    HW219207   7.499   5.417   2.385 -2.8351 -0.6188  0.0493
 5685SOL     OW19208   7.141   2.761   2.606 -0.5460  0.0887 -0.1225
 5685SOL    HW119209   7.223   2.734   2.566 -0.7821 -1.1497  0.1836
 5685SOL    HW219210   7.160   2.847   2.645  0.7043 -0.3555  0.2843
 5686SOL     OW19211   5.677   9.521   0.035  0.5818  0.0544 -0.3284
 5686SOL    HW119212   5.693   9.436   0.077  0.9164  0.9665  1.4795
 5686SOL    HW219213   5.620   9.500  -0.039 -0.9608 -1.5429  1.1928
 5687SOL     OW19214   6.605   5.751   6.270  0.2054 -0.6124  0.2892
 5687SOL    HW119215   6.652   5.834   6.278  0.2297 -0.5266 -0.6532
 5687SOL    HW219216   6.542   5.766   6.200  0.0968 -1.3378  0.2239
 5688SOL     OW19217   3.899   2.935   2.139  0.1740  0.3067 -0.1905
 5688SOL    HW119218   3.974   2.989   2.161  1.2716 -0.6802 -1.3479
 5688SOL    HW219219   3.930   2.845   2.150 -1.6560 -0.1637  1.8528
 5689SOL     OW19220   1.298   5.779   9.220  0.1217  0.3906  0.6089
 5689SOL    HW119221   1.373   5.777   9.279  0.0304  0.3121  0.7212
 5689SOL    HW219222   1.260   5.866   9.232  0.1917  0.4294  0.5540
 5690SOL     OW19223   9.346   0.980   6.485  0.5113  0.2212  0.0408
 5690SOL    HW119224   9.313   0.899   6.447 -0.3575  0.5052  0.1722
 5690SOL    HW219225   9.268   1.031   6.506  1.0152  2.1103 -2.1844
 5691SOL     OW19226   4.525   8.858   7.732  0.1891 -0.4164 -1.1084
 5691SOL    HW119227   4.584   8.917   7.779 -0.1954 -1.9506  1.5350
 5691SOL    HW219228   4.474   8.915   7.674  1.4484  1.4779 -0.4406
 5692SOL     OW19229   5.769   5.051   1.021 -0.1153  0.3306 -0.0654
 5692SOL    HW119230   5.748   5.091   0.937 -0.3777  0.2562 -0.0382
 5692SOL    HW219231   5.744   5.116   1.086 -0.7001  0.0620 -0.0151
 5693SOL     OW19232   6.116   7.765   5.248 -0.5315 -0.0244 -0.0917
 5693SOL    HW119233   6.120   7.710   5.326  0.5864  1.2357  0.7793
 5693SOL    HW219234   6.058   7.837   5.271 -0.6858  0.0353 -0.6436
 5694SOL     OW19235   6.645   6.497   4.255  0.2403 -0.3087  0.1381
 5694SOL    HW119236   6.643   6.513   4.161  1.3622 -0.0889  0.1270
 5694SOL    HW219237   6.717   6.435   4.267 -0.0672 -0.5409  0.8242
 5695SOL     OW19238   6.055   0.868   1.737 -0.1470 -0.5939 -0.0358
 5695SOL    HW119239   5.996   0.793   1.749 -0.8651 -0.0202  0.1119
 5695SOL    HW219240   6.003   0.931   1.688 -0.1409  0.4593  1.2494
 5696SOL     OW19241   2.345   0.553   9.273  0.5856  0.4517  0.0020
 5696SOL    HW119242   2.323   0.631   9.222  1.1081 -1.0289 -2.6690
 5696SOL    HW219243   2.439   0.541   9.259  0.3941 -1.0052 -0.1337
 5697SOL     OW19244   8.338   0.118   6.025 -0.0671  0.1155  0.0407
 5697SOL    HW119245   8.401   0.107   5.955  0.2807 -0.7816  0.4743
 5697SOL    HW219246   8.260   0.071   5.995  0.0465 -0.1807  0.1976
 5698SOL     OW19247   8.001   3.361   0.564 -0.3223  0.2754 -0.1513
 5698SOL    HW119248   8.065   3.431   0.552 -1.2929  1.4569  1.1605
 5698SOL    HW219249   8.034   3.311   0.639 -0.0333 -0.1813 -0.5859
 5699SOL     OW19250   5.269   9.026   1.362 -0.4186  0.0237 -0.2067
 5699SOL    HW119251   5.356   8.996   1.335 -0.0982 -0.2722  1.1115
 5699SOL    HW219252   5.219   9.028   1.280  0.9549  0.7071 -1.0723
 5700SOL     OW19253   6.528   8.139   7.962 -0.5245 -0.1179 -0.3831
 5700SOL    HW119254   6.458   8.084   7.997 -0.1431 -0.6559 -0.4459
 5700SOL    HW219255   6.576   8.169   8.039 -1.0973  0.6372 -0.3096
 5701SOL     OW19256   2.648   2.276   5.545 -0.6144  0.2718  0.0565
 5701SOL    HW119257   2.675   2.330   5.619 -2.6937  0.9755  0.3749
 5701SOL    HW219258   2.660   2.186   5.576 -1.5943  0.5503  1.3363
 5702SOL     OW19259   8.260   1.691   4.904  1.0792 -0.5861  0.1351
 5702SOL    HW119260   8.258   1.640   4.823  0.9323 -1.5261  0.7194
 5702SOL    HW219261   8.181   1.666   4.951 -0.0050  1.6223 -0.4001
 5703SOL     OW19262   1.985   4.473   3.347 -0.1408  0.2826  0.5778
 5703SOL    HW119263   1.937   4.451   3.267  1.7134  1.1501 -0.8456
 5703SOL    HW219264   1.917   4.492   3.411 -1.7188 -2.0916 -0.2536
 5704SOL     OW19265   4.535   7.986   6.970 -0.6666  0.2530 -0.3140
 5704SOL    HW119266   4.472   8.038   6.919  1.7459  1.2276 -2.5272
 5704SOL    HW219267   4.534   7.900   6.928  0.0810  0.5371 -0.9298
 5705SOL     OW19268   5.306   5.551   7.067  0.6101 -0.7996  0.1005
 5705SOL    HW119269   5.332   5.643   7.068 -0.1540 -0.5651  1.8022
 5705SOL    HW219270   5.296   5.530   6.975  1.3664  0.6478 -0.3504
 5706SOL     OW19271   3.475   6.297   6.189  0.2824  0.1409 -0.4596
 5706SOL    HW119272   3.540   6.354   6.230 -0.4707  0.4176  0.3738
 5706SOL    HW219273   3.447   6.347   6.112  0.2276  0.5302 -0.1916
 5707SOL     OW19274   3.411   1.283   4.204 -0.1536 -0.1976  0.0872
 5707SOL    HW119275   3.395   1.272   4.298  1.8704  0.9984  0.6278
 5707SOL    HW219276   3.454   1.201   4.178  1.5462  0.4419  0.7917
 5708SOL     OW19277   0.854   7.353   5.581  0.4439 -0.2122 -0.2036
 5708SOL    HW119278   0.766   7.316   5.585 -0.1284  1.1469  0.7974
 5708SOL    HW219279   0.909   7.282   5.547 -0.7605 -1.6153  0.6338
 5709SOL     OW19280   2.483   8.912   6.953 -0.3651  0.1216  0.4659
 5709SOL    HW119281   2.446   8.977   7.014 -1.2665 -2.4364  2.9040
 5709SOL    HW219282   2.410   8.890   6.895 -0.5385  0.1893  0.6560
 5710SOL     OW19283   8.594   4.406   0.604 -0.0839 -0.0771 -0.3229
 5710SOL    HW119284   8.642   4.373   0.527 -0.3428 -0.0279 -0.5038
 5710SOL    HW219285   8.509   4.433   0.570 -0.3653 -0.4732  0.0571
 5711SOL     OW19286   0.946   7.228   3.583 -0.7101  0.1666 -0.0066
 5711SOL    HW119287   0.893   7.308   3.589  0.2785  0.9563 -1.1480
 5711SOL    HW219288   0.917   7.187   3.501  0.1104  0.3792 -0.4129
 5712SOL     OW19289   5.710   1.102   4.169  0.2613 -0.3046 -0.2226
 5712SOL    HW119290   5.726   1.160   4.244  0.2302 -1.4489  0.6979
 5712SOL    HW219291   5.697   1.162   4.095  0.1123  0.8646  0.7140
 5713SOL     OW19292   1.478   8.571   5.891 -0.0455  0.1336 -0.4767
 5713SOL    HW119293   1.546   8.639   5.894  1.0403 -0.8843 -0.9101
 5713SOL    HW219294   1.459   8.560   5.798  0.4957 -0.7926 -0.4974
 5714SOL     OW19295   5.657   7.301   6.918  0.0138  0.2313  0.2555
 5714SOL    HW119296   5.645   7.256   7.002  0.6811 -1.0027 -0.2857
 5714SOL    HW219297   5.568   7.313   6.885 -0.2487  0.6334  1.0839
 5715SOL     OW19298   7.427   0.545   5.206 -0.1732  0.9772 -0.0483
 5715SOL    HW119299   7.415   0.633   5.171 -0.3933  0.3506 -1.6587
 5715SOL    HW219300   7.465   0.558   5.292  0.9781  2.6239 -0.7594
 5716SOL     OW19301   9.246   8.824   8.355  0.8191  0.5187  0.1383
 5716SOL    HW119302   9.289   8.739   8.347 -3.9625 -2.2505  0.3035
 5716SOL    HW219303   9.259   8.848   8.447 -0.2387 -1.6471  0.9103
 5717SOL     OW19304   2.782   7.867   6.291 -0.6906  0.2989  0.0784
 5717SOL    HW119305   2.807   7.775   6.283 -1.5365  0.1031 -0.4949
 5717SOL    HW219306   2.821   7.896   6.373 -0.2397 -0.5129  0.1573
 5718SOL     OW19307   3.545   2.925   7.320  0.1459  0.2606 -0.3919
 5718SOL    HW119308   3.625   2.881   7.291  0.4711  0.3210  0.3888
 5718SOL    HW219309   3.479   2.855   7.323  1.0241 -0.5786  2.3143
 5719SOL     OW19310   2.210   0.974   1.955 -0.1495  0.0090 -0.2020
 5719SOL    HW119311   2.129   0.940   1.915 -0.4035 -0.0927  0.3888
 5719SOL    HW219312   2.187   1.062   1.984 -0.6751 -0.7328  1.7769
 5720SOL     OW19313   4.457   6.140   8.605 -0.2668 -0.2208  0.3739
 5720SOL    HW119314   4.468   6.074   8.674 -1.4791 -0.4939  0.3420
 5720SOL    HW219315   4.417   6.215   8.649 -0.6561 -0.2374  0.0536
 5721SOL     OW19316   5.984   7.343   1.358 -0.9101 -0.2877 -0.0345
 5721SOL    HW119317   6.064   7.313   1.315 -0.4664  1.6240 -0.6425
 5721SOL    HW219318   6.012   7.369   1.445 -0.3650  2.2934 -0.8855
 5722SOL     OW19319   0.395   6.402   0.826  0.2192  0.2201  0.1136
 5722SOL    HW119320   0.482   6.432   0.799  0.5617 -0.9046 -0.0942
 5722SOL    HW219321   0.339   6.419   0.751  0.5714 -0.3417 -0.2815
 5723SOL     OW19322   6.606   5.174   0.179 -0.2297 -0.0102 -0.1834
 5723SOL    HW119323   6.640   5.262   0.197  0.2858 -0.0202 -1.0858
 5723SOL    HW219324   6.590   5.137   0.266 -1.3853  1.3186  0.2128
 5724SOL     OW19325   6.085   2.489   3.404  0.6567  0.0006 -0.2793
 5724SOL    HW119326   6.006   2.539   3.383  1.0817  0.2412 -1.3472
 5724SOL    HW219327   6.061   2.438   3.481 -0.7009 -0.2738 -0.8576
 5725SOL     OW19328   7.038   9.203   0.319 -0.7832 -0.1031 -0.1401
 5725SOL    HW119329   7.052   9.108   0.314 -1.3753 -0.3151  1.5818
 5725SOL    HW219330   7.052   9.234   0.229 -1.5251 -1.9342 -0.9335
 5726SOL     OW19331   0.611   7.028   0.390  0.2651  0.5286 -0.3777
 5726SOL    HW119332   0.667   6.983   0.327  1.2336  1.9409 -0.5651
 5726SOL    HW219333   0.664   7.101   0.422 -0.9499  1.0436  0.5387
 5727SOL     OW19334   1.331   4.426   3.999  0.2362  0.0042  0.8090
 5727SOL    HW119335   1.236   4.411   4.002  0.2447 -0.0028  1.0217
 5727SOL    HW219336   1.347   4.493   4.066  0.8346 -2.3015  3.1089
 5728SOL     OW19337   8.444   4.990   8.435  0.6401 -0.0444  0.8402
 5728SOL    HW119338   8.419   5.049   8.507 -0.9338  0.1551  0.1544
 5728SOL    HW219339   8.415   5.035   8.356 -2.1058 -2.3799  0.3722
 5729SOL     OW19340   4.570   9.083   1.959  0.2818  0.9305 -0.3467
 5729SOL    HW119341   4.556   9.011   2.021 -1.2000  1.2672 -0.2402
 5729SOL    HW219342   4.632   9.049   1.895  2.1995  0.7016  1.5114
 5730SOL     OW19343   4.657   1.513   5.474  0.5721 -0.4686 -0.1040
 5730SOL    HW119344   4.732   1.456   5.456  1.4228  0.9587 -1.3637
 5730SOL    HW219345   4.684   1.564   5.551  0.5634 -0.5090 -0.0744
 5731SOL     OW19346   5.256   7.675   9.339 -0.3393 -0.2946 -0.6035
 5731SOL    HW119347   5.274   7.764   9.309 -4.3976  0.2902 -1.8584
 5731SOL    HW219348   5.182   7.685   9.399 -1.5443 -2.8882 -1.5292
 5732SOL     OW19349   5.155   4.646   6.717  0.0898 -0.2584 -0.0047
 5732SOL    HW119350   5.243   4.681   6.701 -0.0525 -0.2073 -0.6824
 5732SOL    HW219351   5.159   4.614   6.808  0.7955 -0.2173 -0.0114
 5733SOL     OW19352   5.242   6.748   5.437  0.4104 -0.3915  0.3198
 5733SOL    HW119353   5.330   6.717   5.418  1.3374  1.4085  1.3915
 5733SOL    HW219354   5.217   6.704   5.518  0.5569 -0.4593  0.3266
 5734SOL     OW19355   2.939   7.602   6.988  0.2083  0.2676  0.5489
 5734SOL    HW119356   2.855   7.563   7.012  0.5343 -0.7532  0.1123
 5734SOL    HW219357   2.986   7.609   7.071 -0.1548  0.4691  0.7415
 5735SOL     OW19358   5.272   7.739   2.299  0.0979 -0.0537  0.5077
 5735SOL    HW119359   5.330   7.724   2.374  0.0230 -0.7053  0.4367
 5735SOL    HW219360   5.208   7.804   2.331  0.5829  0.3182  0.7286
 5736SOL     OW19361   4.128   0.368   0.666  0.1450 -0.0671  0.1311
 5736SOL    HW119362   4.201   0.428   0.680 -0.7758  1.0544  0.2228
 5736SOL    HW219363   4.063   0.393   0.732 -1.4205  0.7272 -1.6246
 5737SOL     OW19364   1.868   8.848   3.374  0.3690  0.3389 -0.4215
 5737SOL    HW119365   1.895   8.809   3.291  0.3185  0.2911 -0.4155
 5737SOL    HW219366   1.941   8.905   3.399 -0.6607  2.3516 -1.7639
 5738SOL     OW19367   3.853   6.818   8.697 -0.4342 -0.1419 -0.3502
 5738SOL    HW119368   3.860   6.858   8.610  0.3293  1.6209  0.4640
 5738SOL    HW219369   3.942   6.823   8.733 -0.9435  0.1236  0.9207
 5739SOL     OW19370   3.096   1.320   7.701  0.1169 -0.1521  0.5261
 5739SOL    HW119371   3.113   1.411   7.677  1.1654 -0.6899 -0.9049
 5739SOL    HW219372   3.020   1.295   7.650  0.9554 -0.6104 -0.5316
 5740SOL     OW19373   4.140   7.682   9.462  0.1589 -0.1558 -0.2369
 5740SOL    HW119374   4.130   7.588   9.480  1.1199 -0.2317 -0.0302
 5740SOL    HW219375   4.232   7.692   9.439 -0.4506  0.3611 -2.7014
 5741SOL     OW19376   7.560   3.967   8.481 -0.2412  0.7122  0.5828
 5741SOL    HW119377   7.470   3.938   8.462 -0.3689 -0.1751  2.3538
 5741SOL    HW219378   7.550   4.057   8.512 -0.0669  2.0502 -2.8241
 5742SOL     OW19379   7.001   3.538   3.187  0.3741 -0.1153 -0.3119
 5742SOL    HW119380   6.948   3.459   3.188 -0.2467  0.2899  0.0439
 5742SOL    HW219381   7.008   3.562   3.095 -0.4994  0.0957 -0.3344
 5743SOL     OW19382   8.600   7.886   6.860 -0.0542 -0.2410  0.1519
 5743SOL    HW119383   8.552   7.940   6.924  0.7822  0.3732  0.2794
 5743SOL    HW219384   8.586   7.930   6.776  0.9326  0.4183  0.3101
 5744SOL     OW19385   8.852   1.642   3.213  0.4228 -0.0812 -0.1950
 5744SOL    HW119386   8.766   1.621   3.249  0.1509  0.4425 -0.5251
 5744SOL    HW219387   8.905   1.564   3.229 -0.0682 -0.3458  0.1543
 5745SOL     OW19388   0.520   7.642   2.831 -0.5616 -0.2723 -0.3207
 5745SOL    HW119389   0.443   7.674   2.878 -1.5393 -1.3838 -1.1116
 5745SOL    HW219390   0.592   7.696   2.864 -1.1286 -1.1196  2.5983
 5746SOL     OW19391   0.842   9.620   0.499 -0.1338  0.3807 -0.6783
 5746SOL    HW119392   0.755   9.641   0.467 -0.9228 -1.2390  0.2645
 5746SOL    HW219393   0.854   9.528   0.476 -0.0865 -0.4010  2.1099
 5747SOL     OW19394   0.800   8.669   4.441  0.4087 -0.2916 -0.0620
 5747SOL    HW119395   0.832   8.745   4.491 -1.0035 -0.0377  0.5119
 5747SOL    HW219396   0.804   8.596   4.503  0.8358 -0.4904 -0.3150
 5748SOL     OW19397   1.874   8.682   8.957 -0.4289 -0.4294  0.4452
 5748SOL    HW119398   1.933   8.747   8.994 -0.0798  0.0417 -0.8877
 5748SOL    HW219399   1.812   8.662   9.028 -1.1044  2.0196  0.6280
 5749SOL     OW19400   5.032   7.302   8.613 -0.5060  0.1141  0.1484
 5749SOL    HW119401   5.126   7.321   8.612 -0.0792 -1.7352  1.2266
 5749SOL    HW219402   4.990   7.388   8.616  1.2029  0.9598  1.6768
 5750SOL     OW19403   9.499   2.362   5.395  0.3198  0.1485 -0.0915
 5750SOL    HW119404   9.515   2.456   5.399  1.4053  0.1172 -2.4051
 5750SOL    HW219405   9.432   2.347   5.462  0.9542  2.3473  1.1431
 5751SOL     OW19406   5.700   8.060   4.636  0.1728  0.4253 -0.2969
 5751SOL    HW119407   5.657   7.995   4.691 -0.5377  1.4166  0.3497
 5751SOL    HW219408   5.733   8.010   4.562  0.3987 -0.8000  0.6024
 5752SOL     OW19409   2.437   0.681   5.917 -0.2569 -0.1603  0.0003
 5752SOL    HW119410   2.344   0.665   5.902 -0.1387 -2.1776  1.1203
 5752SOL    HW219411   2.481   0.640   5.843 -0.1995 -0.5227  0.2322
 5753SOL     OW19412   2.356   1.687   8.183 -0.0771 -0.0913 -0.0902
 5753SOL    HW119413   2.399   1.743   8.118 -0.8773  1.4499  0.6667
 5753SOL    HW219414   2.428   1.650   8.234  0.4762  0.0266 -0.7766
 5754SOL     OW19415   7.309   6.893   0.913  0.2326 -0.0645 -0.6747
 5754SOL    HW119416   7.291   6.873   0.821 -1.5745  2.2774 -0.9382
 5754SOL    HW219417   7.388   6.947   0.911  2.0474 -2.5472 -0.4567
 5755SOL     OW19418   5.419   1.795   5.892  0.2229  0.6548 -0.0872
 5755SOL    HW119419   5.346   1.740   5.865 -0.3994  1.0587  0.7167
 5755SOL    HW219420   5.487   1.733   5.918  0.1646  0.2749 -0.8126
 5756SOL     OW19421   3.900   8.706   4.579  0.0666 -0.4833  0.5592
 5756SOL    HW119422   3.925   8.798   4.588 -0.0278 -0.4615  0.5899
 5756SOL    HW219423   3.807   8.707   4.557 -0.2633 -0.6002  1.8641
 5757SOL     OW19424   7.105   6.861   9.479 -0.0111 -0.0805 -1.1136
 5757SOL    HW119425   7.158   6.883   9.402 -0.5167  3.6030 -0.6236
 5757SOL    HW219426   7.149   6.786   9.518  2.7630  0.5803 -2.6878
 5758SOL     OW19427   1.962   6.382   0.147  0.3967 -0.3759  0.2373
 5758SOL    HW119428   1.889   6.442   0.162 -0.3084 -0.4416 -2.3981
 5758SOL    HW219429   2.038   6.440   0.137  0.2921 -0.1404  0.8129
 5759SOL     OW19430   7.799   3.224   0.873  0.1910 -0.5615 -0.1062
 5759SOL    HW119431   7.806   3.311   0.834  2.0182 -0.9610 -0.7656
 5759SOL    HW219432   7.795   3.165   0.798 -1.7746 -1.0629  0.3251
 5760SOL     OW19433   3.277   2.636   0.355 -0.3463 -0.0573  0.1207
 5760SOL    HW119434   3.269   2.640   0.450  1.6806 -1.2909  0.3916
 5760SOL    HW219435   3.354   2.689   0.335 -0.6558  0.0529 -0.8328
 5761SOL     OW19436   6.275   4.806   7.290 -0.2853 -0.0105 -0.6941
 5761SOL    HW119437   6.292   4.834   7.380  1.4185  0.0407 -0.9934
 5761SOL    HW219438   6.181   4.786   7.288 -0.8998  2.3396  0.4443
 5762SOL     OW19439   7.907   6.169   8.117  0.5354  0.3389  0.1356
 5762SOL    HW119440   7.856   6.163   8.036  0.6750 -0.6979  0.1196
 5762SOL    HW219441   7.926   6.263   8.126  1.2139  0.3840 -1.4575
 5763SOL     OW19442   8.183   7.662   4.366 -0.0338  0.0880  0.4823
 5763SOL    HW119443   8.263   7.681   4.318 -0.7922 -1.0850 -1.3311
 5763SOL    HW219444   8.113   7.702   4.314 -0.9632 -1.8722  0.1472
 5764SOL     OW19445   5.916   3.312   5.768  0.6170  0.4853 -0.2615
 5764SOL    HW119446   5.950   3.380   5.827  1.1973  1.1382 -1.3090
 5764SOL    HW219447   5.830   3.344   5.742  0.5658  0.4314 -0.1621
 5765SOL     OW19448   3.727   2.794   9.221 -0.3276  0.0206 -0.0051
 5765SOL    HW119449   3.699   2.731   9.155 -2.1210  0.0468  0.6875
 5765SOL    HW219450   3.651   2.850   9.236  0.6529  1.2244  0.7180
 5766SOL     OW19451   9.128   2.791   6.538 -0.0145  0.5168  0.4262
 5766SOL    HW119452   9.068   2.738   6.485  0.2694 -0.2863  0.8936
 5766SOL    HW219453   9.156   2.733   6.609  1.9124  0.6001 -0.1989
 5767SOL     OW19454   5.591   2.436   4.930  0.4051 -0.1419 -0.1062
 5767SOL    HW119455   5.604   2.341   4.931  1.5829  0.0082 -0.2151
 5767SOL    HW219456   5.508   2.449   4.976  1.1034 -1.1066  1.5393
 5768SOL     OW19457   9.017   5.736   6.512 -0.3113 -0.5367  0.0322
 5768SOL    HW119458   8.975   5.677   6.575  0.1360  0.1223  0.9786
 5768SOL    HW219459   9.110   5.713   6.517 -0.1603  0.1029  0.2670
 5769SOL     OW19460   9.049   5.384   4.677 -0.2090 -0.1502  0.1670
 5769SOL    HW119461   8.959   5.366   4.704 -1.3347  2.4002 -1.4915
 5769SOL    HW219462   9.057   5.340   4.593  0.0728 -0.2848  0.2646
 5770SOL     OW19463   8.489   4.488   2.749 -0.2147  1.2317 -0.0478
 5770SOL    HW119464   8.578   4.504   2.719  0.2470  0.1197  0.6742
 5770SOL    HW219465   8.434   4.527   2.681  0.8022  1.0057 -1.0370
 5771SOL     OW19466   9.346   5.722   4.252  0.1464 -0.3822  0.2629
 5771SOL    HW119467   9.382   5.805   4.220 -1.3144  0.6008  1.0415
 5771SOL    HW219468   9.414   5.658   4.234  1.3894  1.0135 -0.2271
 5772SOL     OW19469   1.562   6.688   1.958 -1.1641 -0.0929  0.9844
 5772SOL    HW119470   1.595   6.605   1.924  1.4054  0.5685  1.6740
 5772SOL    HW219471   1.500   6.718   1.891 -0.7633 -1.6821 -0.1470
 5773SOL     OW19472   1.104   3.616   1.510  0.5018 -0.0414  0.0452
 5773SOL    HW119473   1.095   3.595   1.603 -0.6345  2.6322  0.6162
 5773SOL    HW219474   1.183   3.670   1.504  0.2661  0.2615 -0.4483
 5774SOL     OW19475   5.702   3.816   0.278  0.1227 -0.9156 -0.2087
 5774SOL    HW119476   5.684   3.747   0.342  1.6845 -0.6611  0.5467
 5774SOL    HW219477   5.781   3.787   0.233  0.0244 -0.2573 -0.8140
 5775SOL     OW19478   6.652   3.436   3.013 -0.0557  0.4974  0.1792
 5775SOL    HW119479   6.608   3.496   3.072  1.6710  1.3928  0.6279
 5775SOL    HW219480   6.653   3.482   2.929  0.5129  0.7445  0.3150
 5776SOL     OW19481   3.280   4.634   0.712 -0.3806 -0.0422 -0.1670
 5776SOL    HW119482   3.256   4.720   0.746 -0.8244  0.2724 -1.2419
 5776SOL    HW219483   3.196   4.589   0.701 -0.0898 -1.2101  1.8241
 5777SOL     OW19484   1.133   7.439   7.658 -0.2550 -0.1580  0.4155
 5777SOL    HW119485   1.179   7.366   7.618  2.7177  1.0396  1.4107
 5777SOL    HW219486   1.090   7.483   7.584  1.3205 -0.5759 -0.8091
 5778SOL     OW19487   1.604   6.569   2.574 -0.0192 -0.5150  0.3898
 5778SOL    HW119488   1.644   6.596   2.491 -0.2173  0.1217  0.4967
 5778SOL    HW219489   1.512   6.592   2.564 -0.2896 -1.5649  0.3175
 5779SOL     OW19490   5.801   6.959   7.361  0.1902  0.2399 -0.7704
 5779SOL    HW119491   5.777   7.001   7.444  0.9322 -1.8722  0.6063
 5779SOL    HW219492   5.719   6.921   7.329  0.2769 -0.8048  0.1774
 5780SOL     OW19493   9.543   4.288   5.239  0.3478  0.6165  0.0222
 5780SOL    HW119494   9.501   4.252   5.161  1.2569 -1.4185  0.4122
 5780SOL    HW219495   9.616   4.229   5.257  0.1849  1.0237  2.3922
 5781SOL     OW19496   5.696   8.433   5.913 -0.1957 -0.0415 -0.6611
 5781SOL    HW119497   5.764   8.366   5.923 -0.4150 -0.2373 -0.4605
 5781SOL    HW219498   5.642   8.401   5.841  0.5569  0.6635 -1.5692
 5782SOL     OW19499   2.068   4.321   8.979 -0.3605 -0.2719 -0.1036
 5782SOL    HW119500   2.154   4.285   8.961 -0.2022 -0.3346  0.7164
 5782SOL    HW219501   2.021   4.250   9.023 -0.4966  0.0753  0.3184
 5783SOL     OW19502   7.880   0.582   2.712  0.1592  0.1997 -0.3494
 5783SOL    HW119503   7.830   0.597   2.792 -0.7063 -0.7363 -0.6806
 5783SOL    HW219504   7.889   0.668   2.672 -0.0290  0.5698  0.3982
 5784SOL     OW19505   6.746   1.476   5.095 -0.6294 -0.2153 -0.3006
 5784SOL    HW119506   6.670   1.426   5.124  0.3762 -0.9463  1.2283
 5784SOL    HW219507   6.787   1.421   5.028  1.4080 -2.4191  2.5224
 5785SOL     OW19508   6.689   8.831   7.094  0.2976 -0.1778 -0.2521
 5785SOL    HW119509   6.755   8.856   7.029 -1.0396  2.2779 -0.8097
 5785SOL    HW219510   6.625   8.903   7.092 -1.8730 -1.9386  0.9717
 5786SOL     OW19511   8.561   4.390   9.590 -0.5533 -0.3697 -0.3397
 5786SOL    HW119512   8.620   4.407   9.663  0.9673 -0.3703 -1.5126
 5786SOL    HW219513   8.487   4.450   9.603 -0.0973 -0.0701  0.9395
 5787SOL     OW19514   9.186   0.852   1.115 -0.3651  0.5116  0.1465
 5787SOL    HW119515   9.282   0.853   1.121 -0.3431  1.4148 -0.1398
 5787SOL    HW219516   9.158   0.922   1.174 -0.8818 -0.0105  0.5357
 5788SOL     OW19517   6.980   4.980   6.750  0.0685 -0.7061 -0.4449
 5788SOL    HW119518   6.982   4.928   6.831 -1.9684  1.6432  1.2659
 5788SOL    HW219519   6.890   4.971   6.719 -0.7673  2.6305  0.6341
 5789SOL     OW19520   2.186   5.790   9.184  0.3043  0.0245  0.0305
 5789SOL    HW119521   2.237   5.790   9.103  0.6927 -0.0160  0.2691
 5789SOL    HW219522   2.247   5.823   9.251 -0.8130  2.7901 -0.1841
 5790SOL     OW19523   1.117   5.103   8.410 -0.2292 -0.3456  0.4217
 5790SOL    HW119524   1.111   5.038   8.480 -1.2721 -0.8952 -0.1497
 5790SOL    HW219525   1.126   5.051   8.330 -0.6994  0.2230 -0.0048
 5791SOL     OW19526   0.028   5.238   0.196 -0.0906  0.3328  0.2316
 5791SOL    HW119527   0.032   5.172   0.127 -1.5484  1.4220 -0.9496
 5791SOL    HW219528   0.117   5.239   0.232  0.1286 -1.8306 -0.0985
 5792SOL     OW19529   8.555   3.542   2.604  0.3119 -0.0527 -0.2090
 5792SOL    HW119530   8.584   3.544   2.695  0.7130  1.7916 -0.3354
 5792SOL    HW219531   8.590   3.460   2.569  0.1646 -0.7756  1.2803
 5793SOL     OW19532   9.394   6.249   8.222  0.2555  0.5850 -0.4837
 5793SOL    HW119533   9.417   6.211   8.137 -0.5466  0.3017 -0.5778
 5793SOL    HW219534   9.311   6.295   8.206  0.7008  1.5452 -0.1344
 5794SOL     OW19535   2.932   3.057   8.757 -0.4570  0.2647 -0.2064
 5794SOL    HW119536   2.932   3.148   8.729  0.3052  0.2796 -0.1618
 5794SOL    HW219537   2.960   3.060   8.849  0.3678 -0.0843 -0.4462
 5795SOL     OW19538   1.469   1.820   6.559  0.4022  0.4379 -0.0614
 5795SOL    HW119539   1.436   1.762   6.628  0.2794 -0.3006 -0.7313
 5795SOL    HW219540   1.559   1.839   6.585 -0.0017  1.1020  0.8996
 5796SOL     OW19541   8.206   4.090   2.884 -0.4974 -0.8208  0.5086
 5796SOL    HW119542   8.248   4.175   2.890 -1.2623 -0.2550 -1.4457
 5796SOL    HW219543   8.130   4.096   2.942 -1.2831  0.3366 -0.5761
 5797SOL     OW19544   6.329   8.143   0.613 -0.2473 -0.7701  0.2768
 5797SOL    HW119545   6.384   8.066   0.626  0.5016 -0.2129  0.4708
 5797SOL    HW219546   6.296   8.164   0.700 -1.6246 -1.7145  0.0084
 5798SOL     OW19547   6.540   0.054   6.599  0.6351 -0.3070  0.3738
 5798SOL    HW119548   6.606   0.003   6.553  1.6101 -0.0479  1.4332
 5798SOL    HW219549   6.542   0.020   6.689 -0.1869  0.1843  0.5911
 5799SOL     OW19550   4.996   5.632   7.697 -0.0063 -0.1604 -0.7143
 5799SOL    HW119551   4.947   5.710   7.723 -0.1833  0.1700 -1.9721
 5799SOL    HW219552   5.055   5.615   7.770 -1.7606 -0.3770  0.7147
 5800SOL     OW19553   4.058   1.096   9.147 -0.1577 -0.4000 -0.1673
 5800SOL    HW119554   4.034   1.055   9.230  1.3616 -0.5401  0.2423
 5800SOL    HW219555   4.116   1.032   9.105  1.4216  0.8645  0.0088
 5801SOL     OW19556   5.163   3.118   4.981 -0.1063 -0.4725 -0.3242
 5801SOL    HW119557   5.201   3.159   4.903  0.2990  1.7795  0.9578
 5801SOL    HW219558   5.073   3.151   4.984 -0.5365 -1.6088 -0.5413
 5802SOL     OW19559   8.303   7.514   6.275 -0.1913  0.0279 -0.2032
 5802SOL    HW119560   8.300   7.522   6.179 -1.3940  1.9889 -0.0757
 5802SOL    HW219561   8.212   7.527   6.302  0.3863  1.2930  1.2836
 5803SOL     OW19562   3.127   4.500   3.506 -0.0072 -0.3674  0.1739
 5803SOL    HW119563   3.211   4.461   3.482  1.5113  1.4149  2.2527
 5803SOL    HW219564   3.121   4.490   3.601 -0.1188  3.1316  0.6697
 5804SOL     OW19565   3.715   9.095   1.105 -0.2040 -0.3163  0.0261
 5804SOL    HW119566   3.714   9.009   1.148  2.2776 -1.0113 -1.1442
 5804SOL    HW219567   3.656   9.084   1.030  0.7540 -1.3479 -0.6205
 5805SOL     OW19568   8.190   7.298   5.810  0.2802  0.5173 -0.1877
 5805SOL    HW119569   8.267   7.279   5.755  0.4475 -0.0487  0.2304
 5805SOL    HW219570   8.140   7.363   5.760  1.3469  1.3750 -0.1869
 5806SOL     OW19571   7.704   4.574   7.948 -0.0211 -0.7471  0.3038
 5806SOL    HW119572   7.760   4.632   7.896  0.5362  0.2295  1.9217
 5806SOL    HW219573   7.618   4.581   7.908 -0.6115  3.2297  1.8635
 5807SOL     OW19574   7.948   8.460   7.836 -0.0349 -0.3374  0.6050
 5807SOL    HW119575   8.014   8.510   7.789 -0.2629 -1.0394 -0.4906
 5807SOL    HW219576   7.931   8.383   7.781 -1.2177 -0.5530  1.2204
 5808SOL     OW19577   7.095   2.397   1.926 -0.3502  0.1710  0.0176
 5808SOL    HW119578   7.060   2.312   1.897 -1.2353 -0.2795  2.2126
 5808SOL    HW219579   7.035   2.461   1.889 -0.8579 -0.3050 -0.0092
 5809SOL     OW19580   1.074   5.733   2.046 -0.0394 -0.6890  0.5139
 5809SOL    HW119581   1.145   5.751   1.985 -1.2439  0.2791 -0.6721
 5809SOL    HW219582   1.054   5.819   2.085 -3.1456 -0.0166 -2.1555
 5810SOL     OW19583   3.655   5.550   2.723  0.0603 -0.4733 -0.1159
 5810SOL    HW119584   3.641   5.529   2.815 -0.5699  0.0144 -0.0932
 5810SOL    HW219585   3.709   5.628   2.723 -1.2406  0.4635 -0.1135
 5811SOL     OW19586   0.791   2.331   6.862  0.0628  0.2388  0.1772
 5811SOL    HW119587   0.820   2.259   6.807 -1.6314 -1.6855  1.6768
 5811SOL    HW219588   0.871   2.382   6.878  1.9317 -2.7142  1.1218
 5812SOL     OW19589   7.132   1.000   7.643  0.1811 -0.1521 -0.2260
 5812SOL    HW119590   7.198   0.999   7.713 -0.5513  0.5395  0.4884
 5812SOL    HW219591   7.085   0.917   7.652 -0.0246  0.0138  0.2060
 5813SOL     OW19592   5.027   8.638   6.009  0.1649  0.0702 -0.0983
 5813SOL    HW119593   4.937   8.649   6.040 -0.4639 -0.8719 -1.4845
 5813SOL    HW219594   5.059   8.561   6.056  0.0635  0.0919  0.0063
 5814SOL     OW19595   8.336   8.903   4.656 -0.3155 -0.2688 -0.3417
 5814SOL    HW119596   8.383   8.821   4.638 -0.8926 -0.7973  0.5250
 5814SOL    HW219597   8.252   8.892   4.612 -0.3526 -0.0957 -0.3121
 5815SOL     OW19598   3.134   4.305   0.232 -0.6226 -0.2891 -0.2498
 5815SOL    HW119599   3.156   4.345   0.147  0.9307  0.2505  0.3693
 5815SOL    HW219600   3.210   4.323   0.287 -3.2234  3.2048  2.6864
 5816SOL     OW19601   1.166   0.371   8.923 -0.1484 -0.2930 -0.0857
 5816SOL    HW119602   1.103   0.439   8.944 -0.2551 -0.3133 -0.3283
 5816SOL    HW219603   1.115   0.303   8.880  0.2467  0.2945 -1.5518
 5817SOL     OW19604   3.170   1.730   9.410  0.3413  1.2136  0.6993
 5817SOL    HW119605   3.188   1.818   9.378 -0.7926  1.1404 -0.1930
 5817SOL    HW219606   3.075   1.725   9.417  0.0789 -0.8960 -2.3494
 5818SOL     OW19607   7.525   4.366   2.060 -0.2019 -0.5664  1.1338
 5818SOL    HW119608   7.502   4.341   1.970 -0.9461  0.6128  0.9648
 5818SOL    HW219609   7.442   4.363   2.107  0.0013 -0.1722  1.5222
 5819SOL     OW19610   1.021   5.477   8.666  0.0738  0.5139 -0.4508
 5819SOL    HW119611   1.024   5.424   8.585  1.3792 -0.4954  0.2223
 5819SOL    HW219612   1.056   5.419   8.733 -1.8527  1.0063  1.0706
 5820SOL     OW19613   4.613   9.295   7.147 -0.0616  0.2152 -0.1837
 5820SOL    HW119614   4.706   9.286   7.166  0.0655 -3.0065 -1.6797
 5820SOL    HW219615   4.609   9.365   7.081  1.1630  1.0226  0.5612
 5821SOL     OW19616   8.977   8.478   1.323  0.3117  0.1888  0.2415
 5821SOL    HW119617   8.943   8.463   1.411  1.3928 -2.0216  0.3665
 5821SOL    HW219618   8.905   8.519   1.275 -0.5470  0.7442  1.9462
 5822SOL     OW19619   1.615   1.078   4.924 -0.2168 -0.2900  0.4078
 5822SOL    HW119620   1.651   1.145   4.983  1.4939 -1.2292  0.4954
 5822SOL    HW219621   1.681   1.009   4.923 -2.0041 -2.0874  0.4638
 5823SOL     OW19622   1.052   8.158   1.590  0.1856 -0.4149  0.5199
 5823SOL    HW119623   1.129   8.214   1.595 -0.8942  1.4537 -1.7065
 5823SOL    HW219624   1.081   8.080   1.544  1.0222 -0.3617  0.9391
 5824SOL     OW19625   1.007   7.167   6.036  0.2801 -0.0905 -0.1519
 5824SOL    HW119626   1.073   7.103   6.061 -0.4780 -1.4743 -1.5517
 5824SOL    HW219627   1.056   7.237   5.994  1.1306  0.3456  1.5038
 5825SOL     OW19628   8.660   0.977   0.723  0.0548 -0.4791 -0.3619
 5825SOL    HW119629   8.715   1.043   0.681  0.1188  0.2500  0.8180
 5825SOL    HW219630   8.571   0.998   0.695  0.2111 -0.6883 -1.0170
 5826SOL     OW19631   7.823   2.994   2.594 -0.5773 -0.3775 -0.7535
 5826SOL    HW119632   7.816   2.985   2.499 -0.5250 -1.3455 -0.6742
 5826SOL    HW219633   7.890   2.930   2.620  0.0058  0.4534 -0.1544
 5827SOL     OW19634   8.612   2.330   2.972 -0.1695  0.3679 -0.4251
 5827SOL    HW119635   8.561   2.262   3.016 -0.3127 -0.1716 -1.4039
 5827SOL    HW219636   8.701   2.321   3.008 -0.5207  0.6655  0.5507
 5828SOL     OW19637   7.322   0.770   2.907  0.6103 -0.0317 -1.0906
 5828SOL    HW119638   7.283   0.770   2.820 -3.6561 -1.1196  0.5885
 5828SOL    HW219639   7.278   0.841   2.953  1.1279 -0.8806  0.7987
 5829SOL     OW19640   3.477   5.356   8.567 -0.3786  0.3364 -0.4046
 5829SOL    HW119641   3.521   5.389   8.488  0.8802  0.0165  0.1345
 5829SOL    HW219642   3.547   5.315   8.618 -1.2789  0.0019  0.6028
 5830SOL     OW19643   7.759   7.940   2.414  0.2827  0.1831  0.0098
 5830SOL    HW119644   7.785   7.980   2.331  0.6966 -0.6709 -0.2891
 5830SOL    HW219645   7.698   7.870   2.388 -0.6681  0.7899  0.5390
 5831SOL     OW19646   6.266   0.541   6.899  0.4124  0.3056  0.8975
 5831SOL    HW119647   6.188   0.574   6.944  0.4715  0.7527  0.6751
 5831SOL    HW219648   6.244   0.546   6.806 -0.1854 -1.7932  0.8871
 5832SOL     OW19649   3.516   4.611   8.380 -0.7297 -0.2721  0.1991
 5832SOL    HW119650   3.511   4.549   8.308 -3.1635  0.2313 -0.1414
 5832SOL    HW219651   3.432   4.602   8.426 -0.7666  2.0665  0.7178
 5833SOL     OW19652   0.021   1.865   1.710 -0.5365  0.3948  0.3755
 5833SOL    HW119653   0.117   1.863   1.715 -0.2501 -3.2000 -2.1869
 5833SOL    HW219654   0.003   1.859   1.616 -3.2108 -1.7061  0.9225
 5834SOL     OW19655   0.249   7.642   2.680  0.6497  0.4760  0.5794
 5834SOL    HW119656   0.212   7.554   2.682 -0.1397  0.7103 -1.3368
 5834SOL    HW219657   0.213   7.685   2.757 -0.2910 -0.3792  0.6338
 5835SOL     OW19658   1.876   6.599   1.764  0.4762  0.3443  0.5466
 5835SOL    HW119659   1.971   6.601   1.755  0.7008  0.9801  2.4971
 5835SOL    HW219660   1.849   6.690   1.753 -0.1967 -0.0864 -1.9879
 5836SOL     OW19661   2.948   0.737   2.365  0.7106 -0.1902 -0.1954
 5836SOL    HW119662   2.910   0.664   2.316  0.4750  0.1039 -0.4594
 5836SOL    HW219663   2.873   0.794   2.384  0.9892  0.3069 -0.5594
 5837SOL     OW19664   6.678   0.058   5.005  0.3905 -0.3859 -0.6052
 5837SOL    HW119665   6.722   0.093   5.082 -1.1470 -0.4417  0.3363
 5837SOL    HW219666   6.678  -0.037   5.017 -0.4981 -0.3561 -0.2815
 5838SOL     OW19667   0.319   2.669   8.093 -0.5489 -0.4052 -0.5074
 5838SOL    HW119668   0.264   2.696   8.167  2.6417  2.0634  1.2412
 5838SOL    HW219669   0.301   2.734   8.025 -0.9189 -0.5320 -0.5318
 5839SOL     OW19670   6.009   2.293   1.272 -0.4526 -0.0824  0.1751
 5839SOL    HW119671   5.955   2.233   1.322  0.2967 -1.3271 -0.4557
 5839SOL    HW219672   6.078   2.238   1.234  1.0380  1.3697  0.6354
 5840SOL     OW19673   3.118   0.172   0.922 -0.1253 -0.1264  0.5970
 5840SOL    HW119674   3.165   0.254   0.939  1.0220  0.1702 -3.1916
 5840SOL    HW219675   3.041   0.199   0.872  0.1445 -1.3251 -0.5009
 5841SOL     OW19676   8.507   0.416   1.048 -0.4386  0.0718  0.3271
 5841SOL    HW119677   8.527   0.489   1.105 -0.2800 -1.1949  1.9636
 5841SOL    HW219678   8.414   0.399   1.061 -1.0719  1.4192 -1.8536
 5842SOL     OW19679   1.477   8.226   9.426  0.9262 -0.6795 -0.2345
 5842SOL    HW119680   1.453   8.228   9.519  0.1909  0.1968 -0.4229
 5842SOL    HW219681   1.515   8.312   9.410 -1.8568  0.4533 -1.4349
 5843SOL     OW19682   0.453   2.586   4.249  0.2404  0.1963  0.4485
 5843SOL    HW119683   0.384   2.614   4.308  0.0484  1.6638 -0.4114
 5843SOL    HW219684   0.524   2.649   4.263  0.8001 -0.3583  0.2017
 5844SOL     OW19685   2.535   7.131   7.251 -0.5057  0.5703 -0.2419
 5844SOL    HW119686   2.441   7.135   7.230 -0.7959 -0.7454  0.6743
 5844SOL    HW219687   2.538   7.136   7.346  0.4953  2.2178 -0.3358
 5845SOL     OW19688   6.483   8.454   3.520  0.0931 -0.8115  0.1877
 5845SOL    HW119689   6.443   8.371   3.493 -2.1860 -0.8352  3.0871
 5845SOL    HW219690   6.548   8.429   3.585  1.8323 -0.4618 -1.3537
 5846SOL     OW19691   1.985   1.339   8.175 -0.2469  0.0110 -0.0337
 5846SOL    HW119692   2.046   1.285   8.226  0.0591  0.4720  0.0968
 5846SOL    HW219693   2.024   1.427   8.177 -0.1098 -0.0087 -1.2598
 5847SOL     OW19694   3.021   7.528   2.583 -0.6246 -0.5593 -0.2737
 5847SOL    HW119695   3.031   7.449   2.530  1.9563 -0.0218 -0.7196
 5847SOL    HW219696   2.960   7.583   2.534 -1.9714 -1.9969 -0.2587
 5848SOL     OW19697   7.960   9.255   2.492 -0.2848  0.0026 -0.7387
 5848SOL    HW119698   7.901   9.239   2.566  0.2115  0.4749 -0.2330
 5848SOL    HW219699   8.042   9.282   2.532  0.1296 -0.1716 -1.4555
 5849SOL     OW19700   5.461   8.130   5.936  0.2906  0.0823 -0.1707
 5849SOL    HW119701   5.540   8.134   5.990 -0.5889  0.1801  1.1428
 5849SOL    HW219702   5.393   8.097   5.995 -1.3967  2.9011 -0.3544
 5850SOL     OW19703   0.577   9.183   9.545  0.1078  0.0238 -0.1497
 5850SOL    HW119704   0.580   9.150   9.635 -0.0626  0.8294  0.1549
 5850SOL    HW219705   0.485   9.175   9.520  0.1472 -0.1568 -0.2405
 5851SOL     OW19706   6.580   1.879   1.482 -0.0986 -0.0901  0.2552
 5851SOL    HW119707   6.550   1.950   1.538 -0.9941 -0.2886  0.0419
 5851SOL    HW219708   6.505   1.820   1.476  0.4081 -0.7085 -0.1245
 5852SOL     OW19709   1.083   7.228   1.422 -0.0561 -0.3176  0.5172
 5852SOL    HW119710   1.059   7.318   1.444  1.0831  0.0263  0.4325
 5852SOL    HW219711   1.179   7.226   1.430  0.0428 -1.2173 -0.6183
 5853SOL     OW19712   3.320   5.159   3.426 -0.0319 -0.0457 -0.9365
 5853SOL    HW119713   3.356   5.247   3.439 -1.9104  0.4677  1.6824
 5853SOL    HW219714   3.240   5.172   3.376 -1.3833  0.0807  1.1519
 5854SOL     OW19715   3.570   1.041   8.973  0.3476 -0.4523  0.0122
 5854SOL    HW119716   3.632   0.987   8.924  0.8396 -0.5068  0.6817
 5854SOL    HW219717   3.491   1.042   8.919  0.5942 -1.2080 -0.3717
 5855SOL     OW19718   4.018   4.233   3.256 -0.0787 -0.2141  0.0178
 5855SOL    HW119719   4.058   4.238   3.169 -1.4445  2.0702 -0.5661
 5855SOL    HW219720   4.002   4.140   3.270 -1.1047 -0.5732 -2.8003
 5856SOL     OW19721   6.941   6.977   7.614  0.3838  0.0907  0.3612
 5856SOL    HW119722   6.891   7.036   7.670 -0.4541  1.0736 -1.3530
 5856SOL    HW219723   6.876   6.917   7.577  0.9256 -0.5694  0.4486
 5857SOL     OW19724   7.413   5.393   3.049  0.1182 -0.4309  0.1094
 5857SOL    HW119725   7.453   5.369   3.132  2.8212 -1.6496 -1.4278
 5857SOL    HW219726   7.398   5.310   3.004  0.3711  0.2624 -1.3262
 5858SOL     OW19727   7.723   7.797   7.322  0.1944 -0.0147 -0.4916
 5858SOL    HW119728   7.651   7.814   7.261 -0.3106  0.0396  0.1151
 5858SOL    HW219729   7.781   7.873   7.313 -0.9493  1.0381  0.6271
 5859SOL     OW19730   3.797   2.173   0.858 -0.6234  0.1568 -0.1279
 5859SOL    HW119731   3.723   2.151   0.915  0.3577 -0.0877  1.0905
 5859SOL    HW219732   3.797   2.104   0.792 -1.5797  0.2489 -0.2435
 5860SOL     OW19733   0.923   8.491   9.196 -0.3416  0.3660 -0.3139
 5860SOL    HW119734   0.899   8.582   9.211 -0.3506 -0.0094  2.4786
 5860SOL    HW219735   0.869   8.441   9.256  1.4426 -1.2465  0.0741
 5861SOL     OW19736   8.325   1.365   2.572  0.4423  0.4786 -0.1075
 5861SOL    HW119737   8.269   1.392   2.499  0.8325 -1.3098 -1.1423
 5861SOL    HW219738   8.409   1.405   2.554  0.1445  1.2294  0.1570
 5862SOL     OW19739   6.095   1.297   7.521 -0.2253  0.2517  0.2754
 5862SOL    HW119740   6.023   1.359   7.510 -0.0654  0.7341  1.7571
 5862SOL    HW219741   6.114   1.298   7.614 -0.3132 -2.1634  0.3939
 5863SOL     OW19742   1.488   4.392   8.429 -0.6290 -0.4427  0.0904
 5863SOL    HW119743   1.447   4.423   8.348 -1.3084  0.8974  0.9233
 5863SOL    HW219744   1.546   4.463   8.456 -1.7622 -0.0686  1.7089
 5864SOL     OW19745   5.598   4.556   8.761 -0.8347  1.0051  0.6328
 5864SOL    HW119746   5.512   4.594   8.747 -0.8279  0.1766 -2.2321
 5864SOL    HW219747   5.655   4.602   8.699  0.4310  0.3466  1.2666
 5865SOL     OW19748   3.799   8.426   1.605 -0.3028  0.0904  0.7929
 5865SOL    HW119749   3.712   8.428   1.564 -0.3815 -0.9360  0.8872
 5865SOL    HW219750   3.850   8.366   1.550  0.9703  2.1187 -0.4008
 5866SOL     OW19751   2.045   7.812   3.639 -0.4527  0.5514  0.2621
 5866SOL    HW119752   2.119   7.864   3.669 -1.0827  0.4878  2.0249
 5866SOL    HW219753   2.063   7.724   3.671 -0.3286  0.0621 -1.0665
 5867SOL     OW19754   1.897   6.911   0.513 -0.1004 -0.2269  0.2237
 5867SOL    HW119755   1.883   6.947   0.601  1.8197 -1.6077  1.1679
 5867SOL    HW219756   1.812   6.874   0.489 -0.5398 -0.2900  1.7375
 5868SOL     OW19757   8.310   0.998   6.240  0.9567 -0.2883 -0.2538
 5868SOL    HW119758   8.233   0.996   6.183 -0.2887 -0.9095  1.3493
 5868SOL    HW219759   8.317   1.089   6.268  0.3624 -0.3422  0.1057
 5869SOL     OW19760   5.383   1.487   8.435 -0.2530  0.4281 -0.0927
 5869SOL    HW119761   5.346   1.575   8.439 -0.3876  0.3732 -0.1322
 5869SOL    HW219762   5.477   1.500   8.450 -0.2940  0.5616  0.0516
 5870SOL     OW19763   5.936   1.468   3.563 -0.1796  0.3077  0.0239
 5870SOL    HW119764   5.869   1.401   3.551  0.4790 -0.5899  1.0262
 5870SOL    HW219765   5.916   1.507   3.648  1.6050 -1.3276  1.2967
 5871SOL     OW19766   1.902   0.419   1.934 -0.2261 -0.1658 -0.2724
 5871SOL    HW119767   1.959   0.492   1.909  1.8884 -0.4393  3.1694
 5871SOL    HW219768   1.842   0.456   1.999  0.4895 -1.2911  1.0795
 5872SOL     OW19769   2.927   4.697   7.393 -0.5279  0.2488  0.2822
 5872SOL    HW119770   2.952   4.719   7.483 -1.8463 -0.7539  0.9288
 5872SOL    HW219771   2.873   4.772   7.365 -1.3434 -0.0960  0.8810
 5873SOL     OW19772   7.002   4.904   3.900 -0.6887 -0.4815 -0.5426
 5873SOL    HW119773   7.033   4.815   3.914  1.3130  0.2357 -0.0436
 5873SOL    HW219774   7.059   4.939   3.832  0.2638  1.1692  0.9927
 5874SOL     OW19775   2.043   2.568   4.039  0.1325  0.0264 -0.4554
 5874SOL    HW119776   2.087   2.607   4.114  1.1438 -1.9058  0.0389
 5874SOL    HW219777   2.002   2.489   4.074  0.2590 -0.6804 -1.8466
 5875SOL     OW19778   7.962   9.056   2.035  0.0799 -0.0822 -0.5738
 5875SOL    HW119779   7.927   8.979   2.080 -2.0205  1.3081  0.3528
 5875SOL    HW219780   7.948   9.038   1.942 -0.3147 -0.8711 -0.3669
 5876SOL     OW19781   4.649   4.074   3.125 -0.1497 -0.3643  0.7098
 5876SOL    HW119782   4.606   4.116   3.051 -0.2990  1.9708  2.0140
 5876SOL    HW219783   4.666   3.984   3.096  0.2113  0.5724 -2.2811
 5877SOL     OW19784   3.932   2.394   0.927  0.0181  0.4043  0.2255
 5877SOL    HW119785   3.981   2.398   0.845 -0.0077  0.1117  0.1962
 5877SOL    HW219786   3.874   2.319   0.918  0.4648 -0.0148  0.7612
 5878SOL     OW19787   9.057   3.892   2.294 -0.4340 -0.0865  0.3009
 5878SOL    HW119788   9.118   3.962   2.272  0.7173 -1.0436  0.3617
 5878SOL    HW219789   8.989   3.897   2.227 -0.7822  1.5503  0.7326
 5879SOL     OW19790   7.985   8.070   8.802  0.2162 -0.5141 -0.6747
 5879SOL    HW119791   8.014   8.026   8.722  0.1862 -2.3753  0.3053
 5879SOL    HW219792   8.054   8.052   8.866 -0.4348 -0.2439  0.1198
 5880SOL     OW19793   9.511   1.008   8.678 -0.1105  0.1982 -0.2911
 5880SOL    HW119794   9.535   1.036   8.766  3.2128 -1.0708 -0.6335
 5880SOL    HW219795   9.461   0.927   8.691  0.7004 -0.1967  0.4539
 5881SOL     OW19796   3.401   0.090   8.176 -0.1346 -0.2756 -0.6290
 5881SOL    HW119797   3.398   0.184   8.191  0.2824 -0.0936 -1.6144
 5881SOL    HW219798   3.493   0.067   8.182 -0.1151 -0.4361 -1.4022
 5882SOL     OW19799   9.402   1.711   3.180 -0.1770 -0.3584 -0.2230
 5882SOL    HW119800   9.447   1.721   3.096  0.1297 -0.2950 -0.0509
 5882SOL    HW219801   9.328   1.772   3.176 -0.2878 -0.5101 -0.5301
 5883SOL     OW19802   1.862   5.526   9.570 -0.2533  0.0294  0.6424
 5883SOL    HW119803   1.954   5.550   9.557 -0.4802  0.6429  0.0905
 5883SOL    HW219804   1.825   5.600   9.617 -0.5295 -0.0802  0.5994
 5884SOL     OW19805   8.233   1.294   3.479 -0.4724  0.0973 -0.4283
 5884SOL    HW119806   8.183   1.213   3.468  0.1195 -0.1261 -1.6714
 5884SOL    HW219807   8.181   1.361   3.436 -0.5572  0.2217 -0.1367
 5885SOL     OW19808   5.465   5.989   8.474 -0.2496 -0.3324  0.1011
 5885SOL    HW119809   5.534   5.998   8.539 -0.4712  0.2219  0.2727
 5885SOL    HW219810   5.481   6.061   8.412 -1.5915  0.8448  1.0315
 5886SOL     OW19811   0.350   3.363   9.050 -0.2480 -0.7835 -0.1253
 5886SOL    HW119812   0.392   3.370   8.964  0.1696  0.6456  0.1638
 5886SOL    HW219813   0.258   3.349   9.032  0.1147 -2.4777 -0.7864
 5887SOL     OW19814   5.903   8.143   1.477  0.2670  0.1088  0.6870
 5887SOL    HW119815   5.989   8.181   1.459  0.0120  0.3306 -0.0655
 5887SOL    HW219816   5.901   8.135   1.573  0.3681  1.9094  0.8801
 5888SOL     OW19817   3.126   1.157   1.223  0.5626  0.2539  0.1719
 5888SOL    HW119818   3.134   1.110   1.140 -0.0270  1.0866 -0.3648
 5888SOL    HW219819   3.197   1.122   1.277  2.5236  1.3936 -1.5186
 5889SOL     OW19820   5.244   0.933   2.830  0.0487  0.3689 -0.0554
 5889SOL    HW119821   5.338   0.918   2.818  0.5788  2.7506  0.6299
 5889SOL    HW219822   5.239   0.999   2.899 -2.2138 -0.5263  0.7363
 5890SOL     OW19823   1.204   8.591   7.907  0.1427  0.4432 -0.8202
 5890SOL    HW119824   1.136   8.557   7.966 -0.1314  1.0847 -0.7630
 5890SOL    HW219825   1.233   8.514   7.858 -1.8190  0.4104 -2.0630
 5891SOL     OW19826   6.796   0.602   0.660  0.0913  0.1626  0.4230
 5891SOL    HW119827   6.850   0.595   0.739 -0.5723  1.0882  0.9798
 5891SOL    HW219828   6.742   0.680   0.674 -1.3234 -0.6678 -0.1406
 5892SOL     OW19829   2.500   8.828   0.097  0.4022 -0.5304  0.8754
 5892SOL    HW119830   2.413   8.829   0.138 -0.5963 -3.2551 -0.9107
 5892SOL    HW219831   2.526   8.736   0.098  2.0447 -0.1446 -1.0604
 5893SOL     OW19832   3.694   2.572   0.742  0.0363 -0.1680 -0.1162
 5893SOL    HW119833   3.785   2.553   0.762  0.1826 -0.3157 -0.8905
 5893SOL    HW219834   3.665   2.500   0.687 -1.3464 -1.5122  2.2148
 5894SOL     OW19835   1.227   5.724   8.765  0.2973  0.7402 -0.1357
 5894SOL    HW119836   1.283   5.658   8.725  0.9730  1.4958 -0.4716
 5894SOL    HW219837   1.160   5.742   8.699 -0.8404 -0.7265  0.5659
 5895SOL     OW19838   9.167   7.000   0.669  0.3371 -0.0946 -0.3183
 5895SOL    HW119839   9.135   7.081   0.631 -2.0262 -1.4623 -1.4907
 5895SOL    HW219840   9.125   6.996   0.756  2.0147  0.8114  0.5753
 5896SOL     OW19841   0.323   1.104   6.092 -0.2707  0.6930 -0.1253
 5896SOL    HW119842   0.270   1.045   6.146  0.5034  1.6758  1.8266
 5896SOL    HW219843   0.259   1.155   6.042 -1.0061 -0.4616 -0.4014
 5897SOL     OW19844   7.547   7.728   5.879  0.2639  0.3132 -0.6390
 5897SOL    HW119845   7.503   7.655   5.837 -0.2426  0.4014 -0.2655
 5897SOL    HW219846   7.529   7.803   5.822  0.2424  0.2739 -0.6835
 5898SOL     OW19847   8.754   2.898   5.459  0.2261  0.2666  0.0569
 5898SOL    HW119848   8.824   2.873   5.398  1.4928  0.0390  1.5286
 5898SOL    HW219849   8.730   2.816   5.503 -1.5385  0.1990 -0.9507
 5899SOL     OW19850   2.992   6.260   7.267 -0.1324 -0.4768 -0.7783
 5899SOL    HW119851   3.006   6.211   7.349 -1.0083 -0.9701 -0.9090
 5899SOL    HW219852   2.900   6.244   7.245 -0.9837  2.6002  0.0586
 5900SOL     OW19853   3.506   1.982   1.242  0.8167  0.0773  0.2796
 5900SOL    HW119854   3.485   1.890   1.262 -0.2842 -0.0091 -1.0966
 5900SOL    HW219855   3.595   1.994   1.274  1.3723 -1.7791 -0.4251
 5901SOL     OW19856   7.914   5.335   7.234 -0.3257  0.2542 -0.4535
 5901SOL    HW119857   7.871   5.409   7.193  0.7267  0.4202 -1.3050
 5901SOL    HW219858   7.955   5.287   7.162 -0.7547 -1.0097  0.1082
 5902SOL     OW19859   1.958   6.041   6.872 -0.7690  0.5009  0.0028
 5902SOL    HW119860   2.032   5.989   6.841 -0.8741 -0.2572  0.9759
 5902SOL    HW219861   1.955   6.116   6.813  1.1527  0.8692  0.2949
 5903SOL     OW19862   3.280   4.366   0.492 -0.4804  0.0017  0.2167
 5903SOL    HW119863   3.342   4.320   0.548 -0.6682 -0.8689 -0.2686
 5903SOL    HW219864   3.196   4.355   0.536 -0.8100 -1.5841 -0.7100
 5904SOL     OW19865   4.190   4.031   0.164 -0.2203  0.1994 -0.3280
 5904SOL    HW119866   4.148   3.965   0.219 -1.7080  0.5555 -0.9744
 5904SOL    HW219867   4.250   3.981   0.108 -1.1047 -0.5965 -0.6025
 5905SOL     OW19868   3.153   3.077   1.838  0.3325 -0.1986 -0.1623
 5905SOL    HW119869   3.074   3.118   1.873  1.4517  0.1960  2.0979
 5905SOL    HW219870   3.148   2.986   1.868  1.2097  0.0934  0.9415
 5906SOL     OW19871   3.486   8.535   6.546  0.4707  0.0628  0.3694
 5906SOL    HW119872   3.484   8.603   6.479  0.6884 -1.0701 -0.8309
 5906SOL    HW219873   3.433   8.464   6.510  0.4446 -0.5014  1.4795
 5907SOL     OW19874   2.184   0.004   4.742 -0.2991  0.2514 -0.2211
 5907SOL    HW119875   2.253  -0.049   4.781 -1.9848 -0.5128  1.9482
 5907SOL    HW219876   2.107  -0.054   4.740 -1.3380  1.5892 -0.8823
 5908SOL     OW19877   0.532   3.530   9.514  0.3857 -0.0676 -0.3374
 5908SOL    HW119878   0.571   3.569   9.436 -0.0188 -0.4075 -0.7120
 5908SOL    HW219879   0.453   3.581   9.529  0.3752 -0.1118 -0.2444
 5909SOL     OW19880   7.787   2.711   1.457  0.5546  0.2087 -0.3844
 5909SOL    HW119881   7.748   2.759   1.383 -0.4655  1.7057  1.0655
 5909SOL    HW219882   7.880   2.730   1.452  0.2998  1.4864 -0.4636
 5910SOL     OW19883   1.913   6.862   4.363  0.0428 -0.0658  0.8796
 5910SOL    HW119884   1.993   6.833   4.407 -1.6424  0.2333  4.4988
 5910SOL    HW219885   1.929   6.955   4.344  0.8902 -0.2493  0.6342
 5911SOL     OW19886   5.214   4.108   4.609  0.0228  0.0738  0.1488
 5911SOL    HW119887   5.277   4.100   4.537  0.5001  0.4787  0.5143
 5911SOL    HW219888   5.268   4.106   4.688 -0.2495  2.0814  0.4215
 5912SOL     OW19889   2.734   6.906   9.547  0.5288 -0.2474 -0.3014
 5912SOL    HW119890   2.793   6.898   9.622  0.6112  0.6242 -0.2715
 5912SOL    HW219891   2.713   6.999   9.542  1.1522 -0.1621 -1.8335
 5913SOL     OW19892   5.377   1.675   2.588 -0.4187  0.1471  0.1497
 5913SOL    HW119893   5.386   1.770   2.581 -0.8656  0.2113  0.4811
 5913SOL    HW219894   5.285   1.660   2.606 -0.0856 -0.2645  1.6650
 5914SOL     OW19895   1.399   3.716   1.913  0.0976 -0.0286  0.2473
 5914SOL    HW119896   1.465   3.783   1.893  0.1026 -0.6117 -1.9600
 5914SOL    HW219897   1.444   3.655   1.972  0.7178  0.8467  0.7116
 5915SOL     OW19898   2.218   5.726   0.834 -0.0843  0.2547  0.1767
 5915SOL    HW119899   2.178   5.806   0.800  0.4219 -0.2999 -1.8409
 5915SOL    HW219900   2.297   5.756   0.879 -0.2112  0.9307 -0.0488
 5916SOL     OW19901   5.974   9.190   9.078 -0.2628 -0.0876  0.5608
 5916SOL    HW119902   6.011   9.193   8.990  0.4485  1.1808  0.8745
 5916SOL    HW219903   5.885   9.224   9.068 -0.4143 -0.5810  0.2278
 5917SOL     OW19904   5.167   5.350   4.965  0.1338 -0.2472  0.1157
 5917SOL    HW119905   5.193   5.271   4.919 -0.8489  0.2663 -1.3962
 5917SOL    HW219906   5.072   5.344   4.972  0.2406 -0.2969  2.1337
 5918SOL     OW19907   4.112   8.939   0.153  0.1258  0.0819 -0.4829
 5918SOL    HW119908   4.041   8.992   0.190 -0.0499 -0.9848  0.7993
 5918SOL    HW219909   4.091   8.933   0.060 -2.0524 -0.9731 -0.0028
 5919SOL     OW19910   3.823   6.868   8.422  0.4396  0.3266  0.3508
 5919SOL    HW119911   3.744   6.845   8.373  0.4010  1.2939 -0.0708
 5919SOL    HW219912   3.895   6.836   8.368  0.3334 -1.1301  1.0456
 5920SOL     OW19913   0.282   3.327   6.420  0.0625  0.0773 -0.2506
 5920SOL    HW119914   0.322   3.331   6.333 -0.0036 -0.6120 -0.3160
 5920SOL    HW219915   0.265   3.419   6.443  1.9303  0.4132 -0.1004
 5921SOL     OW19916   0.191   6.687   4.425 -0.4118  0.0587  0.3716
 5921SOL    HW119917   0.181   6.780   4.404 -0.9031 -0.6818 -3.2942
 5921SOL    HW219918   0.280   6.665   4.399 -1.1462 -1.0160 -1.3768
 5922SOL     OW19919   3.058   5.007   0.185  0.1412 -0.1949 -0.0589
 5922SOL    HW119920   3.055   4.914   0.206 -1.1748 -0.7532 -2.3584
 5922SOL    HW219921   3.141   5.037   0.221  1.4385 -2.6774 -0.7604
 5923SOL     OW19922   4.383   6.130   9.241  0.1711 -0.5859  0.5295
 5923SOL    HW119923   4.441   6.062   9.276  0.5535 -1.3439 -1.4378
 5923SOL    HW219924   4.411   6.210   9.286 -0.0006 -1.6108  2.5852
 5924SOL     OW19925   6.876   0.704   0.145  0.1733  0.1379  0.0481
 5924SOL    HW119926   6.898   0.792   0.178  0.3645 -0.7155  2.3830
 5924SOL    HW219927   6.840   0.659   0.221  0.4204 -1.9304 -1.0136
 5925SOL     OW19928   7.841   8.759   3.040  0.5977 -0.1706 -0.7824
 5925SOL    HW119929   7.833   8.698   2.967  2.2052 -0.3302 -0.8635
 5925SOL    HW219930   7.826   8.706   3.118  1.9365 -0.7080 -0.8558
 5926SOL     OW19931   8.089   7.084   4.495 -0.1262 -0.2835 -0.2874
 5926SOL    HW119932   8.008   7.035   4.511 -0.5072  0.5049  0.2687
 5926SOL    HW219933   8.119   7.112   4.581  1.2728 -1.3584 -0.3998
 5927SOL     OW19934   3.144   8.523   2.709  0.2442 -0.0611  0.2865
 5927SOL    HW119935   3.119   8.453   2.769 -0.6820 -0.2369 -0.2716
 5927SOL    HW219936   3.093   8.505   2.629  1.7064 -0.0528 -0.6815
 5928SOL     OW19937   7.901   4.131   7.800  0.2145 -0.3084  0.2964
 5928SOL    HW119938   7.928   4.039   7.795 -0.3928 -0.4845  0.1489
 5928SOL    HW219939   7.969   4.173   7.853  0.8733 -0.6955 -0.2291
 5929SOL     OW19940   7.948   5.291   0.633  0.0300  0.8550  0.3725
 5929SOL    HW119941   7.889   5.363   0.609 -1.1439  0.7669  2.6838
 5929SOL    HW219942   7.895   5.235   0.691  1.9032 -0.1041  1.2407
 5930SOL     OW19943   3.483   6.068   0.913  0.0731 -0.0764  0.0350
 5930SOL    HW119944   3.475   6.066   0.818 -1.6721 -0.6448  0.1627
 5930SOL    HW219945   3.393   6.073   0.945  0.6412  0.3672  1.6557
 5931SOL     OW19946   8.045   1.375   1.990 -0.2054  0.0809  0.4770
 5931SOL    HW119947   7.962   1.332   2.008 -0.4493  0.5230  0.4076
 5931SOL    HW219948   8.063   1.429   2.067  0.2366 -0.3424  0.6818
 5932SOL     OW19949   2.703   0.587   6.663  0.2846 -0.5399 -0.2931
 5932SOL    HW119950   2.795   0.581   6.636  0.3818  0.7277 -0.2856
 5932SOL    HW219951   2.666   0.502   6.639  1.5859 -1.2859  0.2375
 5933SOL     OW19952   2.374   8.140   1.224 -0.1986  0.0188  0.2166
 5933SOL    HW119953   2.312   8.129   1.295  0.5297 -1.9759  0.6289
 5933SOL    HW219954   2.437   8.205   1.256 -2.0831  2.2120 -0.2867
 5934SOL     OW19955   9.480   9.281   5.247  0.4926  0.0281 -0.1233
 5934SOL    HW119956   9.464   9.273   5.341  1.4433  1.1029  0.1552
 5934SOL    HW219957   9.398   9.253   5.207 -1.2720  2.8857  1.1546
 5935SOL     OW19958   0.415   1.293   2.751  0.1712  0.4047 -0.7680
 5935SOL    HW119959   0.386   1.244   2.827 -0.6421  0.4868 -1.0228
 5935SOL    HW219960   0.446   1.227   2.690 -0.3480  0.2491 -0.8646
 5936SOL     OW19961   0.619   0.739   9.168  0.2119  0.2562  0.2219
 5936SOL    HW119962   0.676   0.674   9.125  0.2962  0.5003 -0.0414
 5936SOL    HW219963   0.679   0.808   9.196  0.3512 -0.5181  1.9610
 5937SOL     OW19964   0.310   5.316   4.389 -0.0690  0.1499 -0.7300
 5937SOL    HW119965   0.354   5.237   4.422  1.4658  1.6855  1.1999
 5937SOL    HW219966   0.379   5.383   4.389 -1.6646  1.8576 -0.8628
 5938SOL     OW19967   8.859   8.994   3.263 -0.2573 -0.0883 -0.4214
 5938SOL    HW119968   8.831   8.918   3.212  1.8670 -2.5674  1.8150
 5938SOL    HW219969   8.801   8.995   3.339 -0.3500  0.6122 -0.4980
 5939SOL     OW19970   8.154   0.779   1.878  0.1046  0.4807  0.2880
 5939SOL    HW119971   8.186   0.789   1.789 -0.0716  0.8666  0.2661
 5939SOL    HW219972   8.177   0.861   1.922  0.7059  0.0632  0.7604
 5940SOL     OW19973   5.705   3.505   7.340  0.5605 -0.0533 -0.0420
 5940SOL    HW119974   5.772   3.513   7.273  1.8489 -1.3336  1.0103
 5940SOL    HW219975   5.691   3.594   7.372  0.1084  0.5371 -1.7643
 5941SOL     OW19976   7.235   2.427   2.568  0.0640 -0.2732  0.0930
 5941SOL    HW119977   7.216   2.364   2.498  0.6536 -1.2485  0.7756
 5941SOL    HW219978   7.315   2.470   2.540  0.4352 -0.8362  0.2560
 5942SOL     OW19979   9.001   4.238   6.706  0.3848 -0.3172  0.0348
 5942SOL    HW119980   8.973   4.170   6.767 -0.1836 -0.3506 -0.2532
 5942SOL    HW219981   8.935   4.306   6.715  0.3398 -0.2896 -0.4788
 5943SOL     OW19982   3.022   7.015   1.761 -0.5870  0.4009  0.5747
 5943SOL    HW119983   2.942   7.021   1.709  0.0839 -1.8450 -0.8321
 5943SOL    HW219984   2.994   6.977   1.844 -1.2335  1.3888  0.8276
 5944SOL     OW19985   6.180   2.654   2.193 -0.0534  0.0477  0.2913
 5944SOL    HW119986   6.251   2.616   2.140 -1.9590 -2.8147 -0.4439
 5944SOL    HW219987   6.194   2.620   2.281 -0.2202 -0.1396  0.2478
 5945SOL     OW19988   0.457   3.734   8.871  0.2778  0.0138 -0.1482
 5945SOL    HW119989   0.512   3.704   8.797 -0.6126 -1.5820 -0.2199
 5945SOL    HW219990   0.515   3.729   8.947  0.4236 -1.1626 -0.3068
 5946SOL     OW19991   0.332   8.268   0.697 -0.1156 -0.6809  0.1434
 5946SOL    HW119992   0.282   8.330   0.644 -0.2235 -0.0818  0.9173
 5946SOL    HW219993   0.404   8.240   0.641  0.6022  1.0441  0.1500
 5947SOL     OW19994   9.191   5.004   4.175 -0.2190  0.3460 -0.5619
 5947SOL    HW119995   9.128   4.965   4.235  0.4531 -0.9566 -0.6571
 5947SOL    HW219996   9.155   5.090   4.153 -1.1033  0.3061  0.6846
 5948SOL     OW19997   0.760   1.686   5.386 -0.3115  0.4761 -0.1258
 5948SOL    HW119998   0.824   1.615   5.394 -1.3658 -0.3321  1.7786
 5948SOL    HW219999   0.813   1.766   5.391  0.8334 -0.1301 -1.6924
 5949SOL     OW20000   1.381   7.309   5.420 -0.8098  0.1451  0.5942
 5949SOL    HW120001   1.322   7.284   5.491 -1.3351  0.6189  0.3373
 5949SOL    HW220002   1.448   7.241   5.419 -1.3425 -0.3992  0.9112
 5950SOL     OW20003   1.386   9.403   5.770 -0.1980 -0.3410 -0.1087
 5950SOL    HW120004   1.457   9.362   5.819 -2.1878 -0.8917  2.5872
 5950SOL    HW220005   1.328   9.329   5.747 -0.1319  0.1297 -1.9115
 5951SOL     OW20006   6.382   7.503   2.764  0.7859 -0.0375  0.2711
 5951SOL    HW120007   6.359   7.410   2.753 -0.6908  0.1912  1.1635
 5951SOL    HW220008   6.300   7.550   2.750  0.9873  0.9492  2.0731
 5952SOL     OW20009   3.720   0.719   8.365  0.5921  0.3801  0.1824
 5952SOL    HW120010   3.752   0.755   8.282 -1.0016  0.8340 -0.2752
 5952SOL    HW220011   3.760   0.632   8.370 -0.2041 -0.1459 -1.6748
 5953SOL     OW20012   5.740   1.593   3.733  0.6034  0.2895  0.0608
 5953SOL    HW120013   5.712   1.526   3.796  2.1310  0.6954  1.2199
 5953SOL    HW220014   5.699   1.673   3.764 -0.3624  0.1323 -0.7263
 5954SOL     OW20015   6.225   9.504   2.023  0.2634  0.2898  0.1389
 5954SOL    HW120016   6.179   9.587   2.013  0.3850  0.4331  0.7073
 5954SOL    HW220017   6.312   9.529   2.056  0.4672 -0.0309 -0.1427
 5955SOL     OW20018   7.760   7.467   6.176  0.1245 -0.3415 -0.1913
 5955SOL    HW120019   7.710   7.548   6.190  0.0359 -0.1656 -1.4571
 5955SOL    HW220020   7.696   7.405   6.141  0.2528 -0.8912  0.5163
 5956SOL     OW20021   7.974   5.421   9.440  0.4186  0.0528 -0.1787
 5956SOL    HW120022   7.926   5.504   9.439 -0.6276 -0.5267  0.3158
 5956SOL    HW220023   8.065   5.446   9.421 -0.0216  1.2033 -0.8775
 5957SOL     OW20024   7.262   0.883   4.163 -0.0282  0.4154 -0.3290
 5957SOL    HW120025   7.247   0.788   4.162 -1.7167  0.5597 -3.9221
 5957SOL    HW220026   7.356   0.892   4.174  0.3282 -1.7479 -1.1517
 5958SOL     OW20027   7.482   7.900   5.394  0.1864  0.6766  0.2323
 5958SOL    HW120028   7.559   7.861   5.435 -0.3642  0.6521  1.3049
 5958SOL    HW220029   7.503   7.993   5.387  0.4612  0.6093  0.1771
 5959SOL     OW20030   6.960   7.349   1.957  0.3120 -0.0076 -0.5595
 5959SOL    HW120031   6.949   7.391   2.042 -0.0049  2.3544 -1.6786
 5959SOL    HW220032   6.873   7.352   1.918  0.8224  0.6191 -1.6811
 5960SOL     OW20033   4.755   2.061   7.800 -0.3622  0.7697 -0.2573
 5960SOL    HW120034   4.837   2.023   7.769 -2.3359 -3.0204 -1.3947
 5960SOL    HW220035   4.749   2.032   7.891 -1.3521 -0.8393 -0.8001
 5961SOL     OW20036   4.037   8.093   0.392 -0.2529  0.3421 -0.4133
 5961SOL    HW120037   4.029   8.178   0.348  2.0431  0.1203 -1.3703
 5961SOL    HW220038   4.051   8.030   0.321 -0.3414 -0.6241  0.3962
 5962SOL     OW20039   0.799   8.947   2.438 -0.2460  0.0443  0.0055
 5962SOL    HW120040   0.818   8.874   2.379 -1.2555  0.9454 -1.5157
 5962SOL    HW220041   0.779   8.905   2.522 -0.8223 -1.4487 -0.8244
 5963SOL     OW20042   6.838   1.142   7.712  0.2163 -0.5771 -0.3733
 5963SOL    HW120043   6.931   1.164   7.706  0.4269 -1.0201  0.9808
 5963SOL    HW220044   6.793   1.218   7.674  1.1442 -0.9789 -2.4195
 5964SOL     OW20045   1.117   4.233   7.619 -0.3436  0.2103  0.3836
 5964SOL    HW120046   1.170   4.185   7.556  1.1234  2.0986  0.0842
 5964SOL    HW220047   1.163   4.220   7.703 -1.6231 -1.3094  0.8997
 5965SOL     OW20048   9.509   6.826   9.064 -0.0397  0.4091 -0.2655
 5965SOL    HW120049   9.487   6.890   8.996 -0.1752 -0.1851 -0.7922
 5965SOL    HW220050   9.602   6.807   9.050 -0.3511 -0.6170 -1.0756
 5966SOL     OW20051   0.080   1.612   6.692  0.4702  0.3554  0.4813
 5966SOL    HW120052  -0.002   1.659   6.702  0.4820  0.9008 -1.4882
 5966SOL    HW220053   0.143   1.679   6.663  1.1813 -0.3521  0.3498
 5967SOL     OW20054   2.963   1.184   6.730 -0.5171  0.3007  0.3569
 5967SOL    HW120055   2.882   1.138   6.753 -0.6662  0.7057  0.6416
 5967SOL    HW220056   2.962   1.188   6.634  0.1434 -1.4671  0.2419
 5968SOL     OW20057   7.724   8.805   8.622 -0.1255  0.1864  0.2326
 5968SOL    HW120058   7.751   8.790   8.712 -3.1430  1.0306  1.3905
 5968SOL    HW220059   7.800   8.844   8.580  1.4356 -0.4514  2.3305
 5969SOL     OW20060   5.165   4.799   9.292  0.3783  0.9324  0.6462
 5969SOL    HW120061   5.187   4.775   9.382 -0.0640  1.2720  0.8510
 5969SOL    HW220062   5.069   4.801   9.291  0.3872  1.1776  0.2315
 5970SOL     OW20063   7.133   7.790   2.854 -0.4391  0.0850 -0.4216
 5970SOL    HW120064   7.204   7.840   2.895 -0.9447 -0.7052  1.5205
 5970SOL    HW220065   7.067   7.855   2.833  0.8363  0.8554 -2.3545
 5971SOL     OW20066   3.961   8.554   3.005 -0.1834  0.0772  0.2017
 5971SOL    HW120067   3.891   8.590   3.060 -0.6404  0.0129 -0.3318
 5971SOL    HW220068   4.028   8.622   3.005  0.2708 -0.3378  1.6594
 5972SOL     OW20069   2.540   6.060   5.670  0.0007 -0.0665  0.4999
 5972SOL    HW120070   2.545   5.966   5.653 -1.8356 -0.6825  2.7660
 5972SOL    HW220071   2.623   6.095   5.638  0.2628 -2.2412 -1.4313
 5973SOL     OW20072   3.039   5.667   0.246  0.5656  0.4449 -0.3079
 5973SOL    HW120073   3.017   5.623   0.328  0.7366  2.3852  0.8459
 5973SOL    HW220074   2.975   5.635   0.183 -1.6639  1.3218  1.4102
 5974SOL     OW20075   0.914   2.095   2.363  0.0844 -0.3638  0.0074
 5974SOL    HW120076   0.899   2.184   2.330 -2.7553 -0.5451  0.5184
 5974SOL    HW220077   0.968   2.053   2.296  0.8888  1.5166 -0.5848
 5975SOL     OW20078   8.009   0.709   9.460 -0.3405 -0.2574 -0.5138
 5975SOL    HW120079   8.079   0.763   9.422  2.1382 -2.5809  0.4221
 5975SOL    HW220080   7.955   0.684   9.385  0.8364  0.2058 -1.5502
 5976SOL     OW20081   7.667   8.928   0.771  0.5094 -0.3488  0.0267
 5976SOL    HW120082   7.702   8.895   0.688  0.6971 -0.7541  0.2605
 5976SOL    HW220083   7.699   9.019   0.776 -2.3946  0.9161 -1.9856
 5977SOL     OW20084   3.312   5.509   4.952  0.1410 -0.0640  0.0734
 5977SOL    HW120085   3.295   5.561   5.031  1.3197 -0.0351  0.3286
 5977SOL    HW220086   3.242   5.443   4.951 -0.1680  0.2355  0.8727
 5978SOL     OW20087   8.269   2.365   3.267 -0.3359  0.4139  0.5253
 5978SOL    HW120088   8.307   2.297   3.212 -2.4477 -0.5414  0.1468
 5978SOL    HW220089   8.344   2.412   3.302  1.1295 -0.2951 -1.4673
 5979SOL     OW20090   1.885   6.588   6.746  0.1799  0.3161  0.1658
 5979SOL    HW120091   1.809   6.564   6.693  0.3285 -0.1896  0.1702
 5979SOL    HW220092   1.889   6.683   6.741 -1.6581  0.5524  1.7882
 5980SOL     OW20093   5.647   8.285   1.421  0.1920  0.2098  0.0743
 5980SOL    HW120094   5.576   8.227   1.449 -0.1441  1.1656  1.3331
 5980SOL    HW220095   5.727   8.243   1.451  0.1273 -0.5515 -0.7734
 5981SOL     OW20096   2.529   3.127   9.086 -0.2188 -0.2203 -0.3858
 5981SOL    HW120097   2.508   3.165   9.172  0.8008  0.3852 -0.3794
 5981SOL    HW220098   2.557   3.202   9.033  0.4275 -0.7650 -0.8296
 5982SOL     OW20099   6.418   3.952   2.918 -0.2449 -0.6890 -0.5827
 5982SOL    HW120100   6.400   3.966   2.825 -2.8392  1.1535  0.0797
 5982SOL    HW220101   6.424   4.040   2.955  2.9566 -1.3139  0.7545
 5983SOL     OW20102   7.889   8.568   6.696 -0.3424 -0.2578  0.1989
 5983SOL    HW120103   7.984   8.563   6.694 -0.3314 -1.5610  1.7142
 5983SOL    HW220104   7.866   8.618   6.618  1.5614 -0.1018 -0.3158
 5984SOL     OW20105   3.425   3.678   5.532  0.1929 -0.0473 -0.3031
 5984SOL    HW120106   3.383   3.763   5.518 -1.2629 -0.7542 -0.3744
 5984SOL    HW220107   3.375   3.639   5.604  0.9452 -0.7899 -0.1763
 5985SOL     OW20108   1.800   6.790   8.018 -0.2156 -0.3330 -0.3276
 5985SOL    HW120109   1.886   6.750   8.025  0.2783  0.6940 -0.4382
 5985SOL    HW220110   1.740   6.716   8.011  0.6115 -1.0671  0.1786
 5986SOL     OW20111   4.046   4.797   3.034 -0.2360 -0.7027  0.1998
 5986SOL    HW120112   4.008   4.884   3.020  0.0916 -0.6183 -0.1771
 5986SOL    HW220113   4.139   4.813   3.048 -0.0275 -1.0489 -0.6816
 5987SOL     OW20114   5.114   8.480   2.852  0.2150 -0.4127 -0.3076
 5987SOL    HW120115   5.024   8.448   2.855  0.2896 -1.0444 -2.5690
 5987SOL    HW220116   5.107   8.574   2.870 -0.8489 -0.5226 -0.0840
 5988SOL     OW20117   4.905   7.408   5.937  0.0587 -0.2062  0.0261
 5988SOL    HW120118   4.878   7.500   5.936  1.8263  0.3746  0.8853
 5988SOL    HW220119   4.864   7.372   6.016  2.5658  0.9934  2.0436
 5989SOL     OW20120   7.408   5.351   0.421 -0.4558 -0.0343 -0.8747
 5989SOL    HW120121   7.439   5.341   0.511 -0.0313  0.2232 -0.9897
 5989SOL    HW220122   7.313   5.362   0.429 -0.2195  2.0715 -0.2748
 5990SOL     OW20123   7.550   5.247   8.892 -0.1132  0.2034  0.2480
 5990SOL    HW120124   7.493   5.321   8.873 -1.0708 -0.4017  0.6468
 5990SOL    HW220125   7.576   5.213   8.807 -0.7840  0.1657  0.0577
 5991SOL     OW20126   8.019   9.313   7.344  0.0225 -0.5826  0.3248
 5991SOL    HW120127   8.102   9.271   7.322 -0.2170 -0.8772 -0.0173
 5991SOL    HW220128   7.991   9.354   7.262 -1.4474 -2.6482 -0.2610
 5992SOL     OW20129   8.439   9.459   5.590 -0.4744 -0.0669 -0.3841
 5992SOL    HW120130   8.352   9.460   5.550 -1.5096  1.3623  1.6464
 5992SOL    HW220131   8.429   9.403   5.667  0.8949 -1.2074 -1.0048
 5993SOL     OW20132   0.664   9.204   5.473 -0.1210  0.1653 -0.1660
 5993SOL    HW120133   0.626   9.292   5.473 -0.1549  0.2147  2.2467
 5993SOL    HW220134   0.756   9.218   5.496 -0.5887 -0.4882  2.4545
 5994SOL     OW20135   5.778   5.259   2.438  0.2068 -0.0122 -0.3885
 5994SOL    HW120136   5.865   5.260   2.477  0.3103  2.4801 -0.5608
 5994SOL    HW220137   5.788   5.302   2.354 -1.2429  0.6611 -0.2549
 5995SOL     OW20138   8.341   8.059   6.830  0.3877 -0.4594 -0.4374
 5995SOL    HW120139   8.362   8.152   6.837  0.0256 -0.4807  1.5004
 5995SOL    HW220140   8.284   8.053   6.753 -0.2462  1.0653 -0.1254
 5996SOL     OW20141   6.662   5.932   9.163 -0.0987 -0.2432 -0.1887
 5996SOL    HW120142   6.740   5.971   9.126 -1.2210  0.2332 -2.1662
 5996SOL    HW220143   6.656   5.846   9.122 -1.6774  0.5175 -1.6436
 5997SOL     OW20144   6.435   8.194   5.832 -0.5774  0.2665 -0.0324
 5997SOL    HW120145   6.411   8.268   5.776  0.4598  0.1180 -0.7116
 5997SOL    HW220146   6.525   8.214   5.859 -0.1795 -0.8680 -0.4617
 5998SOL     OW20147   1.884   8.792   3.106  0.2291  0.6260  0.1843
 5998SOL    HW120148   1.814   8.855   3.086  0.7480  0.7635 -1.3464
 5998SOL    HW220149   1.842   8.706   3.098  0.6054  0.6294 -2.6170
 5999SOL     OW20150   3.170   2.641   8.090 -0.0130  0.0958 -0.0331
 5999SOL    HW120151   3.233   2.573   8.113 -1.0029 -1.3408 -1.3430
 5999SOL    HW220152   3.114   2.650   8.167  0.6569  0.0627  0.4618
 6000SOL     OW20153   8.309   0.988   0.354 -0.2499 -0.1596  0.2046
 6000SOL    HW120154   8.270   0.913   0.400  3.6686 -2.5681  0.0214
 6000SOL    HW220155   8.381   0.951   0.304 -0.2858  3.3241 -2.8521
 6001SOL     OW20156   2.230   4.789   7.472  0.0253  0.0986  0.2180
 6001SOL    HW120157   2.250   4.837   7.391 -0.6929 -0.6411 -0.4235
 6001SOL    HW220158   2.184   4.852   7.527 -0.9645  0.1542 -0.6426
 6002SOL     OW20159   8.940   2.903   8.748 -0.8414  0.3390  0.3006
 6002SOL    HW120160   8.925   2.927   8.656 -2.6688 -0.9874  0.1953
 6002SOL    HW220161   9.016   2.955   8.774  0.9341 -0.6058 -2.5199
 6003SOL     OW20162   6.405   7.124   2.528  0.5933  0.4061 -0.5855
 6003SOL    HW120163   6.472   7.077   2.579  0.0596 -2.0321 -1.9979
 6003SOL    HW220164   6.344   7.156   2.594  0.5848 -1.5795  0.4218
 6004SOL     OW20165   3.135   5.971   6.927 -0.0779  0.3245 -0.4060
 6004SOL    HW120166   3.061   6.021   6.893  1.3412  0.7984 -3.0391
 6004SOL    HW220167   3.123   5.883   6.891  0.0537  0.0793  0.1283
 6005SOL     OW20168   4.224   7.633   3.537  0.2420 -0.0949  0.3672
 6005SOL    HW120169   4.212   7.688   3.615 -1.0656  0.6177 -0.3083
 6005SOL    HW220170   4.142   7.584   3.530  0.5150 -0.4633 -0.3228
 6006SOL     OW20171   7.577   5.391   4.095 -0.0707 -0.4279 -0.0222
 6006SOL    HW120172   7.547   5.301   4.108 -0.2673 -0.2324  0.9565
 6006SOL    HW220173   7.499   5.445   4.111  0.4117 -0.0013  0.9316
 6007SOL     OW20174   1.231   6.833   4.946  0.0426  0.0991  0.4358
 6007SOL    HW120175   1.210   6.794   5.031  0.2185  0.7753  0.7930
 6007SOL    HW220176   1.271   6.917   4.967 -0.0951  0.3617 -0.3238
 6008SOL     OW20177   1.193   2.866   5.754 -0.3135 -0.2876 -0.9247
 6008SOL    HW120178   1.256   2.809   5.710 -0.5915  0.2714 -2.1055
 6008SOL    HW220179   1.227   2.954   5.740 -1.4381  0.0415 -1.7745
 6009SOL     OW20180   2.204   3.994   7.954  0.2025 -0.1345 -0.1332
 6009SOL    HW120181   2.173   3.911   7.917  1.6442  0.2601 -2.4632
 6009SOL    HW220182   2.173   4.061   7.893 -1.0547  1.1130  1.7870
 6010SOL     OW20183   0.877   6.478   3.107 -0.1076  0.0863 -0.2531
 6010SOL    HW120184   0.855   6.570   3.089  0.6103  0.2911 -0.1166
 6010SOL    HW220185   0.905   6.478   3.199 -3.4848 -0.9035  0.9173
 6011SOL     OW20186   6.761   5.095   5.537  0.5911 -0.2601  0.6632
 6011SOL    HW120187   6.741   5.158   5.468 -1.4598 -2.0764 -0.4796
 6011SOL    HW220188   6.785   5.015   5.491  0.9330 -1.0067  2.0863
 6012SOL     OW20189   3.461   2.881   6.619 -0.7187  0.0750 -0.2695
 6012SOL    HW120190   3.452   2.788   6.600 -0.2891 -0.1826  0.7093
 6012SOL    HW220191   3.488   2.884   6.711 -2.7418  1.2395  0.3377
 6013SOL     OW20192   3.222   3.023   4.182  0.0152  0.6681 -0.2427
 6013SOL    HW120193   3.185   3.039   4.269 -1.3435  0.0350 -0.6757
 6013SOL    HW220194   3.152   3.048   4.121  0.4278 -0.2257 -1.1093
 6014SOL     OW20195   9.218   5.161   8.242 -0.4221 -0.7155 -0.0438
 6014SOL    HW120196   9.164   5.131   8.314  0.9097 -0.0421  1.2892
 6014SOL    HW220197   9.306   5.130   8.264  0.2754  0.7706 -0.6032
 6015SOL     OW20198   4.083   7.913   8.717  0.4037 -0.4377 -0.0874
 6015SOL    HW120199   4.105   7.842   8.777 -0.5861 -1.0659 -0.4277
 6015SOL    HW220200   4.059   7.986   8.773 -0.0205 -0.8627  0.2959
 6016SOL     OW20201   6.336   8.812   3.182 -0.4928 -0.0414 -0.1596
 6016SOL    HW120202   6.363   8.904   3.187 -1.2496  0.1391  1.2395
 6016SOL    HW220203   6.359   8.777   3.269  2.7274 -2.0575 -1.6136
 6017SOL     OW20204   5.067   8.988   1.715  0.3857  0.0517  0.1570
 6017SOL    HW120205   4.997   8.966   1.654  0.5050 -1.7498  0.6246
 6017SOL    HW220206   5.098   9.074   1.686 -2.2269  1.0874  0.1622
 6018SOL     OW20207   0.515   2.220   3.720 -0.3844 -0.3989  0.3019
 6018SOL    HW120208   0.609   2.235   3.723  0.2211 -3.1946  4.3292
 6018SOL    HW220209   0.476   2.303   3.745  1.3262 -0.1597  2.4065
 6019SOL     OW20210   1.938   1.374   5.747 -0.3622 -0.0250 -0.7510
 6019SOL    HW120211   1.939   1.465   5.718  1.8860 -0.0791 -0.9938
 6019SOL    HW220212   1.865   1.370   5.810  1.6192  2.8780  2.0804
 6020SOL     OW20213   3.060   8.721   4.816 -0.8049 -0.1460 -0.0764
 6020SOL    HW120214   3.085   8.760   4.732  1.8822  1.1217  1.1893
 6020SOL    HW220215   3.111   8.640   4.821 -1.6615 -0.6875 -0.0515
 6021SOL     OW20216   9.296   9.192   6.569  0.2630  0.4781  0.1700
 6021SOL    HW120217   9.235   9.261   6.543 -0.3355 -0.2987 -0.5716
 6021SOL    HW220218   9.368   9.198   6.506 -0.0038  0.1544 -0.1713
 6022SOL     OW20219   3.806   5.416   1.515  0.0091  0.2312  0.0396
 6022SOL    HW120220   3.822   5.345   1.578 -0.7930 -0.8650 -0.9322
 6022SOL    HW220221   3.726   5.458   1.547  0.3760  0.5787  0.5105
 6023SOL     OW20222   7.408   9.391   5.711 -0.9848  0.4626  0.0202
 6023SOL    HW120223   7.441   9.478   5.735 -0.7424  0.3712  0.0172
 6023SOL    HW220224   7.485   9.335   5.712 -1.2221  0.1383  0.5139
 6024SOL     OW20225   2.885   0.455   1.709  0.6326 -0.2159 -0.3225
 6024SOL    HW120226   2.966   0.404   1.710  0.5441 -0.3988 -1.2674
 6024SOL    HW220227   2.816   0.391   1.694  0.5014  0.1353 -1.3051
 6025SOL     OW20228   9.418   7.747   9.093 -0.0512 -0.0022 -0.0315
 6025SOL    HW120229   9.478   7.779   9.160  0.3964 -0.8584 -0.0184
 6025SOL    HW220230   9.398   7.657   9.118 -0.8198  0.0514 -0.3994
 6026SOL     OW20231   0.858   3.445   3.471 -0.7292  0.1001 -0.0894
 6026SOL    HW120232   0.766   3.418   3.466 -0.8323 -0.0856  1.7901
 6026SOL    HW220233   0.859   3.535   3.439 -1.8633  0.6315  1.2652
 6027SOL     OW20234   0.505   2.665   6.339  0.2003  0.3667 -0.1429
 6027SOL    HW120235   0.561   2.652   6.416  1.0523 -3.4079 -1.1787
 6027SOL    HW220236   0.418   2.684   6.375  0.9680  0.6213  1.6752
 6028SOL     OW20237   0.163   0.320   2.528 -0.3795 -0.7768 -0.4465
 6028SOL    HW120238   0.173   0.389   2.594  0.3841 -0.5479 -0.7964
 6028SOL    HW220239   0.198   0.242   2.570 -2.0136 -1.1780  0.2687
 6029SOL     OW20240   8.036   7.036   8.904 -0.6237 -0.2602 -0.4741
 6029SOL    HW120241   8.017   7.051   8.996 -0.2195 -1.4067 -0.1870
 6029SOL    HW220242   8.116   7.086   8.888 -0.4932 -0.3489 -0.1082
 6030SOL     OW20243   0.919   6.123   8.248 -0.1937 -0.8818  0.2907
 6030SOL    HW120244   1.012   6.100   8.238  1.3708  3.8190  1.2568
 6030SOL    HW220245   0.884   6.119   8.159  2.1946  1.1989 -0.8796
 6031SOL     OW20246   3.946   2.576   0.328  0.1317 -0.3016  0.0188
 6031SOL    HW120247   3.885   2.627   0.381  1.0382  0.1172  0.6863
 6031SOL    HW220248   3.921   2.485   0.344 -3.2517 -0.1593 -3.2697
 6032SOL     OW20249   6.289   7.412   5.609 -0.5485  0.5657 -0.2624
 6032SOL    HW120250   6.342   7.392   5.531 -0.5458 -0.1268 -0.0864
 6032SOL    HW220251   6.207   7.447   5.574 -0.5704  0.1979 -0.5749
 6033SOL     OW20252   7.649   7.856   7.900  0.5467  0.4167 -0.1209
 6033SOL    HW120253   7.617   7.930   7.848  0.8833  1.6218  1.3026
 6033SOL    HW220254   7.572   7.801   7.913 -0.0598  1.2568 -0.0404
 6034SOL     OW20255   6.176   7.094   0.670  0.3123 -0.3661 -0.4476
 6034SOL    HW120256   6.203   7.185   0.689  3.5928 -1.4568  0.9724
 6034SOL    HW220257   6.095   7.082   0.719  1.2302  1.0760  1.5795
 6035SOL     OW20258   8.234   7.854   5.967  0.0965 -0.0954 -0.0489
 6035SOL    HW120259   8.296   7.890   5.903 -0.4494 -0.3120 -0.7138
 6035SOL    HW220260   8.269   7.767   5.988 -0.3104 -0.4886 -0.9249
 6036SOL     OW20261   5.094   8.860   5.868  0.0129 -0.0506  0.5271
 6036SOL    HW120262   5.017   8.909   5.838 -0.0361 -0.6086 -0.2830
 6036SOL    HW220263   5.057   8.785   5.916  0.0905  0.8417  2.0428
 6037SOL     OW20264   3.906   2.187   2.185 -0.0325  0.0031  0.1762
 6037SOL    HW120265   3.813   2.165   2.177  0.2435 -0.9941 -0.4211
 6037SOL    HW220266   3.944   2.113   2.232  0.1458  1.2762  2.1612
 6038SOL     OW20267   2.706   5.138   8.755  0.1330 -0.4514  0.0160
 6038SOL    HW120268   2.787   5.155   8.708  0.0111  0.5666  0.1642
 6038SOL    HW220269   2.643   5.200   8.718  0.1953  0.8243  1.9424
 6039SOL     OW20270   8.638   0.729   7.547 -0.4037  0.0454  0.3717
 6039SOL    HW120271   8.588   0.785   7.488 -0.3196  1.0594  1.2219
 6039SOL    HW220272   8.711   0.696   7.494  0.1626  1.6334  0.1169
 6040SOL     OW20273   6.965   3.172   1.463 -0.5329  0.0676  0.7392
 6040SOL    HW120274   6.882   3.142   1.425  0.0301 -0.5163 -0.0590
 6040SOL    HW220275   6.991   3.102   1.523  0.3906 -0.7275 -0.5421
 6041SOL     OW20276   1.833   2.499   1.343  0.4103  0.0470  0.1898
 6041SOL    HW120277   1.834   2.434   1.413 -0.6477  0.5195  0.6705
 6041SOL    HW220278   1.860   2.580   1.385 -0.2514  0.3407  0.0735
 6042SOL     OW20279   7.003   8.689   1.968 -0.0780 -0.0231  0.8950
 6042SOL    HW120280   7.036   8.778   1.955 -1.4899  0.5293  0.9579
 6042SOL    HW220281   6.920   8.701   2.014 -2.4607 -1.0510 -2.7620
 6043SOL     OW20282   3.479   5.718   9.560  0.5994  0.3277  0.3052
 6043SOL    HW120283   3.412   5.649   9.560  0.9007 -0.1032  3.3592
 6043SOL    HW220284   3.430   5.799   9.573  0.5017  0.2373  0.5120
 6044SOL     OW20285   7.999   3.156   8.519  0.0505  0.0572 -0.0241
 6044SOL    HW120286   8.007   3.109   8.436 -1.1725 -0.8264  0.3363
 6044SOL    HW220287   7.947   3.098   8.575  0.6693  0.7317  1.2919
 6045SOL     OW20288   0.890   7.380   7.423  0.2567  0.5099  0.2775
 6045SOL    HW120289   0.937   7.450   7.377 -0.1057 -0.2528 -1.3386
 6045SOL    HW220290   0.915   7.300   7.377 -1.3039 -0.1153  0.4460
 6046SOL     OW20291   3.955   3.599   3.022 -0.1252  0.1310 -0.2894
 6046SOL    HW120292   4.013   3.631   3.091 -1.4162  0.6614  0.6004
 6046SOL    HW220293   4.005   3.530   2.979  0.5493 -0.5752  1.5083
 6047SOL     OW20294   2.516   0.831   0.352  0.3941  0.1397 -0.2806
 6047SOL    HW120295   2.432   0.813   0.394  0.0803 -0.8166 -1.2848
 6047SOL    HW220296   2.531   0.924   0.370  0.4534 -0.2620  2.2105
 6048SOL     OW20297   4.260   7.549   4.210 -0.6063 -0.1115 -0.1803
 6048SOL    HW120298   4.338   7.540   4.264  1.2406  0.4706 -2.5868
 6048SOL    HW220299   4.253   7.465   4.164 -0.4497  0.3558 -1.0946
 6049SOL     OW20300   0.677   6.515   5.495  0.0402 -0.3396 -0.0219
 6049SOL    HW120301   0.593   6.552   5.470  0.7590  1.3455 -0.0900
 6049SOL    HW220302   0.656   6.447   5.559 -1.3218  0.5598  0.5308
 6050SOL     OW20303   6.242   6.436   9.479  0.0112 -0.2912  0.1296
 6050SOL    HW120304   6.332   6.444   9.509 -0.0179 -2.0386  0.7772
 6050SOL    HW220305   6.241   6.356   9.426 -0.7612  0.7421 -1.5068
 6051SOL     OW20306   5.140   0.317   0.327  0.1312  0.2390  0.1630
 6051SOL    HW120307   5.207   0.329   0.260 -0.8694  0.5860 -0.8125
 6051SOL    HW220308   5.160   0.232   0.366  0.3746 -0.2787 -1.0361
 6052SOL     OW20309   0.543   2.267   0.237 -0.0475 -0.0575  0.1914
 6052SOL    HW120310   0.621   2.229   0.279 -0.4654 -2.3505 -0.9643
 6052SOL    HW220311   0.578   2.313   0.160  0.3421  0.8803  0.9048
 6053SOL     OW20312   2.966   4.683   3.803 -0.2888  0.2546  0.0083
 6053SOL    HW120313   2.971   4.778   3.789 -1.9088  0.3395 -0.1758
 6053SOL    HW220314   2.965   4.673   3.898  0.4515  0.3631  0.0375
 6054SOL     OW20315   5.980   2.377   1.963  0.8499 -0.0470 -0.6625
 6054SOL    HW120316   5.949   2.442   1.900 -0.7792 -0.7306 -0.6274
 6054SOL    HW220317   6.065   2.349   1.929  0.1734 -0.1253 -2.3934
 6055SOL     OW20318   5.257   2.968   3.063  0.1616  0.7841  0.5767
 6055SOL    HW120319   5.200   2.937   3.133  0.6684 -0.5270  0.4254
 6055SOL    HW220320   5.209   3.042   3.024 -0.3439  1.2202  1.9657
 6056SOL     OW20321   6.032   3.165   9.240  0.2994  0.2820  0.8567
 6056SOL    HW120322   6.062   3.242   9.288  0.4439  0.4506  0.4990
 6056SOL    HW220323   6.111   3.115   9.222  0.1726 -0.1085  1.3542
 6057SOL     OW20324   6.598   9.281   5.657  0.1139  0.1863  0.1050
 6057SOL    HW120325   6.568   9.335   5.730  0.5035  0.2925  0.1914
 6057SOL    HW220326   6.542   9.306   5.583  0.2133  0.6272  0.1745
 6058SOL     OW20327   4.948   5.490   3.498  0.1000 -0.0529  0.6494
 6058SOL    HW120328   4.859   5.473   3.527 -1.1134 -0.5025 -2.9006
 6058SOL    HW220329   4.975   5.410   3.453  1.2545  1.0041 -0.6465
 6059SOL     OW20330   6.629   3.896   0.007  0.2936 -0.2644  0.1234
 6059SOL    HW120331   6.534   3.895  -0.008  0.0158 -1.0567  1.7494
 6059SOL    HW220332   6.653   3.988   0.001 -0.4406 -0.1182 -0.9703
 6060SOL     OW20333   3.015   8.144   4.954 -0.4491  0.8697  0.4307
 6060SOL    HW120334   2.931   8.157   4.998 -0.8511 -0.2376  0.0390
 6060SOL    HW220335   3.081   8.165   5.020 -1.0351 -0.9032  1.6464
 6061SOL     OW20336   6.545   7.787   8.479  0.4155 -0.5665  0.1116
 6061SOL    HW120337   6.537   7.728   8.404 -0.7381  0.2203 -0.4131
 6061SOL    HW220338   6.514   7.735   8.553 -0.9344 -0.5486 -0.4034
 6062SOL     OW20339   1.969   6.723   7.647 -0.4516  0.6340  0.7454
 6062SOL    HW120340   2.036   6.685   7.591  1.4671  0.7693  2.8171
 6062SOL    HW220341   1.888   6.717   7.596  0.9582 -0.3405 -1.4885
 6063SOL     OW20342   2.046   6.766   1.300 -0.1923 -0.8987 -0.0807
 6063SOL    HW120343   2.119   6.827   1.301  0.5198 -1.7299 -0.0831
 6063SOL    HW220344   1.998   6.783   1.381  0.5368 -0.9771  0.3659
 6064SOL     OW20345   4.231   7.585   2.652  0.1324  0.4905  0.0051
 6064SOL    HW120346   4.240   7.652   2.584 -0.8870 -0.4728 -1.1349
 6064SOL    HW220347   4.293   7.611   2.720  0.7750  1.8032 -1.0348
 6065SOL     OW20348   7.888   1.221   2.152 -0.0500 -0.7557  0.4865
 6065SOL    HW120349   7.884   1.186   2.241 -1.0504 -1.2088  0.2810
 6065SOL    HW220350   7.951   1.165   2.106 -0.4383 -1.2792  0.5911
 6066SOL     OW20351   6.304   2.323   0.673 -0.0307  0.4725  0.2564
 6066SOL    HW120352   6.349   2.341   0.755 -2.3632  0.6701  1.5705
 6066SOL    HW220353   6.248   2.399   0.659  0.8106  0.7838 -1.9494
 6067SOL     OW20354   1.269   7.985   7.108  0.4905  0.1557  0.2652
 6067SOL    HW120355   1.256   8.059   7.168 -2.1623  0.9591 -1.1756
 6067SOL    HW220356   1.207   8.000   7.037  1.0118 -2.6513 -0.9019
 6068SOL     OW20357   3.381   3.996   3.579  0.2574 -0.4193 -0.1677
 6068SOL    HW120358   3.348   4.045   3.654  1.4015  1.6915 -0.9774
 6068SOL    HW220359   3.364   4.052   3.503  0.3549 -1.9016 -1.3491
 6069SOL     OW20360   4.282   1.491   8.746 -0.3605 -0.3362  0.6065
 6069SOL    HW120361   4.263   1.404   8.781 -3.6229  0.3916  0.9027
 6069SOL    HW220362   4.238   1.493   8.661 -0.5691  1.0942  0.7228
 6070SOL     OW20363   5.893   2.470   3.151  0.1941 -0.3376 -0.0131
 6070SOL    HW120364   5.974   2.420   3.144  0.4550  0.2367 -1.3706
 6070SOL    HW220365   5.827   2.405   3.175  1.1255 -0.7239  1.6845
 6071SOL     OW20366   0.311   2.907   8.370 -0.2735  0.1093  0.0388
 6071SOL    HW120367   0.363   2.943   8.298 -1.1288 -1.0820 -1.2439
 6071SOL    HW220368   0.246   2.852   8.326 -2.1249  0.9268  1.6082
 6072SOL     OW20369   3.414   6.953   8.114  0.9730 -0.1973  0.3822
 6072SOL    HW120370   3.492   6.983   8.068  2.4226 -1.5462  1.8366
 6072SOL    HW220371   3.380   7.030   8.159  1.6951  0.3185  0.0529
 6073SOL     OW20372   3.374   6.687   3.324 -0.1268  0.4010 -0.2626
 6073SOL    HW120373   3.468   6.668   3.328 -0.4748 -1.1467  1.6001
 6073SOL    HW220374   3.356   6.697   3.230  1.8011  0.3422 -0.6829
 6074SOL     OW20375   8.755   4.982   1.831  0.3411  0.4290 -0.1096
 6074SOL    HW120376   8.787   4.899   1.866 -1.0446  0.0159  0.2274
 6074SOL    HW220377   8.828   5.043   1.844  1.1598 -0.5896  0.1774
 6075SOL     OW20378   5.623   8.659   9.065 -0.0877  0.0505  0.3077
 6075SOL    HW120379   5.660   8.724   9.006 -0.0763 -1.0445 -0.9236
 6075SOL    HW220380   5.675   8.580   9.050 -3.0327 -1.6887 -1.7599
 6076SOL     OW20381   7.304   1.748   1.970  0.0952  0.0037  0.1647
 6076SOL    HW120382   7.358   1.724   2.046 -0.6750 -2.4186  0.0299
 6076SOL    HW220383   7.255   1.668   1.950 -0.6646  0.9816 -2.1138
 6077SOL     OW20384   0.148   8.050   2.165 -0.0680  0.0818 -0.4878
 6077SOL    HW120385   0.226   8.001   2.141 -0.0532 -0.5910  0.8716
 6077SOL    HW220386   0.158   8.067   2.258 -2.3237 -1.4853  0.0992
 6078SOL     OW20387   2.623   5.733   6.431 -0.2140  0.1485 -0.2780
 6078SOL    HW120388   2.696   5.792   6.414 -0.1384  0.5984  1.4478
 6078SOL    HW220389   2.623   5.673   6.356  0.9907  1.0424 -1.0331
 6079SOL     OW20390   5.505   3.071   3.279 -0.2228 -0.0221 -0.3127
 6079SOL    HW120391   5.538   2.986   3.309  0.8541  0.0350 -1.2870
 6079SOL    HW220392   5.558   3.092   3.202  0.1137  1.9268  0.3945
 6080SOL     OW20393   8.485   6.066   2.265 -0.2030  0.8487 -0.2625
 6080SOL    HW120394   8.446   6.060   2.352 -0.6574  2.0585 -0.3577
 6080SOL    HW220395   8.460   5.985   2.221  0.3793  0.0448  0.8630
 6081SOL     OW20396   6.923   7.043   7.215 -0.3749  0.0998  0.9589
 6081SOL    HW120397   6.861   7.094   7.163  1.5491  0.8880 -0.6503
 6081SOL    HW220398   6.973   7.108   7.264  0.5534 -0.3738  0.6574
 6082SOL     OW20399   2.176   8.866   3.296  0.2527  0.0373  0.2949
 6082SOL    HW120400   2.219   8.792   3.339  0.0235  0.9613  2.2097
 6082SOL    HW220401   2.184   8.847   3.203  0.7455 -2.0837  0.7106
 6083SOL     OW20402   2.837   8.743   8.386 -0.2807 -0.3187  0.3338
 6083SOL    HW120403   2.750   8.726   8.349 -0.1939  0.0935 -0.0732
 6083SOL    HW220404   2.836   8.836   8.407 -0.2159 -0.4851  1.0970
 6084SOL     OW20405   5.038   2.739   5.268  0.5358 -0.1729 -0.1277
 6084SOL    HW120406   5.019   2.732   5.175  1.6046  2.3114 -0.6252
 6084SOL    HW220407   5.055   2.832   5.282  2.4843 -0.7649  2.1197
 6085SOL     OW20408   1.237   3.284   5.646 -0.1104 -0.0841  0.2736
 6085SOL    HW120409   1.222   3.365   5.694 -0.7881  1.2121 -1.9991
 6085SOL    HW220410   1.159   3.273   5.592  1.8630  0.3241 -2.9258
 6086SOL     OW20411   3.540   7.353   5.789 -0.0651  0.3702 -0.1312
 6086SOL    HW120412   3.549   7.265   5.824  0.1694  1.1848  2.0510
 6086SOL    HW220413   3.448   7.376   5.805  0.0713  0.7972  0.0794
 6087SOL     OW20414   9.337   3.966   4.053 -0.3177 -0.1445 -0.2423
 6087SOL    HW120415   9.379   3.938   3.972 -0.9743 -1.8403 -0.0418
 6087SOL    HW220416   9.277   4.036   4.026 -0.0296 -0.2207 -1.1009
 6088SOL     OW20417   8.796   7.595   2.381  0.8448  0.4674  0.3526
 6088SOL    HW120418   8.845   7.627   2.456 -1.0670 -0.2163  1.9810
 6088SOL    HW220419   8.710   7.573   2.416  0.3129 -1.1818 -1.7710
 6089SOL     OW20420   0.252   1.991   7.657  0.1159  0.2304  0.0583
 6089SOL    HW120421   0.340   2.027   7.649  0.2639 -0.3500 -1.3034
 6089SOL    HW220422   0.196   2.067   7.670  0.6928  0.7315 -0.3004
 6090SOL     OW20423   5.759   2.364   6.899 -0.0837 -0.6261  0.2393
 6090SOL    HW120424   5.725   2.291   6.847 -0.5469  0.7452 -1.4689
 6090SOL    HW220425   5.833   2.397   6.849 -1.0700  1.2876 -0.0414
 6091SOL     OW20426   5.864   4.000   0.448 -0.3620  0.0159  0.2307
 6091SOL    HW120427   5.796   4.061   0.478  0.5435  0.9884  0.3485
 6091SOL    HW220428   5.826   3.958   0.371 -1.3300  0.0972  0.6428
 6092SOL     OW20429   0.412   8.100   1.185  0.4250  0.0098 -0.0984
 6092SOL    HW120430   0.353   8.169   1.214 -2.3389 -2.0478 -0.3867
 6092SOL    HW220431   0.436   8.125   1.096  1.0331  1.4890  0.4478
 6093SOL     OW20432   8.303   0.729   0.769 -0.0642 -0.4577 -0.4391
 6093SOL    HW120433   8.396   0.711   0.757  0.4469  1.6565  0.0262
 6093SOL    HW220434   8.278   0.676   0.845  1.2104  0.3082  0.5440
 6094SOL     OW20435   3.370   1.904   4.779 -0.4334 -0.0614  0.4034
 6094SOL    HW120436   3.290   1.930   4.824 -0.6410 -0.5968  0.3575
 6094SOL    HW220437   3.342   1.887   4.689 -0.0708  0.7428  0.1348
 6095SOL     OW20438   0.272   2.836   7.849  0.2919  0.3997 -0.0477
 6095SOL    HW120439   0.177   2.831   7.853  0.2364  0.8046 -0.7165
 6095SOL    HW220440   0.294   2.822   7.757  0.9752 -0.9953  0.3007
 6096SOL     OW20441   3.452   0.590   1.802  0.1199 -0.7136 -0.1816
 6096SOL    HW120442   3.513   0.553   1.866 -1.7694 -1.3810  1.3382
 6096SOL    HW220443   3.437   0.518   1.740  1.5124 -0.2559 -1.0827
 6097SOL     OW20444   5.411   5.571   1.690 -0.1022 -0.1736 -0.0690
 6097SOL    HW120445   5.477   5.528   1.744  0.4782  0.1485 -0.5048
 6097SOL    HW220446   5.445   5.564   1.601 -1.1782 -0.9294 -0.4388
 6098SOL     OW20447   1.612   3.462   7.205  0.2011  0.0192  0.3617
 6098SOL    HW120448   1.585   3.450   7.296  0.3940  2.2188  0.7617
 6098SOL    HW220449   1.588   3.552   7.184 -0.4286 -0.6229 -2.0100
 6099SOL     OW20450   8.225   6.058   5.754 -0.2238 -0.1656  0.1880
 6099SOL    HW120451   8.227   6.105   5.671 -2.3388  0.5608  0.4832
 6099SOL    HW220452   8.317   6.043   5.775  0.4501  1.7259 -1.1165
 6100SOL     OW20453   5.456   0.533   8.711  0.3582 -0.2164 -0.1721
 6100SOL    HW120454   5.516   0.479   8.661  0.6133 -0.1439  0.0508
 6100SOL    HW220455   5.512   0.583   8.771 -0.0293 -1.3670  1.2150
 6101SOL     OW20456   8.488   5.231   9.553 -0.7994 -0.1486 -0.1267
 6101SOL    HW120457   8.545   5.158   9.577  0.9563  1.3993  0.7450
 6101SOL    HW220458   8.399   5.201   9.573  0.0234 -1.4217  1.8851
 6102SOL     OW20459   5.192   1.609   7.491  0.4853  0.3211  0.6713
 6102SOL    HW120460   5.277   1.649   7.509  0.1793  1.5842 -0.5407
 6102SOL    HW220461   5.131   1.682   7.489 -0.5597 -0.5204  1.0618
 6103SOL     OW20462   7.492   5.201   8.635  0.5298 -0.4548  0.5473
 6103SOL    HW120463   7.478   5.134   8.568  0.3239  0.9701 -0.8735
 6103SOL    HW220464   7.528   5.276   8.588  2.3406 -0.0849  2.3505
 6104SOL     OW20465   4.289   2.709   7.408  0.7029  0.2436  0.2051
 6104SOL    HW120466   4.217   2.715   7.345 -0.2369 -2.6922  0.8298
 6104SOL    HW220467   4.253   2.746   7.488  0.2742 -0.1437  0.1980
 6105SOL     OW20468   3.046   7.593   3.155 -0.1375 -0.2130 -0.0812
 6105SOL    HW120469   3.052   7.632   3.242 -1.1471 -0.2562  0.0152
 6105SOL    HW220470   3.079   7.661   3.096  1.4162 -0.5138  0.3990
 6106SOL     OW20471   5.771   6.955   0.560 -0.0280 -0.0508  0.3832
 6106SOL    HW120472   5.703   6.994   0.615  0.6861  1.9740 -0.1056
 6106SOL    HW220473   5.838   6.926   0.622 -0.8488 -1.1586  0.7924
 6107SOL     OW20474   6.352   8.749   0.033 -0.4427  0.4298 -0.4220
 6107SOL    HW120475   6.296   8.764  -0.043  1.0295 -1.4044 -1.9664
 6107SOL    HW220476   6.296   8.705   0.096 -1.7671  2.2320 -0.2589
 6108SOL     OW20477   7.814   2.890   5.689  0.4439  0.2901  0.4267
 6108SOL    HW120478   7.836   2.899   5.782 -2.5714  1.4410  1.1841
 6108SOL    HW220479   7.898   2.891   5.643  2.1072 -1.6090  3.1833
 6109SOL     OW20480   9.433   0.298   6.192 -0.5542 -0.8557  0.5551
 6109SOL    HW120481   9.514   0.274   6.237  0.0874  0.4962  0.1754
 6109SOL    HW220482   9.429   0.239   6.117  0.3351 -0.6454  0.3254
 6110SOL     OW20483   8.171   8.603   6.727 -0.5051  0.0167 -0.2383
 6110SOL    HW120484   8.206   8.686   6.759 -1.0055 -0.0390  0.4819
 6110SOL    HW220485   8.225   8.536   6.769  0.0804 -0.0340 -1.0363
 6111SOL     OW20486   7.428   6.146   4.417  0.7283  0.1752  0.5403
 6111SOL    HW120487   7.441   6.173   4.508  0.4364  0.6317  0.4526
 6111SOL    HW220488   7.394   6.057   4.422 -1.1091  0.8505  0.9684
 6112SOL     OW20489   7.293   0.108   9.369 -0.3850 -1.1773  0.3801
 6112SOL    HW120490   7.233   0.182   9.384  2.5370  1.5860 -0.5018
 6112SOL    HW220491   7.337   0.096   9.454  1.0773  0.0549 -0.1572
 6113SOL     OW20492   7.847   2.066   2.958 -0.3122  0.3519  0.6457
 6113SOL    HW120493   7.942   2.070   2.955 -0.3242  0.0987 -0.3166
 6113SOL    HW220494   7.826   2.073   3.052  0.6662 -0.0976  0.9140
 6114SOL     OW20495   6.674   6.962   8.181  0.0921 -0.0524 -0.0081
 6114SOL    HW120496   6.757   6.924   8.155  0.1708  0.5521 -0.6753
 6114SOL    HW220497   6.678   7.053   8.150 -0.7937 -0.0047 -0.0157
 6115SOL     OW20498   6.476   4.170   8.584  0.5102 -0.5696  0.2615
 6115SOL    HW120499   6.449   4.193   8.673 -0.8242 -0.3393 -0.1835
 6115SOL    HW220500   6.438   4.237   8.528  0.2433 -1.4246 -0.6141
 6116SOL     OW20501   6.417   4.510   7.604  0.3314  0.2248 -0.3415
 6116SOL    HW120502   6.435   4.442   7.539  0.3018 -0.2571  0.1522
 6116SOL    HW220503   6.441   4.592   7.560  0.8733 -0.1495 -0.7575
 6117SOL     OW20504   5.017   3.239   2.804 -0.1359 -0.2610  1.3894
 6117SOL    HW120505   5.053   3.260   2.718  0.6829  0.0309  1.7949
 6117SOL    HW220506   5.092   3.244   2.864 -0.3634 -1.9374  1.8944
 6118SOL     OW20507   2.881   7.790   5.278  0.4855 -0.3683 -0.1009
 6118SOL    HW120508   2.862   7.852   5.349  1.5330  1.5704 -1.4324
 6118SOL    HW220509   2.852   7.705   5.313  0.4985  0.5688  2.4399
 6119SOL     OW20510   0.748   5.936   8.890 -0.1105 -0.6476 -0.7641
 6119SOL    HW120511   0.804   5.865   8.858 -0.2647 -0.9726 -0.3215
 6119SOL    HW220512   0.709   5.973   8.810 -0.9294 -1.8185 -0.9401
 6120SOL     OW20513   7.521   5.031   8.427  0.3704 -0.0575 -0.3923
 6120SOL    HW120514   7.586   4.997   8.366  1.2867 -1.5745  1.3425
 6120SOL    HW220515   7.497   4.956   8.481 -0.2098  1.2717  1.2783
 6121SOL     OW20516   0.686   4.889   8.477  0.9480  0.1787  0.1413
 6121SOL    HW120517   0.663   4.965   8.530 -0.7323 -0.5236  0.5099
 6121SOL    HW220518   0.746   4.838   8.531  1.2498  0.7247  0.3182
 6122SOL     OW20519   1.017   3.069   8.701 -0.2129 -0.5388  0.0947
 6122SOL    HW120520   1.106   3.064   8.667 -0.7054 -1.7777 -1.0633
 6122SOL    HW220521   0.987   2.978   8.706 -1.3658 -0.1533  0.6032
 6123SOL     OW20522   9.584   1.591   9.146  0.0969  0.3603  0.1528
 6123SOL    HW120523   9.542   1.598   9.060 -1.6736 -0.3029  0.9119
 6123SOL    HW220524   9.556   1.670   9.193 -0.4740 -0.1795  0.7330
 6124SOL     OW20525   2.530   3.857   8.128 -0.8774  0.2631  0.3576
 6124SOL    HW120526   2.571   3.918   8.189 -0.0149  1.6464 -1.4988
 6124SOL    HW220527   2.440   3.848   8.160 -0.3352  0.6023  2.0446
 6125SOL     OW20528   2.361   3.971   1.315  0.4205  0.5076 -0.0908
 6125SOL    HW120529   2.276   3.989   1.274  0.0489 -0.3976  0.2433
 6125SOL    HW220530   2.340   3.954   1.407  0.8453 -0.5307 -0.1724
 6126SOL     OW20531   0.381   9.257   7.319 -0.1795 -0.0526 -0.8312
 6126SOL    HW120532   0.293   9.231   7.346 -0.4725 -0.5354 -2.1621
 6126SOL    HW220533   0.390   9.348   7.349 -1.3314  0.1847 -1.1672
 6127SOL     OW20534   3.834   8.833   0.394  0.6754 -0.0028  0.5474
 6127SOL    HW120535   3.798   8.817   0.481  1.9494 -1.2989  0.8679
 6127SOL    HW220536   3.856   8.926   0.394 -1.1167  0.4711  0.8876
 6128SOL     OW20537   6.131   4.838   4.349  0.0716 -0.3115 -0.3238
 6128SOL    HW120538   6.067   4.903   4.377 -0.2049 -0.4067 -0.7313
 6128SOL    HW220539   6.176   4.879   4.275  2.5673  1.0067  1.7502
 6129SOL     OW20540   8.186   6.469   9.371  0.2369 -0.1846  0.4031
 6129SOL    HW120541   8.263   6.414   9.386  1.0634  1.3261  2.1120
 6129SOL    HW220542   8.131   6.456   9.449 -0.3485  0.1353  0.0532
 6130SOL     OW20543   3.702   8.629   9.451 -0.1702  0.1183 -0.3385
 6130SOL    HW120544   3.753   8.683   9.511  0.1517 -1.9095  1.2834
 6130SOL    HW220545   3.745   8.641   9.366  1.5196  0.3120  0.5161
 6131SOL     OW20546   9.513   0.600   0.359 -0.0707  0.0641  0.5952
 6131SOL    HW120547   9.597   0.645   0.372 -0.4763  2.1823 -2.6528
 6131SOL    HW220548   9.447   0.670   0.367 -1.1774 -0.8300 -0.2930
 6132SOL     OW20549   8.505   4.545   5.883  0.2783  0.5622 -0.1328
 6132SOL    HW120550   8.562   4.577   5.952  0.4415  2.2702 -1.0187
 6132SOL    HW220551   8.558   4.479   5.837 -0.6254 -2.4057  2.6887
 6133SOL     OW20552   8.613   7.764   4.590 -0.3601 -0.0490 -0.1095
 6133SOL    HW120553   8.666   7.838   4.559  0.3336 -0.4032  0.2187
 6133SOL    HW220554   8.568   7.798   4.667  1.8529 -0.6437  1.5540
 6134SOL     OW20555   6.086   4.830   1.360  0.4418 -0.3591  0.0028
 6134SOL    HW120556   6.015   4.813   1.422 -0.4187  0.2980 -0.7659
 6134SOL    HW220557   6.072   4.765   1.290  1.5293 -1.2342  0.5644
 6135SOL     OW20558   0.400   5.892   2.558  0.5509  0.1797  0.1433
 6135SOL    HW120559   0.381   5.827   2.490  0.3310  0.0489  0.3278
 6135SOL    HW220560   0.455   5.845   2.621  1.0841  0.4143 -0.1370
 6136SOL     OW20561   2.260   8.880   0.206  0.0142  0.2349  0.5654
 6136SOL    HW120562   2.170   8.850   0.209 -0.2668  1.0723  0.8149
 6136SOL    HW220563   2.274   8.922   0.291  0.0556  1.7187 -0.1437
 6137SOL     OW20564   8.464   7.604   2.260 -0.5842 -0.7220 -0.1313
 6137SOL    HW120565   8.373   7.606   2.292  0.0364 -1.7059  1.9057
 6137SOL    HW220566   8.516   7.590   2.339  1.3198 -0.7364 -1.3318
 6138SOL     OW20567   2.010   3.863   6.973 -0.1012 -0.4287  0.4341
 6138SOL    HW120568   1.934   3.808   6.953 -0.6267  0.3130  0.3199
 6138SOL    HW220569   2.085   3.806   6.962 -0.6626 -1.2552  0.8216
 6139SOL     OW20570   3.266   5.400   1.656  0.2680  0.0492  0.7402
 6139SOL    HW120571   3.269   5.319   1.706 -0.9209  0.6338  1.7977
 6139SOL    HW220572   3.211   5.380   1.580 -0.7788  0.0940  1.4682
 6140SOL     OW20573   0.257   0.070   6.291  0.8033  0.2938 -0.5738
 6140SOL    HW120574   0.303   0.129   6.350  3.3617  0.5851 -2.7124
 6140SOL    HW220575   0.284  -0.017   6.318  1.1639  0.3697 -0.6886
 6141SOL     OW20576   8.844   1.356   7.349  0.1643 -0.3317  0.1765
 6141SOL    HW120577   8.828   1.301   7.426 -1.3004 -0.1725  0.0193
 6141SOL    HW220578   8.761   1.400   7.333 -0.6947 -2.8112 -3.4582
 6142SOL     OW20579   5.946   4.287   1.516  0.4110 -0.0522 -0.2583
 6142SOL    HW120580   5.865   4.321   1.554 -0.1020  0.1733 -1.5058
 6142SOL    HW220581   6.016   4.337   1.559 -0.2354  1.3777 -0.7983
 6143SOL     OW20582   8.031   4.580   1.253 -0.0678 -0.1010 -0.4237
 6143SOL    HW120583   8.060   4.489   1.265 -0.8024 -0.0866  2.1697
 6143SOL    HW220584   8.100   4.621   1.202  1.6736 -1.4554  0.7292
 6144SOL     OW20585   7.091   5.219   4.135 -0.5261  0.5120  0.7845
 6144SOL    HW120586   7.066   5.299   4.180 -2.0054  0.2341  0.5084
 6144SOL    HW220587   7.056   5.148   4.189  1.6577 -0.0408  1.5802
 6145SOL     OW20588   8.211   6.545   0.151  0.7675  0.4718 -0.2172
 6145SOL    HW120589   8.175   6.532   0.239  1.9750 -1.5445  0.0148
 6145SOL    HW220590   8.209   6.640   0.139  0.6923  0.8071  2.0325
 6146SOL     OW20591   3.927   3.690   3.925  0.5538 -0.3063 -0.2550
 6146SOL    HW120592   3.832   3.701   3.916  0.5901 -0.6943 -1.2522
 6146SOL    HW220593   3.959   3.777   3.947  0.1416  0.2091 -1.6160
 6147SOL     OW20594   5.755   0.205   8.904  0.6435  0.8393 -0.4144
 6147SOL    HW120595   5.679   0.155   8.933  0.3822  1.2369 -0.4176
 6147SOL    HW220596   5.731   0.240   8.819 -0.1389  3.0408  0.6466
 6148SOL     OW20597   7.714   9.259   1.045 -0.3332 -0.3864 -0.0246
 6148SOL    HW120598   7.671   9.335   1.005  0.4377 -0.2268 -0.5663
 6148SOL    HW220599   7.794   9.293   1.084 -1.7656 -0.2430  3.1101
 6149SOL     OW20600   3.122   7.259   1.388  0.9438 -0.3312 -0.4893
 6149SOL    HW120601   3.031   7.231   1.380  0.7733  0.4468 -1.5068
 6149SOL    HW220602   3.172   7.178   1.389  0.2186 -0.7830  0.5349
 6150SOL     OW20603   0.546   4.629   0.233  0.0753 -0.0481 -0.0259
 6150SOL    HW120604   0.566   4.673   0.316  1.0183 -0.8614  0.1915
 6150SOL    HW220605   0.457   4.596   0.244  0.4311 -0.7229  0.9339
 6151SOL     OW20606   6.866   0.107   6.550 -0.2908 -0.1050  0.3718
 6151SOL    HW120607   6.862   0.116   6.455  0.5070  0.2732  0.3624
 6151SOL    HW220608   6.959   0.090   6.568 -0.7165 -2.0969  0.9295
 6152SOL     OW20609   6.504   6.944   3.332 -0.0106 -0.0540  0.0058
 6152SOL    HW120610   6.567   7.011   3.358  1.5767 -1.5646  0.2826
 6152SOL    HW220611   6.510   6.942   3.236  0.5229 -0.3111  0.0392
 6153SOL     OW20612   3.445   2.429   1.573 -0.8567 -0.0573  0.0374
 6153SOL    HW120613   3.469   2.510   1.620 -0.1168 -1.6773  2.6861
 6153SOL    HW220614   3.350   2.433   1.566 -0.7932  1.3325 -0.5362
 6154SOL     OW20615   2.472   5.613   0.655  0.6042 -0.1408 -0.2305
 6154SOL    HW120616   2.437   5.612   0.744 -0.2023 -3.1240 -0.4776
 6154SOL    HW220617   2.396   5.632   0.600  0.7911  0.1634 -0.3870
 6155SOL     OW20618   8.900   0.438   6.166  0.1378  0.8729 -0.6061
 6155SOL    HW120619   8.962   0.373   6.198 -1.3435 -0.6668 -0.7142
 6155SOL    HW220620   8.873   0.486   6.244  1.3582  1.4919 -0.5461
 6156SOL     OW20621   6.383   7.792   8.771  0.3433  0.0980 -0.1494
 6156SOL    HW120622   6.302   7.790   8.719 -0.4960  2.5651  0.9309
 6156SOL    HW220623   6.370   7.725   8.838 -0.0748 -0.6427 -0.9445
 6157SOL     OW20624   4.210   0.469   1.712  0.0410  0.0947 -0.1489
 6157SOL    HW120625   4.287   0.422   1.742  0.6590  1.0557 -0.1676
 6157SOL    HW220626   4.202   0.447   1.619  0.4743  0.2301 -0.2179
 6158SOL     OW20627   1.908   0.878   1.890  0.0818  0.3099  0.1873
 6158SOL    HW120628   1.890   0.921   1.806  0.6805  0.5888  0.1988
 6158SOL    HW220629   1.930   0.788   1.867 -1.8355 -0.2033  0.2102
 6159SOL     OW20630   4.536   7.860   3.990  0.2373  0.2248 -0.4801
 6159SOL    HW120631   4.538   7.927   4.059  1.3490 -2.2453  2.1060
 6159SOL    HW220632   4.623   7.821   3.993 -0.1902 -0.9541 -2.3221
 6160SOL     OW20633   1.134   6.427   1.943  0.2416  0.0097 -0.0734
 6160SOL    HW120634   1.072   6.356   1.927 -0.4852  0.5072  0.4407
 6160SOL    HW220635   1.219   6.385   1.945  0.0037 -0.5890 -1.5014
 6161SOL     OW20636   9.337   1.857   0.125 -0.0946 -0.0863 -0.0022
 6161SOL    HW120637   9.242   1.870   0.124 -0.5357 -2.7206 -2.1380
 6161SOL    HW220638   9.369   1.904   0.048  0.0351 -0.9589 -0.4858
 6162SOL     OW20639   3.963   7.845   6.548 -0.5681  0.1811 -0.1884
 6162SOL    HW120640   3.888   7.866   6.603  1.4246  2.8080  1.8406
 6162SOL    HW220641   3.963   7.913   6.480 -0.7846 -0.6675 -1.0648
 6163SOL     OW20642   5.462   1.277   0.724 -0.1418 -0.4288  0.1744
 6163SOL    HW120643   5.415   1.358   0.700  1.2903  0.6176  0.7554
 6163SOL    HW220644   5.458   1.223   0.645 -0.3906  0.5776 -0.5211
 6164SOL     OW20645   7.233   7.905   8.331 -0.2564 -0.3073 -0.7725
 6164SOL    HW120646   7.280   7.824   8.313  1.9042  0.7592 -0.2066
 6164SOL    HW220647   7.141   7.883   8.315  0.0391 -3.3322  0.9652
 6165SOL     OW20648   5.046   3.738   8.589 -0.3561 -0.1217 -0.3835
 6165SOL    HW120649   5.008   3.807   8.643 -1.6538 -0.4253 -0.8731
 6165SOL    HW220650   5.008   3.657   8.623  0.2808 -0.4916 -0.5368
 6166SOL     OW20651   6.227   3.840   5.572 -0.4218  0.1979 -0.6765
 6166SOL    HW120652   6.185   3.767   5.616  0.1311  0.3654  0.1495
 6166SOL    HW220653   6.196   3.835   5.481 -2.2492  0.3590 -0.0966
 6167SOL     OW20654   9.419   4.666   9.110  0.4506 -0.5303  0.1617
 6167SOL    HW120655   9.392   4.715   9.032  0.8528 -0.3033  0.1630
 6167SOL    HW220656   9.487   4.606   9.078 -1.1919 -2.3165 -0.1948
 6168SOL     OW20657   4.284   8.053   0.873  0.1905 -0.2426 -0.1764
 6168SOL    HW120658   4.194   8.060   0.842 -0.2727  0.5862  1.2563
 6168SOL    HW220659   4.338   8.071   0.796 -0.8954  1.1880 -0.6305
 6169SOL     OW20660   6.690   7.046   4.873 -0.0221  0.4258  0.1272
 6169SOL    HW120661   6.754   7.043   4.802  0.3164  1.5396  0.3598
 6169SOL    HW220662   6.725   7.111   4.934 -1.2846  0.9323  0.3412
 6170SOL     OW20663   0.900   5.984   4.665  0.6326 -0.6505 -0.4116
 6170SOL    HW120664   0.928   5.941   4.584  1.1064 -0.7270 -0.2101
 6170SOL    HW220665   0.859   6.066   4.635  0.5999 -0.7845 -0.7380
 6171SOL     OW20666   3.119   0.252   6.168 -0.5319 -0.9626 -0.0386
 6171SOL    HW120667   3.055   0.236   6.237 -1.1786  0.2555 -0.3306
 6171SOL    HW220668   3.192   0.194   6.189 -1.0486 -1.1863  1.2232
 6172SOL     OW20669   4.450   6.097   1.063 -0.1591  0.3428 -0.2421
 6172SOL    HW120670   4.529   6.150   1.051 -0.0748  0.7073  1.5965
 6172SOL    HW220671   4.379   6.153   1.029  0.0967  1.0453  0.3520
 6173SOL     OW20672   4.064   8.566   2.361 -0.4277 -0.2735 -0.1573
 6173SOL    HW120673   4.024   8.557   2.274 -1.1007 -1.1302  0.2181
 6173SOL    HW220674   4.078   8.660   2.372 -0.7205 -0.1187 -1.0213
 6174SOL     OW20675   2.104   4.294   6.765  0.0305  0.1973  0.2297
 6174SOL    HW120676   2.139   4.242   6.837  0.4773 -0.0200 -0.1410
 6174SOL    HW220677   2.174   4.357   6.745 -0.1321  0.3237  0.0517
 6175SOL     OW20678   7.361   1.626   3.241  0.5245 -0.1822 -0.2286
 6175SOL    HW120679   7.298   1.636   3.170  0.7083 -0.4121 -0.4251
 6175SOL    HW220680   7.441   1.594   3.198  1.0523  0.9285 -0.1095
 6176SOL     OW20681   7.458   0.511   9.429  0.2953 -0.5845  0.3129
 6176SOL    HW120682   7.462   0.424   9.469 -0.3237 -0.5929  0.3614
 6176SOL    HW220683   7.435   0.570   9.500 -0.9158 -0.6149 -0.0276
 6177SOL     OW20684   6.634   5.988   2.784 -0.5551 -0.3318  0.5929
 6177SOL    HW120685   6.679   5.974   2.700 -0.5376 -0.5463  0.6369
 6177SOL    HW220686   6.543   5.965   2.765 -0.5679 -0.2949  0.6105
 6178SOL     OW20687   7.346   1.740   8.408 -0.0662 -0.2381  0.5809
 6178SOL    HW120688   7.351   1.650   8.375 -1.2560  0.1251 -0.7037
 6178SOL    HW220689   7.313   1.731   8.497  1.7690 -1.1634  1.2393
 6179SOL     OW20690   1.450   0.230   9.502 -0.1900  0.0954  0.7209
 6179SOL    HW120691   1.516   0.293   9.473 -0.1218  0.0059  0.6830
 6179SOL    HW220692   1.496   0.146   9.504 -0.6472 -0.2026 -0.5989
 6180SOL     OW20693   7.541   6.215   1.014 -0.0651 -0.6602  0.3455
 6180SOL    HW120694   7.548   6.194   0.921 -0.4426  1.7273 -0.2930
 6180SOL    HW220695   7.626   6.189   1.050 -0.3191 -2.6679 -0.3839
 6181SOL     OW20696   1.068   1.008   6.140 -0.0316  0.2746 -0.4270
 6181SOL    HW120697   1.143   0.964   6.180 -1.3429 -1.9119 -0.2071
 6181SOL    HW220698   1.090   1.016   6.048  0.2697 -0.8176 -0.4570
 6182SOL     OW20699   2.435   1.896   9.288 -0.1374 -0.1747 -0.2390
 6182SOL    HW120700   2.427   1.858   9.201  0.9013  0.2925 -0.5555
 6182SOL    HW220701   2.434   1.990   9.273 -3.2818  0.0380  0.5921
 6183SOL     OW20702   7.154   4.506   1.762  0.3570 -0.1653  0.3396
 6183SOL    HW120703   7.069   4.548   1.754  0.2466 -0.6406 -1.4240
 6183SOL    HW220704   7.197   4.551   1.836 -1.2714  0.2828  1.0469
 6184SOL     OW20705   6.315   0.450   9.010 -0.2664  0.2075 -0.0619
 6184SOL    HW120706   6.330   0.537   9.047 -0.6660  0.0730  0.4348
 6184SOL    HW220707   6.290   0.466   8.919  0.0510  0.5854 -0.0833
 6185SOL     OW20708   3.156   7.829   2.362 -0.1311  0.1221 -0.0550
 6185SOL    HW120709   3.178   7.909   2.313 -1.2228 -0.3233 -1.3224
 6185SOL    HW220710   3.241   7.792   2.386  0.4351  0.5581 -1.2992
 6186SOL     OW20711   0.527   1.736   3.744 -0.0897  1.0880 -0.3278
 6186SOL    HW120712   0.573   1.734   3.660  0.6730  1.4664  0.0720
 6186SOL    HW220713   0.502   1.645   3.760  2.0941  0.5564  0.3011
 6187SOL     OW20714   0.995   6.034   0.948 -0.2317 -0.1082 -0.3405
 6187SOL    HW120715   0.945   6.072   0.875 -0.1701 -2.6412 -1.8051
 6187SOL    HW220716   0.934   5.974   0.991 -0.2873  1.3739  1.8258
 6188SOL     OW20717   8.792   9.564   0.845  0.2264  0.1943  0.2556
 6188SOL    HW120718   8.872   9.578   0.793 -0.1862 -0.3712 -0.5551
 6188SOL    HW220719   8.729   9.627   0.809  0.5033  1.1484  1.3784
 6189SOL     OW20720   5.567   2.220   8.802  0.1585  0.8883 -0.1037
 6189SOL    HW120721   5.495   2.199   8.743 -0.2018  1.8769 -0.0372
 6189SOL    HW220722   5.639   2.243   8.744  0.4253 -0.0984 -0.1701
 6190SOL     OW20723   1.046   0.779   9.398 -0.3484  0.2396  0.2091
 6190SOL    HW120724   1.087   0.693   9.398 -0.4644  0.1834 -0.1531
 6190SOL    HW220725   0.964   0.768   9.445 -0.7919 -0.0555 -0.6187
 6191SOL     OW20726   6.837   7.701   5.333 -0.2310 -0.3320 -0.0810
 6191SOL    HW120727   6.759   7.756   5.331 -0.5777 -0.7765  0.6429
 6191SOL    HW220728   6.863   7.700   5.425  0.5352 -0.3181 -0.2928
 6192SOL     OW20729   8.747   2.277   4.176  0.3070 -0.1125 -0.1723
 6192SOL    HW120730   8.717   2.217   4.107 -0.4611 -1.2430  1.0787
 6192SOL    HW220731   8.744   2.224   4.256 -2.2171  2.0446  1.3415
 6193SOL     OW20732   4.179   9.240   3.650  0.0104  0.7464 -0.3087
 6193SOL    HW120733   4.272   9.229   3.669 -0.3114 -0.8125  0.5567
 6193SOL    HW220734   4.177   9.290   3.568  1.5865  1.0688 -0.1852
 6194SOL     OW20735   3.012   8.094   8.859  0.7688  0.4155  0.2511
 6194SOL    HW120736   3.107   8.099   8.851  0.7146  1.1694 -0.0329
 6194SOL    HW220737   2.980   8.110   8.771  0.3819 -0.0301  0.3099
 6195SOL     OW20738   5.228   9.451   6.341 -0.0967 -0.0526 -0.1674
 6195SOL    HW120739   5.320   9.451   6.316  0.1535  0.4292  0.7320
 6195SOL    HW220740   5.190   9.523   6.290  0.6790  1.7823  1.6897
 6196SOL     OW20741   6.755   4.504   7.803  0.5917  0.2531 -0.0627
 6196SOL    HW120742   6.664   4.525   7.826 -0.1179  0.1177 -2.4542
 6196SOL    HW220743   6.806   4.576   7.840 -0.6361  0.9604  0.3239
 6197SOL     OW20744   1.422   9.441   3.533  0.3629 -0.2438  0.5421
 6197SOL    HW120745   1.348   9.384   3.511  0.5618 -1.3657  2.6116
 6197SOL    HW220746   1.412   9.459   3.626  1.5204  1.3872  0.3925
 6198SOL     OW20747   2.917   9.180   4.492 -0.2096 -0.3783  0.2303
 6198SOL    HW120748   2.955   9.094   4.473  1.0644  0.1884  0.0983
 6198SOL    HW220749   2.881   9.172   4.580  1.0526 -0.6913  0.7388
 6199SOL     OW20750   5.862   3.900   7.268 -0.3493  0.0050  0.1685
 6199SOL    HW120751   5.852   3.941   7.353 -1.4411 -1.4963  0.8091
 6199SOL    HW220752   5.796   3.830   7.266 -1.3285  0.8697 -2.4611
 6200SOL     OW20753   8.030   5.506   8.217  0.3277 -0.1575  0.2380
 6200SOL    HW120754   8.123   5.483   8.215  0.2312 -0.5497  0.2440
 6200SOL    HW220755   8.030   5.602   8.218  0.6911 -0.0162 -2.9693
 6201SOL     OW20756   3.953   3.821   1.413  0.2929 -0.7573  0.5634
 6201SOL    HW120757   4.030   3.821   1.356  0.6134  0.2757  0.9693
 6201SOL    HW220758   3.914   3.735   1.400  0.8981 -0.8998 -0.4836
 6202SOL     OW20759   0.522   0.599   7.730  0.2386  0.1117  0.3304
 6202SOL    HW120760   0.587   0.538   7.695  0.4238  0.8533 -0.6751
 6202SOL    HW220761   0.529   0.676   7.674 -0.6702  0.6776  0.9645
 6203SOL     OW20762   8.707   4.396   5.533  0.4360 -0.3529 -0.0053
 6203SOL    HW120763   8.707   4.491   5.543  0.5739 -0.5467  2.6390
 6203SOL    HW220764   8.794   4.376   5.499  0.2293  0.4844 -1.0731
 6204SOL     OW20765   4.074   5.537   0.474  0.5808 -0.1012 -0.0266
 6204SOL    HW120766   4.036   5.543   0.387  1.5068  0.0208 -0.4306
 6204SOL    HW220767   4.093   5.444   0.486 -0.9309 -0.3435  0.6599
 6205SOL     OW20768   8.750   2.727   9.267  0.0016 -0.1294 -0.0586
 6205SOL    HW120769   8.675   2.734   9.327 -0.6290 -1.2804 -0.6660
 6205SOL    HW220770   8.747   2.807   9.215 -1.6690 -0.7541 -1.0012
 6206SOL     OW20771   0.725   7.281   6.020  0.1651  0.4557 -0.7635
 6206SOL    HW120772   0.797   7.219   6.029 -0.0815  0.3373  0.5198
 6206SOL    HW220773   0.684   7.257   5.937  0.5471 -0.5942 -0.6671
 6207SOL     OW20774   6.919   3.875   1.552  0.1140 -0.2565  0.3206
 6207SOL    HW120775   6.961   3.846   1.471  0.0975  0.4153  0.0577
 6207SOL    HW220776   6.846   3.816   1.565  0.0451 -0.2923 -0.2261
 6208SOL     OW20777   9.609   0.914   5.441 -0.7589 -0.4501 -0.1736
 6208SOL    HW120778   9.617   0.822   5.417 -1.7378 -1.0710  1.7014
 6208SOL    HW220779   9.553   0.915   5.519  0.1449  1.6116  0.5575
 6209SOL     OW20780   6.884   3.017   4.562  0.1401 -0.3634  0.3094
 6209SOL    HW120781   6.974   3.047   4.571  0.4719 -1.6950  1.8523
 6209SOL    HW220782   6.888   2.950   4.493 -0.1427  1.1760 -1.2851
 6210SOL     OW20783   1.945   8.668   7.472  0.1210  0.0380 -0.0452
 6210SOL    HW120784   1.858   8.682   7.510 -0.4968  1.5527 -1.8371
 6210SOL    HW220785   2.001   8.730   7.519  0.7610 -2.2876  2.4815
 6211SOL     OW20786   1.849   7.690   7.636  0.2068 -0.0133 -0.0282
 6211SOL    HW120787   1.809   7.672   7.721 -2.0948 -1.8958 -1.3918
 6211SOL    HW220788   1.887   7.607   7.609 -0.8090  0.0215 -1.6634
 6212SOL     OW20789   8.688   5.598   0.073  0.7703 -0.3050 -0.4013
 6212SOL    HW120790   8.640   5.571   0.151  1.0229 -0.0170 -0.1399
 6212SOL    HW220791   8.714   5.689   0.092  1.7500 -0.5770 -0.3605
 6213SOL     OW20792   9.426   1.877   4.320 -0.5008 -0.0649 -0.4792
 6213SOL    HW120793   9.519   1.855   4.329 -0.4252  0.4092 -0.0928
 6213SOL    HW220794   9.408   1.938   4.391 -0.2766  2.5582 -2.5377
 6214SOL     OW20795   8.301   9.134   6.078  0.2694 -0.2275  0.1420
 6214SOL    HW120796   8.232   9.070   6.058  0.3471 -0.6600  1.1941
 6214SOL    HW220797   8.349   9.143   5.996 -1.1246  0.1997 -0.6684
 6215SOL     OW20798   4.898   1.995   8.613  0.1284 -0.1799 -0.4186
 6215SOL    HW120799   4.832   2.032   8.671  0.0982  0.0131 -0.5760
 6215SOL    HW220800   4.848   1.951   8.544  0.1616 -1.0471  0.1021
 6216SOL     OW20801   6.597   1.842   2.918  0.2562 -0.0599 -0.0460
 6216SOL    HW120802   6.625   1.823   3.008 -0.0916  0.4359  0.1737
 6216SOL    HW220803   6.643   1.924   2.896  2.1170 -1.3150 -1.1497
 6217SOL     OW20804   1.820   0.558   0.421 -0.0201 -0.2406  0.4685
 6217SOL    HW120805   1.738   0.560   0.470  0.2591 -0.8236  0.9728
 6217SOL    HW220806   1.855   0.647   0.430 -0.6613  0.0470  0.1309
 6218SOL     OW20807   4.567   2.304   9.015  0.3702 -0.2045  0.0157
 6218SOL    HW120808   4.559   2.223   9.065 -1.7525  1.3685  2.5122
 6218SOL    HW220809   4.662   2.316   9.004  0.7722 -3.7391 -1.9631
 6219SOL     OW20810   7.524   1.952   1.459 -0.2098  0.3182  0.1078
 6219SOL    HW120811   7.504   1.951   1.365  0.5983 -0.7857 -0.0704
 6219SOL    HW220812   7.607   1.905   1.466  0.9093  2.2965  1.1461
 6220SOL     OW20813   5.624   6.303   7.758  0.5383 -0.0794 -0.0651
 6220SOL    HW120814   5.538   6.264   7.741 -0.1410  0.2233  2.3685
 6220SOL    HW220815   5.610   6.397   7.744  0.6203 -0.0794 -0.1506
 6221SOL     OW20816   3.733   9.567   6.597 -0.1033  0.0714 -0.1422
 6221SOL    HW120817   3.699   9.487   6.637 -0.2210 -0.2789 -0.9263
 6221SOL    HW220818   3.781   9.611   6.667 -3.3044  1.3291  1.4569
 6222SOL     OW20819   3.994   6.233   8.962  0.2725  0.2377  0.3958
 6222SOL    HW120820   3.958   6.271   8.882  0.1751 -0.6417  0.0104
 6222SOL    HW220821   3.918   6.213   9.016  0.1504 -1.4002 -0.3195
 6223SOL     OW20822   8.987   7.278   5.774 -0.0589  0.1557  0.0897
 6223SOL    HW120823   9.040   7.324   5.708 -0.2899 -1.0327 -0.9601
 6223SOL    HW220824   9.030   7.194   5.785 -0.5084  0.0146  0.8512
 6224SOL     OW20825   7.869   5.542   8.449  0.5265  0.1349  0.2106
 6224SOL    HW120826   7.858   5.613   8.385 -0.0576  0.5262  0.7310
 6224SOL    HW220827   7.820   5.469   8.412 -0.3117  0.5453  0.4797
 6225SOL     OW20828   3.575   6.698   7.650 -0.4042 -0.0899  0.0297
 6225SOL    HW120829   3.615   6.778   7.684 -0.4671  1.1846 -2.6351
 6225SOL    HW220830   3.481   6.709   7.668 -0.1747 -0.8047  1.9037
 6226SOL     OW20831   2.137   4.553   9.201  0.5148 -0.2738 -0.1196
 6226SOL    HW120832   2.133   4.594   9.288 -1.3824 -0.3584 -0.1203
 6226SOL    HW220833   2.132   4.459   9.219 -0.6663 -0.2610 -0.3387
 6227SOL     OW20834   2.667   9.244   3.158 -0.7804 -0.4771 -0.4884
 6227SOL    HW120835   2.655   9.238   3.064 -0.0069 -0.9704 -0.5654
 6227SOL    HW220836   2.591   9.294   3.189 -1.4699 -1.0184 -1.2622
 6228SOL     OW20837   5.669   7.284   7.644  0.1689 -0.5978 -0.2596
 6228SOL    HW120838   5.673   7.188   7.644 -0.9750 -0.7485  2.6193
 6228SOL    HW220839   5.580   7.304   7.672  0.7977  1.2907  0.5455
 6229SOL     OW20840   6.268   5.391   3.568  0.1325  0.2901  0.2462
 6229SOL    HW120841   6.219   5.464   3.531  0.8569  0.4451 -0.4305
 6229SOL    HW220842   6.356   5.400   3.532  0.1586 -1.0749 -0.0878
 6230SOL     OW20843   9.599   6.910   2.428 -0.0002  0.8525 -0.0195
 6230SOL    HW120844   9.516   6.865   2.412  0.2608 -0.9995  3.0405
 6230SOL    HW220845   9.664   6.840   2.431  1.4615  2.1118 -0.8963
 6231SOL     OW20846   2.848   7.330   6.180  0.1060  0.0234 -0.0674
 6231SOL    HW120847   2.821   7.253   6.129 -0.1139 -1.7038  2.4868
 6231SOL    HW220848   2.769   7.382   6.190 -0.2181 -0.4627 -0.1003
 6232SOL     OW20849   1.795   5.753   1.577 -0.3168  0.4032  0.0532
 6232SOL    HW120850   1.883   5.776   1.608 -0.4796  0.9940  0.0955
 6232SOL    HW220851   1.739   5.821   1.615 -1.2903 -1.6677  2.6897
 6233SOL     OW20852   3.717   6.459   5.933 -0.4944 -0.0914  0.2292
 6233SOL    HW120853   3.649   6.393   5.921 -0.5101  0.1684 -1.3446
 6233SOL    HW220854   3.798   6.409   5.937 -0.3244 -0.1964 -2.6395
 6234SOL     OW20855   0.221   6.283   3.129  0.4605  0.4847  0.9391
 6234SOL    HW120856   0.140   6.233   3.133  2.1021 -2.2934  2.5434
 6234SOL    HW220857   0.251   6.273   3.039 -1.8904  3.4136 -0.3563
 6235SOL     OW20858   7.839   8.692   3.753 -1.0307 -0.2828  0.2906
 6235SOL    HW120859   7.857   8.780   3.788 -1.6803  0.8277 -1.9685
 6235SOL    HW220860   7.926   8.654   3.740 -0.7514 -0.3020  1.9429
 6236SOL     OW20861   2.939   5.213   2.898 -0.2144  0.2454  0.1290
 6236SOL    HW120862   2.870   5.186   2.838  1.6283  0.4178 -2.2095
 6236SOL    HW220863   2.983   5.286   2.854  1.6134 -0.0109  1.3972
 6237SOL     OW20864   4.780   1.591   3.573  0.4124  0.1448 -0.0517
 6237SOL    HW120865   4.818   1.631   3.651  0.1341  0.6820 -0.1813
 6237SOL    HW220866   4.705   1.647   3.552  0.7924  0.3163 -1.0079
 6238SOL     OW20867   4.796   7.797   1.901 -0.0293 -0.0073 -0.0150
 6238SOL    HW120868   4.711   7.798   1.944  1.0409 -0.9653  2.2791
 6238SOL    HW220869   4.810   7.706   1.877  0.7010 -0.0258  0.4466
 6239SOL     OW20870   2.708   2.442   8.228  0.1702 -0.2805 -0.8951
 6239SOL    HW120871   2.717   2.350   8.255  0.9445 -0.4858 -1.7965
 6239SOL    HW220872   2.781   2.456   8.168  0.6416  1.2160 -0.0250
 6240SOL     OW20873   8.186   8.226   1.127  0.1279 -0.6013  0.5784
 6240SOL    HW120874   8.262   8.283   1.117 -0.7814  0.3464 -1.5754
 6240SOL    HW220875   8.111   8.286   1.135 -0.5030 -1.5108  1.8378
 6241SOL     OW20876   1.166   0.754   0.664 -0.2096 -0.0210 -0.2946
 6241SOL    HW120877   1.111   0.705   0.725  1.0314  0.6374  1.4678
 6241SOL    HW220878   1.164   0.704   0.583  0.7565 -2.8652  1.2983
 6242SOL     OW20879   5.593   3.333   0.413  0.0352 -0.1702  0.1978
 6242SOL    HW120880   5.502   3.324   0.385  0.0508  0.7509 -0.1786
 6242SOL    HW220881   5.599   3.278   0.492 -1.0114  0.2677  0.6003
 6243SOL     OW20882   0.949   0.757   1.864  0.6688 -0.6300 -0.1607
 6243SOL    HW120883   1.019   0.770   1.801  0.1119 -0.2328 -0.7111
 6243SOL    HW220884   0.971   0.675   1.908  0.9012 -1.0786 -1.0877
 6244SOL     OW20885   1.014   3.697   3.584 -0.1688 -0.3262  0.1446
 6244SOL    HW120886   1.089   3.756   3.576 -0.4265  0.0432  0.4108
 6244SOL    HW220887   1.050   3.610   3.568  0.2218 -0.0987 -0.2327
 6245SOL     OW20888   2.099   0.655   9.410 -0.1428 -0.0823  0.0707
 6245SOL    HW120889   2.100   0.691   9.499 -0.5702  1.7699 -0.6077
 6245SOL    HW220890   2.165   0.706   9.363  2.3391 -3.1266 -0.0022
 6246SOL     OW20891   6.537   7.836   6.785  0.2711  0.5675  0.0295
 6246SOL    HW120892   6.445   7.843   6.760  0.3185  2.0250  0.1643
 6246SOL    HW220893   6.567   7.927   6.793  2.2715  0.1655 -1.9512
 6247SOL     OW20894   7.820   2.468   4.964 -0.5414 -0.1533 -0.1043
 6247SOL    HW120895   7.751   2.443   5.025 -0.3481 -0.3880  0.0192
 6247SOL    HW220896   7.782   2.451   4.878  0.2372 -2.7731 -0.0383
 6248SOL     OW20897   7.981   4.027   2.342  0.0745 -0.6333 -0.3154
 6248SOL    HW120898   7.908   3.996   2.395 -0.2152  0.7253  0.1137
 6248SOL    HW220899   8.058   4.017   2.398 -0.0066 -0.6336 -0.2043
 6249SOL     OW20900   1.489   7.798   0.023  0.0059  0.0015 -0.2291
 6249SOL    HW120901   1.506   7.836   0.110 -0.7288 -1.7744  0.7393
 6249SOL    HW220902   1.522   7.708   0.029 -4.4845 -1.9099  0.0159
 6250SOL     OW20903   6.127   1.039   2.842  0.1096 -0.2924  0.0927
 6250SOL    HW120904   6.139   1.057   2.935 -0.7004 -0.7226  0.2939
 6250SOL    HW220905   6.045   0.990   2.838 -0.0295  0.0099 -0.8859
 6251SOL     OW20906   5.144   6.689   6.791 -0.3572  0.0063  0.0251
 6251SOL    HW120907   5.120   6.598   6.807  0.8819 -0.4539 -0.6104
 6251SOL    HW220908   5.096   6.713   6.712 -0.3386 -0.2471 -0.0631
 6252SOL     OW20909   2.708   9.531   5.208 -0.0895  0.0536  0.5486
 6252SOL    HW120910   2.790   9.564   5.246 -0.0707  0.0610  0.5011
 6252SOL    HW220911   2.689   9.591   5.136  0.1381 -0.2515  0.2295
 6253SOL     OW20912   3.367   0.226   4.911  0.1394  0.5506  0.1218
 6253SOL    HW120913   3.416   0.169   4.852 -1.2864 -0.6681  0.0463
 6253SOL    HW220914   3.289   0.175   4.934 -0.5241  1.9571  1.1414
 6254SOL     OW20915   0.206   2.339   8.673  0.2254 -0.3707  0.3182
 6254SOL    HW120916   0.207   2.253   8.631 -0.6559  0.6567 -1.9335
 6254SOL    HW220917   0.114   2.363   8.676  0.4164  0.2906  1.4278
 6255SOL     OW20918   3.368   1.414   7.604 -0.2939 -0.2014 -0.3661
 6255SOL    HW120919   3.439   1.412   7.540  0.2225  0.4398  0.1576
 6255SOL    HW220920   3.301   1.355   7.569  0.3637 -0.5675 -1.0287
 6256SOL     OW20921   1.692   5.866   3.065 -0.6733 -0.6563  0.0565
 6256SOL    HW120922   1.732   5.944   3.025  2.5201 -2.1533 -0.0276
 6256SOL    HW220923   1.625   5.839   3.002 -1.1707  1.4110 -0.3882
 6257SOL     OW20924   3.683   4.780   9.356  0.5081  0.3175  0.1971
 6257SOL    HW120925   3.647   4.867   9.336 -0.0543  0.2378  0.8396
 6257SOL    HW220926   3.773   4.798   9.384  0.5984  0.6311 -0.2752
 6258SOL     OW20927   3.867   8.316   2.389 -0.0576  0.2973  0.6515
 6258SOL    HW120928   3.844   8.345   2.301  1.2572  0.4401  0.3486
 6258SOL    HW220929   3.783   8.287   2.427 -0.5634 -0.2019 -0.7911
 6259SOL     OW20930   2.899   2.538   0.131  0.7337  0.3009 -0.3313
 6259SOL    HW120931   2.858   2.454   0.148 -0.7968  1.4959  2.5363
 6259SOL    HW220932   2.993   2.521   0.134  0.4484 -1.2723  0.2386
 6260SOL     OW20933   8.376   4.342   7.990 -1.0149  0.5704  0.1940
 6260SOL    HW120934   8.336   4.416   8.035 -0.0192  0.5869  1.0961
 6260SOL    HW220935   8.412   4.378   7.909  1.0448  1.5105  1.4373
 6261SOL     OW20936   2.391   2.845   3.581 -0.0608 -0.4258  0.0898
 6261SOL    HW120937   2.424   2.844   3.491 -0.8107  0.5028 -0.2132
 6261SOL    HW220938   2.433   2.770   3.623 -1.6073 -2.4297 -1.7101
 6262SOL     OW20939   3.173   3.547   6.050 -0.0980  0.7205  0.0588
 6262SOL    HW120940   3.085   3.565   6.082  0.4026 -0.0456  2.0557
 6262SOL    HW220941   3.229   3.610   6.096  0.4012  1.3266 -1.3280
 6263SOL     OW20942   1.755   6.069   4.589  0.1034 -0.1662 -0.1741
 6263SOL    HW120943   1.671   6.085   4.546  0.6031  1.5699 -0.5797
 6263SOL    HW220944   1.733   6.019   4.667 -1.3654  0.5858 -0.0744
 6264SOL     OW20945   2.007   0.076   6.485  0.7204  0.1231 -0.3774
 6264SOL    HW120946   2.069   0.004   6.476  0.5535  0.1818 -2.2247
 6264SOL    HW220947   2.058   0.155   6.466  0.3993  0.2980 -0.5245
 6265SOL     OW20948   1.373   2.125   2.160 -0.2025 -0.0514 -0.3428
 6265SOL    HW120949   1.413   2.096   2.242 -0.9055  0.0080  0.0335
 6265SOL    HW220950   1.446   2.155   2.107  0.1325  1.5380  0.9304
 6266SOL     OW20951   3.873   9.103   8.581  0.0178  0.5488  0.1330
 6266SOL    HW120952   3.900   9.181   8.533 -0.2182  1.0429  0.7783
 6266SOL    HW220953   3.821   9.138   8.654 -1.4027 -0.2911 -0.4304
 6267SOL     OW20954   4.532   0.855   7.557  0.0131  0.2753  0.0645
 6267SOL    HW120955   4.611   0.818   7.517 -0.0423 -0.9279  0.9886
 6267SOL    HW220956   4.547   0.949   7.559  0.8700  0.1760 -0.9318
 6268SOL     OW20957   3.465   3.988   8.876  0.2003  0.5388 -0.1594
 6268SOL    HW120958   3.467   3.977   8.781 -0.7796  1.5157 -0.3070
 6268SOL    HW220959   3.557   3.992   8.902  0.5045 -0.8101 -0.9135
 6269SOL     OW20960   3.029   5.419   7.974 -0.6798 -0.1059 -0.1218
 6269SOL    HW120961   3.075   5.439   7.893 -0.6685  1.0280  0.1410
 6269SOL    HW220962   3.003   5.328   7.965 -1.6028  0.2783 -1.8628
 6270SOL     OW20963   9.428   2.816   2.098  0.3186  0.6674 -0.8110
 6270SOL    HW120964   9.436   2.811   2.003 -0.1489 -0.5210 -0.8024
 6270SOL    HW220965   9.334   2.804   2.115  0.5981 -0.7573 -0.1308
 6271SOL     OW20966   9.212   9.482   1.265  0.4904  0.3269 -0.1488
 6271SOL    HW120967   9.162   9.557   1.231  0.2170  0.5764  0.7713
 6271SOL    HW220968   9.192   9.411   1.203  0.6088  0.9549 -0.9314
 6272SOL     OW20969   2.831   3.946   2.573  0.1618 -0.4686  0.3519
 6272SOL    HW120970   2.881   3.928   2.493  0.9656  2.0859  0.2145
 6272SOL    HW220971   2.892   3.927   2.644 -0.7690 -3.4152  0.4903
 6273SOL     OW20972   3.658   3.057   3.291  0.2075  0.2691  0.0863
 6273SOL    HW120973   3.744   3.021   3.314  0.5286  0.9806  0.0156
 6273SOL    HW220974   3.635   3.114   3.365  0.5528  1.3767 -0.6299
 6274SOL     OW20975   2.220   8.858   9.351 -0.5139 -0.3627 -0.0478
 6274SOL    HW120976   2.252   8.770   9.367  0.5227 -0.1377 -0.7901
 6274SOL    HW220977   2.136   8.845   9.307  0.3413 -1.0214 -1.5747
 6275SOL     OW20978   3.940   6.381   5.400 -0.2408 -0.2622  0.4256
 6275SOL    HW120979   4.023   6.336   5.416  0.0756  0.6004  1.3161
 6275SOL    HW220980   3.957   6.471   5.427 -1.2847  0.0634  0.0114
 6276SOL     OW20981   5.818   2.806   6.377  0.0619  0.7199 -0.2888
 6276SOL    HW120982   5.810   2.718   6.339  0.0049  0.8619 -0.6058
 6276SOL    HW220983   5.912   2.820   6.385  0.0596  0.1366  0.9141
 6277SOL     OW20984   8.611   3.372   4.823 -0.3086  0.0806  0.3594
 6277SOL    HW120985   8.659   3.448   4.789  1.8402 -0.5101  1.8063
 6277SOL    HW220986   8.611   3.309   4.751  0.6982  0.3042  0.1501
 6278SOL     OW20987   1.901   0.146   6.779  0.6679 -0.2146  0.8345
 6278SOL    HW120988   1.878   0.234   6.751 -0.6496 -0.9508 -0.5802
 6278SOL    HW220989   1.957   0.113   6.708 -0.7467 -1.2786  0.1579
 6279SOL     OW20990   2.496   6.399   9.484 -0.1479 -0.1620 -0.0660
 6279SOL    HW120991   2.505   6.390   9.579  2.2333  1.5468 -0.0263
 6279SOL    HW220992   2.585   6.387   9.450 -0.6651  0.7928 -1.9081
 6280SOL     OW20993   2.153   3.567   2.788 -0.4573 -0.2045 -0.4814
 6280SOL    HW120994   2.248   3.556   2.779 -0.6334 -0.1973 -3.4491
 6280SOL    HW220995   2.118   3.478   2.779 -0.7825  0.0173 -1.6756
 6281SOL     OW20996   8.282   4.160   4.595  0.0436  0.0687  0.0853
 6281SOL    HW120997   8.359   4.198   4.553 -0.6375  1.4732  0.0253
 6281SOL    HW220998   8.210   4.179   4.533 -0.4755 -0.5201  0.4955
 6282SOL     OW20999   2.839   0.738   4.869  0.3131  0.4539  0.2995
 6282SOL    HW121000   2.756   0.781   4.852 -0.2103 -0.7036 -0.1413
 6282SOL    HW221001   2.900   0.780   4.808 -0.1612  0.6404 -0.0524
 6283SOL     OW21002   6.085   0.983   5.235  0.4274  0.6339 -0.5595
 6283SOL    HW121003   6.145   1.028   5.175  0.9324  1.5146  0.5649
 6283SOL    HW221004   6.108   0.891   5.227  1.5834  0.9042 -0.5558
 6284SOL     OW21005   2.087   8.343   5.939 -0.9018 -0.9184  0.0438
 6284SOL    HW121006   2.050   8.341   5.851 -0.5124 -1.4190 -0.1102
 6284SOL    HW221007   2.069   8.432   5.970 -1.2107 -0.7991 -0.4625
 6285SOL     OW21008   1.303   2.530   3.402 -0.0356  0.2796 -0.3652
 6285SOL    HW121009   1.356   2.595   3.447 -0.4661 -0.2346  0.9358
 6285SOL    HW221010   1.276   2.469   3.471 -2.8049  0.8465 -0.7916
 6286SOL     OW21011   8.488   2.679   2.702  0.2490  0.2485 -0.0511
 6286SOL    HW121012   8.448   2.593   2.695 -1.2095  0.8892  0.0247
 6286SOL    HW221013   8.582   2.662   2.702 -0.0097 -1.3710  0.4500
 6287SOL     OW21014   9.320   3.904   7.939  0.9397 -0.2625 -0.1447
 6287SOL    HW121015   9.252   3.908   8.005  0.8005 -1.7693 -0.1522
 6287SOL    HW221016   9.402   3.917   7.987  0.6659  1.7091 -0.1610
 6288SOL     OW21017   7.920   8.681   0.966 -0.0516  0.1531  0.5139
 6288SOL    HW121018   7.852   8.747   0.976 -0.4568  0.0663 -1.3434
 6288SOL    HW221019   7.871   8.598   0.959  0.3268 -0.0700  0.5097
 6289SOL     OW21020   2.886   8.936   3.038  0.9234  0.8704  0.6270
 6289SOL    HW121021   2.923   9.016   3.075 -1.3486  1.0194  2.8534
 6289SOL    HW221022   2.894   8.871   3.109  0.1070 -0.0298 -0.0821
 6290SOL     OW21023   2.202   5.607   7.411 -0.3689  0.4494  0.0270
 6290SOL    HW121024   2.148   5.565   7.344 -0.6435  2.3884 -1.0480
 6290SOL    HW221025   2.291   5.576   7.393 -0.4426  0.8996 -1.2466
 6291SOL     OW21026   6.078   9.002   1.135 -0.3425 -0.2179  0.3380
 6291SOL    HW121027   6.091   9.065   1.064 -1.8749 -1.3967 -1.0626
 6291SOL    HW221028   6.135   9.033   1.205  1.3185  0.9464 -1.4234
 6292SOL     OW21029   1.396   5.447   1.285  0.0251  0.1578 -0.0018
 6292SOL    HW121030   1.309   5.413   1.306  0.5378 -0.0161  2.0957
 6292SOL    HW221031   1.393   5.539   1.314  0.2058  0.4879 -0.9861
 6293SOL     OW21032   9.481   3.142   8.851  0.0207  0.4574  0.6064
 6293SOL    HW121033   9.474   3.233   8.824 -1.2124 -0.0059 -0.7874
 6293SOL    HW221034   9.397   3.122   8.893 -0.3162 -0.4142 -0.4266
 6294SOL     OW21035   6.904   2.582   0.481  0.4149  0.3631  0.1708
 6294SOL    HW121036   6.991   2.612   0.453  0.3297  1.2521  0.7900
 6294SOL    HW221037   6.883   2.639   0.556  0.9739 -2.3167  2.5543
 6295SOL     OW21038   2.570   7.975   4.398  0.2700 -0.1816  0.3826
 6295SOL    HW121039   2.494   7.916   4.395  0.9477 -1.0504 -0.0710
 6295SOL    HW221040   2.532   8.062   4.383 -0.7833 -0.4436  1.3660
 6296SOL     OW21041   1.464   6.694   8.627 -0.3327  0.0608  0.4172
 6296SOL    HW121042   1.455   6.758   8.556  1.6682 -0.6244 -0.5235
 6296SOL    HW221043   1.442   6.610   8.587 -0.6338 -0.1545  1.0166
 6297SOL     OW21044   7.407   5.005   9.194 -0.2351 -0.1870  0.5467
 6297SOL    HW121045   7.398   4.910   9.197  2.6942 -0.6043 -0.9185
 6297SOL    HW221046   7.340   5.034   9.132  0.0057 -1.4972 -0.3461
 6298SOL     OW21047   8.140   2.598   2.777 -0.1295  0.5477  0.0547
 6298SOL    HW121048   8.196   2.553   2.713 -1.2127 -0.1231 -0.4537
 6298SOL    HW221049   8.190   2.595   2.858  0.0375 -1.1977 -0.0683
 6299SOL     OW21050   0.976   0.944   7.200 -0.2114  0.2995  0.0479
 6299SOL    HW121051   1.045   0.989   7.249 -0.8586  1.4067 -0.0336
 6299SOL    HW221052   0.895   0.983   7.232 -0.8654 -1.4695  0.6356
 6300SOL     OW21053   1.880   8.941   7.798 -0.3210  0.0113  0.2177
 6300SOL    HW121054   1.871   8.969   7.707 -2.1536 -2.2445 -0.3990
 6300SOL    HW221055   1.970   8.963   7.821  0.1541  0.7529 -2.1003
 6301SOL     OW21056   1.128   0.872   7.601  0.4069 -0.6024  0.4594
 6301SOL    HW121057   1.186   0.940   7.567  0.2531 -0.6190  0.1592
 6301SOL    HW221058   1.046   0.885   7.553  1.0460 -2.3728 -1.2366
 6302SOL     OW21059   3.195   3.471   3.177  0.4185 -0.1528  0.0497
 6302SOL    HW121060   3.179   3.412   3.103 -0.8200  1.0463 -0.6855
 6302SOL    HW221061   3.289   3.490   3.174  0.7083 -1.5159 -0.1151
 6303SOL     OW21062   7.393   2.180   0.465 -0.5854 -0.1016  0.2965
 6303SOL    HW121063   7.401   2.152   0.556  0.2925 -0.5898  0.0876
 6303SOL    HW221064   7.454   2.124   0.417  0.1103  1.1564 -0.3644
 6304SOL     OW21065   8.677   2.993   0.453  0.5678  0.4325  0.3754
 6304SOL    HW121066   8.699   3.014   0.544 -2.5149 -0.4740  1.4343
 6304SOL    HW221067   8.614   2.922   0.459  1.3623 -0.6585 -2.5951
 6305SOL     OW21068   5.449   1.501   6.266  0.0051  0.0210  0.3176
 6305SOL    HW121069   5.464   1.556   6.342  1.2174 -0.9152  0.7904
 6305SOL    HW221070   5.367   1.455   6.285 -1.2963  1.9614 -0.3060
 6306SOL     OW21071   2.284   8.418   7.617 -0.0344 -0.3511  0.3230
 6306SOL    HW121072   2.228   8.422   7.694 -0.0298  0.1793  0.3070
 6306SOL    HW221073   2.275   8.505   7.577  1.1427 -0.0994  0.5677
 6307SOL     OW21074   7.349   4.750   9.514  0.0404 -0.2259 -0.7253
 6307SOL    HW121075   7.350   4.655   9.512 -0.8111 -0.2316 -1.2165
 6307SOL    HW221076   7.356   4.777   9.423  0.0729  0.1792 -0.6074
 6308SOL     OW21077   2.442   2.533   4.918 -1.1041  0.6350 -0.1031
 6308SOL    HW121078   2.499   2.556   4.991 -0.6005 -0.1470 -0.2468
 6308SOL    HW221079   2.439   2.612   4.863  0.1811  0.5367 -0.3236
 6309SOL     OW21080   8.476   0.025   4.990  0.1121 -0.0607  0.0762
 6309SOL    HW121081   8.532   0.072   4.928  1.7228  0.5803  1.9064
 6309SOL    HW221082   8.416  -0.025   4.935  1.2281  0.7210 -1.9746
 6310SOL     OW21083   9.199   1.405   6.718  0.2153 -0.1549  0.3302
 6310SOL    HW121084   9.143   1.464   6.668  1.8247  0.3578 -0.9527
 6310SOL    HW221085   9.150   1.388   6.799 -0.5307  2.5106  0.5306
 6311SOL     OW21086   1.025   7.860   6.034 -0.1913 -0.6504 -0.2363
 6311SOL    HW121087   0.973   7.924   5.985  1.9273 -0.3421 -2.2911
 6311SOL    HW221088   1.006   7.777   5.991 -1.8258 -1.2279  1.4916
 6312SOL     OW21089   6.470   7.336   2.361  0.5579 -0.1301 -0.2120
 6312SOL    HW121090   6.440   7.251   2.394  0.7619 -0.3304 -0.5348
 6312SOL    HW221091   6.396   7.395   2.377  0.2701 -0.4523 -0.3204
 6313SOL     OW21092   7.314   1.629   4.486  0.0167  0.2752  0.1968
 6313SOL    HW121093   7.238   1.643   4.542 -1.5220  0.1638 -1.7664
 6313SOL    HW221094   7.279   1.583   4.409  2.0267  0.4360 -0.8785
 6314SOL     OW21095   3.932   3.295   5.190  0.0024 -0.8101 -0.2457
 6314SOL    HW121096   3.934   3.360   5.261 -0.3822  1.7233 -2.4094
 6314SOL    HW221097   3.992   3.330   5.124  2.6365 -4.5571 -0.1227
 6315SOL     OW21098   5.789   8.178   0.793 -0.2907  0.2185  0.1697
 6315SOL    HW121099   5.818   8.223   0.873  0.1930  0.9913 -0.4279
 6315SOL    HW221100   5.719   8.119   0.823 -0.3211  0.7108  1.1146
 6316SOL     OW21101   7.175   6.520   2.421  0.5219  0.3532 -0.6002
 6316SOL    HW121102   7.144   6.444   2.371  0.8983 -0.2194  0.0193
 6316SOL    HW221103   7.097   6.575   2.430 -0.3690 -1.0571  0.9286
 6317SOL     OW21104   8.030   0.953   4.870  0.0736  0.0623  0.4334
 6317SOL    HW121105   8.124   0.954   4.850  0.0727  1.1169  0.4475
 6317SOL    HW221106   8.023   0.998   4.954 -0.4326 -0.1250  0.4927
 6318SOL     OW21107   4.047   0.486   1.096 -0.0834 -0.2580 -0.2534
 6318SOL    HW121108   3.993   0.407   1.106 -0.5326  0.0911  0.1404
 6318SOL    HW221109   4.059   0.518   1.185  0.3411 -0.0410 -0.3868
 6319SOL     OW21110   1.233   2.535   0.788 -0.1383 -0.0101 -0.2372
 6319SOL    HW121111   1.171   2.530   0.861  0.2556  2.0508  0.3240
 6319SOL    HW221112   1.191   2.594   0.725 -0.5022 -1.8208 -1.7699
 6320SOL     OW21113   4.938   2.860   1.196 -0.1434 -0.4749 -0.2005
 6320SOL    HW121114   4.861   2.807   1.218 -0.6467 -0.6350 -2.1025
 6320SOL    HW221115   5.009   2.796   1.187 -0.4351 -0.6881 -1.1245
 6321SOL     OW21116   2.942   0.034   5.277  0.5435  0.1922 -0.3860
 6321SOL    HW121117   2.932   0.110   5.334  1.9762  0.0579  0.0993
 6321SOL    HW221118   3.037   0.019   5.274  0.2724 -1.8988 -0.0438
 6322SOL     OW21119   8.614   2.046   4.444  0.9101  0.1053  0.1335
 6322SOL    HW121120   8.526   2.067   4.413  1.0725  0.3216 -0.1827
 6322SOL    HW221121   8.607   2.049   4.540  0.5436 -0.0083  0.1125
 6323SOL     OW21122   5.224   9.454   7.054  0.2570  0.3970  0.0344
 6323SOL    HW121123   5.310   9.487   7.030  0.7735 -1.4628 -0.8493
 6323SOL    HW221124   5.192   9.411   6.975 -0.5008 -0.8940  1.0118
 6324SOL     OW21125   0.175   5.068   0.799  0.4719 -0.6623  0.1466
 6324SOL    HW121126   0.252   5.062   0.742 -0.2329 -2.3989 -0.7152
 6324SOL    HW221127   0.202   5.026   0.881  1.1278  0.7888  0.6901
 6325SOL     OW21128   2.982   0.493   7.338 -0.3804 -0.2695  0.1638
 6325SOL    HW121129   2.999   0.488   7.432 -0.7190 -1.4468  0.1730
 6325SOL    HW221130   2.901   0.444   7.325 -1.6075  1.7603 -0.4525
 6326SOL     OW21131   1.206   1.163   2.957 -0.1756 -0.0572 -0.2980
 6326SOL    HW121132   1.164   1.180   3.041  0.2106  0.1345 -0.1418
 6326SOL    HW221133   1.155   1.092   2.918 -1.4052  0.9788 -0.6530
 6327SOL     OW21134   5.181   9.212   8.141 -0.1004  0.6510 -0.4014
 6327SOL    HW121135   5.217   9.286   8.190  0.7446  0.5263 -0.8087
 6327SOL    HW221136   5.094   9.241   8.114  0.8064  2.1389 -1.9240
 6328SOL     OW21137   4.494   0.025   3.953 -0.3709  0.1025 -0.0131
 6328SOL    HW121138   4.453   0.111   3.955  1.2568  0.9238  1.8940
 6328SOL    HW221139   4.529   0.013   4.042  0.3571 -2.0711 -0.5255
 6329SOL     OW21140   5.572   2.708   7.207  0.3695  0.1384  0.0878
 6329SOL    HW121141   5.500   2.646   7.214  1.5088 -1.1049  1.5463
 6329SOL    HW221142   5.532   2.794   7.221 -0.9813 -0.4101 -0.2973
 6330SOL     OW21143   5.106   0.147   8.639 -0.6620 -0.2767 -0.1583
 6330SOL    HW121144   5.168   0.075   8.632 -0.5285 -0.0881 -0.9722
 6330SOL    HW221145   5.153   0.213   8.691 -0.5869 -0.5516  0.1312
 6331SOL     OW21146   8.355   7.665   0.369  0.3007  0.3400 -0.2563
 6331SOL    HW121147   8.427   7.614   0.332  1.9473  0.1064  2.8796
 6331SOL    HW221148   8.397   7.724   0.432 -2.1804  0.1947  1.7291
 6332SOL     OW21149   1.171   8.140   7.620  0.1484 -0.0792 -0.3904
 6332SOL    HW121150   1.249   8.102   7.580 -0.0901  1.4666 -2.4623
 6332SOL    HW221151   1.098   8.096   7.578 -0.1200 -0.0509  0.0401
 6333SOL     OW21152   5.785   5.258   8.492  0.4560  0.6457 -0.2665
 6333SOL    HW121153   5.703   5.257   8.443 -0.5228 -1.1003  1.3412
 6333SOL    HW221154   5.765   5.306   8.572  0.3868 -1.5102  1.0678
 6334SOL     OW21155   1.891   1.582   6.205  0.0062 -0.0893 -0.3997
 6334SOL    HW121156   1.799   1.609   6.211  0.1722  0.4195 -0.0799
 6334SOL    HW221157   1.895   1.526   6.128 -0.6533 -0.4252 -0.1955
 6335SOL     OW21158   1.321   3.891   8.351 -0.1538 -0.0514 -0.0136
 6335SOL    HW121159   1.359   3.839   8.422 -0.6900  0.9195  1.0229
 6335SOL    HW221160   1.365   3.976   8.357 -1.6736  0.7328  0.5167
 6336SOL     OW21161   3.605   9.343   6.776  0.0727 -0.2524  0.7380
 6336SOL    HW121162   3.535   9.278   6.767  0.2147 -0.2254 -0.7543
 6336SOL    HW221163   3.579   9.396   6.851 -1.3538 -0.4335  0.4015
 6337SOL     OW21164   4.343   0.474   6.782  0.1698  0.4912  0.2031
 6337SOL    HW121165   4.320   0.527   6.859 -2.5240 -1.2476  0.7149
 6337SOL    HW221166   4.401   0.405   6.817  0.6761  0.9229  0.2333
 6338SOL     OW21167   9.223   1.077   2.510 -0.4049 -0.1374 -0.1087
 6338SOL    HW121168   9.252   0.993   2.473 -0.3094 -0.4908  0.7472
 6338SOL    HW221169   9.216   1.061   2.604 -1.7745  0.4255 -0.0974
 6339SOL     OW21170   6.765   5.560   1.044 -0.1443  0.4426  0.0923
 6339SOL    HW121171   6.825   5.609   0.988 -0.2112 -0.1816 -0.5407
 6339SOL    HW221172   6.721   5.627   1.096 -0.8018  1.1565 -1.3096
 6340SOL     OW21173   0.403   5.854   2.104 -0.2480  0.2999  0.6990
 6340SOL    HW121174   0.395   5.773   2.054  0.1328  1.0432 -0.6188
 6340SOL    HW221175   0.448   5.828   2.184  2.9011 -0.2969 -1.0959
 6341SOL     OW21176   7.103   2.255   5.472  0.0492  0.3025 -0.3522
 6341SOL    HW121177   7.185   2.206   5.479  1.2072  2.3720  2.3157
 6341SOL    HW221178   7.080   2.250   5.379  2.7601 -1.0379 -1.0543
 6342SOL     OW21179   7.467   0.814   9.488  0.0875  0.6287  0.0785
 6342SOL    HW121180   7.388   0.775   9.526 -0.1684  1.9496  0.9399
 6342SOL    HW221181   7.477   0.898   9.532  3.0583 -0.2789  1.3668
 6343SOL     OW21182   1.484   5.828   7.010 -0.0278  0.6733  0.6327
 6343SOL    HW121183   1.462   5.746   7.055 -0.6346  0.8562  0.6885
 6343SOL    HW221184   1.579   5.830   7.007 -0.0036  0.1652  1.0016
 6344SOL     OW21185   2.816   1.126   3.030 -0.5513 -0.5377  0.4897
 6344SOL    HW121186   2.875   1.070   2.979 -2.1351 -0.9269 -0.9923
 6344SOL    HW221187   2.875   1.174   3.088  1.2271 -1.0399 -0.7803
 6345SOL     OW21188   7.849   1.257   4.298 -0.2129  0.3720 -0.1388
 6345SOL    HW121189   7.924   1.268   4.240 -0.3644  1.9461 -0.0834
 6345SOL    HW221190   7.799   1.339   4.289  0.0628  0.9513  2.6371
 6346SOL     OW21191   6.727   4.480   7.537  0.3169  0.1313 -0.5136
 6346SOL    HW121192   6.727   4.493   7.631  0.0883 -1.7778 -0.2027
 6346SOL    HW221193   6.718   4.385   7.526 -0.9603  0.4078 -2.4611
 6347SOL     OW21194   3.449   7.882   5.755 -0.0580  0.1730 -0.1516
 6347SOL    HW121195   3.472   7.972   5.732  0.4192  0.0752 -0.0609
 6347SOL    HW221196   3.514   7.829   5.710 -1.4373 -0.2578 -1.7685
 6348SOL     OW21197   4.714   6.079   2.866 -0.2937  0.1714  0.8450
 6348SOL    HW121198   4.775   6.134   2.816 -2.0025  1.6480  0.2883
 6348SOL    HW221199   4.722   5.993   2.825  0.7063  0.5662  0.1423
 6349SOL     OW21200   9.441   0.598   6.184  0.6654 -0.0504  0.5285
 6349SOL    HW121201   9.496   0.640   6.118  1.2542 -0.5602  0.6836
 6349SOL    HW221202   9.451   0.504   6.168  0.3112 -0.1654  0.9411
 6350SOL     OW21203   4.680   6.450   6.277  0.0468  0.3171  0.1998
 6350SOL    HW121204   4.611   6.476   6.338 -0.6589 -0.4108 -0.2725
 6350SOL    HW221205   4.693   6.527   6.221  0.4381  0.8596  1.0026
 6351SOL     OW21206   8.371   7.607   6.718  0.4506 -0.3234  0.1478
 6351SOL    HW121207   8.418   7.612   6.634  0.6322 -0.5116  0.2379
 6351SOL    HW221208   8.417   7.540   6.767  0.4531 -0.0834  0.4729
 6352SOL     OW21209   6.737   2.296   3.278  0.3638  0.8003 -0.0876
 6352SOL    HW121210   6.831   2.314   3.287 -0.0222  2.7245  0.5783
 6352SOL    HW221211   6.728   2.203   3.300  2.2972  0.1615 -1.7253
 6353SOL     OW21212   0.249   7.815   4.836 -0.0460 -0.1051  0.2769
 6353SOL    HW121213   0.233   7.871   4.913  0.0552  1.1052 -0.5468
 6353SOL    HW221214   0.344   7.801   4.837 -0.0683 -0.2374  0.4783
 6354SOL     OW21215   4.753   4.752   5.886  0.2359  0.1988  0.0929
 6354SOL    HW121216   4.842   4.748   5.851  0.6810 -1.8904  1.3327
 6354SOL    HW221217   4.762   4.727   5.978 -1.5654  0.6192  0.4189
 6355SOL     OW21218   9.512   8.924   5.327  0.5219  0.3998  0.7819
 6355SOL    HW121219   9.504   8.928   5.232 -0.4832 -1.4733  0.7381
 6355SOL    HW221220   9.599   8.960   5.345  0.6100  1.0551 -0.8049
 6356SOL     OW21221   3.143   7.239   5.960 -0.5966  0.4796 -0.4755
 6356SOL    HW121222   3.063   7.283   5.932  0.0500  1.1420 -1.3615
 6356SOL    HW221223   3.186   7.303   6.018 -0.1962  0.5691 -0.8646
 6357SOL     OW21224   8.399   8.677   8.888 -0.3822  0.3482  0.2007
 6357SOL    HW121225   8.365   8.591   8.912  0.8623 -0.0972  0.4533
 6357SOL    HW221226   8.327   8.719   8.841 -0.8867 -0.9707 -0.2512
 6358SOL     OW21227   0.126   1.789   0.313 -0.3761  0.0199  0.2886
 6358SOL    HW121228   0.161   1.745   0.236  0.0691  1.4073 -0.3172
 6358SOL    HW221229   0.119   1.881   0.288 -1.3477  0.3064  1.5080
 6359SOL     OW21230   3.860   9.345   8.423 -0.5773  0.3055  0.3440
 6359SOL    HW121231   3.915   9.419   8.449  2.1607 -0.5611 -2.4392
 6359SOL    HW221232   3.805   9.379   8.353  1.8314 -0.4741 -2.0984
 6360SOL     OW21233   6.455   4.794   8.084  0.2056 -0.2349  0.0952
 6360SOL    HW121234   6.390   4.844   8.034  0.3219 -0.2372 -0.0591
 6360SOL    HW221235   6.466   4.713   8.034  0.4568 -0.1582  0.0266
 6361SOL     OW21236   2.417   2.374   8.925  0.0185  0.1674  0.4509
 6361SOL    HW121237   2.336   2.424   8.912 -0.5229 -0.8100  0.0023
 6361SOL    HW221238   2.435   2.335   8.840  2.4274  2.4316 -0.2188
 6362SOL     OW21239   4.933   3.603   4.383 -0.9090  0.4521 -0.6742
 6362SOL    HW121240   4.897   3.524   4.342  0.3914  0.0053 -1.0075
 6362SOL    HW221241   4.986   3.643   4.314  0.0857  0.5146  0.1119
 6363SOL     OW21242   7.236   1.635   9.338 -0.0418  0.1081  0.9745
 6363SOL    HW121243   7.237   1.582   9.259  1.7950 -0.2683  1.2024
 6363SOL    HW221244   7.149   1.620   9.376 -0.8681  0.1269 -0.8207
 6364SOL     OW21245   7.815   6.038   0.187 -0.5320  0.0901  0.3444
 6364SOL    HW121246   7.842   5.946   0.191  2.4113  0.8298  0.0484
 6364SOL    HW221247   7.724   6.036   0.158 -0.3987 -2.7060 -0.1065
 6365SOL     OW21248   7.735   3.853   3.930 -0.3887 -0.2758 -0.1746
 6365SOL    HW121249   7.709   3.777   3.983  0.5545 -0.1248  0.5304
 6365SOL    HW221250   7.830   3.856   3.938 -0.3450  0.4943 -0.8779
 6366SOL     OW21251   6.406   0.235   6.467  0.2383 -0.3509  0.1567
 6366SOL    HW121252   6.460   0.166   6.505  0.7764 -1.0509 -1.7422
 6366SOL    HW221253   6.426   0.231   6.373 -2.6934 -0.2798 -0.5515
 6367SOL     OW21254   1.151   3.787   0.179  0.0282 -0.2825 -0.4822
 6367SOL    HW121255   1.228   3.780   0.235 -0.6209  4.1553  1.3790
 6367SOL    HW221256   1.079   3.753   0.234  0.0839 -0.5803 -0.5935
 6368SOL     OW21257   1.965   8.539   1.377  0.7440 -0.6062  0.2284
 6368SOL    HW121258   2.018   8.464   1.404  1.9455 -0.0338 -0.4415
 6368SOL    HW221259   1.999   8.562   1.291 -0.1704  0.2055  0.0629
 6369SOL     OW21260   6.229   5.683   6.635 -0.2436  0.3815  0.1207
 6369SOL    HW121261   6.250   5.660   6.544 -0.5979 -1.7382  0.5224
 6369SOL    HW221262   6.311   5.667   6.683 -0.0934  1.3702  0.2066
 6370SOL     OW21263   8.904   7.941   9.275 -0.1317 -0.1885  0.4461
 6370SOL    HW121264   8.976   7.999   9.247  0.3007 -0.1311  1.6030
 6370SOL    HW221265   8.935   7.853   9.254  0.0954 -0.1323  0.5389
 6371SOL     OW21266   2.891   9.242   2.814 -0.1923  0.6519 -0.5051
 6371SOL    HW121267   2.971   9.217   2.767 -0.6132  1.3654 -1.6435
 6371SOL    HW221268   2.831   9.168   2.800  0.6486 -0.4597  1.4091
 6372SOL     OW21269   3.536   9.013   5.592 -0.8005 -0.1216  1.1782
 6372SOL    HW121270   3.464   9.057   5.548  0.0698  0.1009 -0.0912
 6372SOL    HW221271   3.497   8.937   5.634 -1.7182 -0.1473  0.2902
 6373SOL     OW21272   6.993   6.842   0.369  0.1484 -0.0964  0.3012
 6373SOL    HW121273   7.018   6.933   0.354  1.2721 -0.5787 -1.0606
 6373SOL    HW221274   7.065   6.806   0.421  0.0283 -0.3585  0.2878
 6374SOL     OW21275   9.602   3.756   3.478  0.3368 -0.7081  0.1289
 6374SOL    HW121276   9.656   3.816   3.528  1.8744 -0.6719 -1.4623
 6374SOL    HW221277   9.648   3.672   3.483  1.7248 -0.2542 -2.8056
 6375SOL     OW21278   4.443   0.383   3.995 -0.4991  0.2554 -0.3488
 6375SOL    HW121279   4.416   0.334   3.918  1.8605 -0.6136 -0.6781
 6375SOL    HW221280   4.538   0.374   3.999 -0.3545  1.7673  1.6669
 6376SOL     OW21281   7.995   9.240   4.365 -0.4435  0.4179 -0.4153
 6376SOL    HW121282   7.916   9.280   4.329 -0.8433 -0.4252 -0.5119
 6376SOL    HW221283   7.971   9.216   4.455 -0.1667  0.5242 -0.3115
 6377SOL     OW21284   6.129   9.053   0.081 -0.2069  0.2023 -0.2572
 6377SOL    HW121285   6.214   9.018   0.107 -0.4290 -0.5559 -0.5421
 6377SOL    HW221286   6.098   9.099   0.159 -0.3212 -1.0189  0.4331
 6378SOL     OW21287   5.920   1.740   6.232 -0.5811  0.0459  0.3854
 6378SOL    HW121288   5.936   1.653   6.195 -1.5163 -0.9952  2.2709
 6378SOL    HW221289   5.875   1.788   6.162  0.1995 -0.8804 -0.7870
 6379SOL     OW21290   4.662   8.320   8.844 -0.3755  0.0341  0.3691
 6379SOL    HW121291   4.751   8.285   8.851 -0.4088 -0.6451 -1.7946
 6379SOL    HW221292   4.669   8.411   8.871  1.3695  0.4667 -1.3763
 6380SOL     OW21293   6.618   7.636   8.947 -0.0828 -0.0647  0.2670
 6380SOL    HW121294   6.531   7.631   8.988  0.0348  0.1493  0.5402
 6380SOL    HW221295   6.678   7.607   9.015  0.1146  0.3148  0.2525
 6381SOL     OW21296   9.528   5.882   1.905  0.5177  0.1114  0.0183
 6381SOL    HW121297   9.445   5.887   1.858 -0.1970 -1.1552  1.0601
 6381SOL    HW221298   9.503   5.867   1.996  1.8822  1.2702  0.6237
 6382SOL     OW21299   0.101   2.386   7.459  0.6433 -0.2588  0.1305
 6382SOL    HW121300   0.181   2.380   7.510 -0.4060 -2.9578  1.6933
 6382SOL    HW221301   0.050   2.455   7.502  0.7569 -0.8742  1.3012
 6383SOL     OW21302   7.898   3.119   3.725  0.1026  0.6676  0.0697
 6383SOL    HW121303   7.810   3.089   3.700  0.1991 -1.0015  1.5798
 6383SOL    HW221304   7.883   3.202   3.768 -0.4727  1.5350 -1.6859
 6384SOL     OW21305   3.150   6.449   8.652  0.1071 -0.3356 -0.1314
 6384SOL    HW121306   3.073   6.444   8.595 -0.3146  1.1688  0.2488
 6384SOL    HW221307   3.224   6.456   8.592 -0.3939  2.0508 -0.5916
 6385SOL     OW21308   0.939   0.152   1.384 -0.0514 -0.3918  0.2215
 6385SOL    HW121309   0.953   0.247   1.375  1.3623 -0.4824  1.0884
 6385SOL    HW221310   0.968   0.116   1.301  2.3280 -0.2847  0.9225
 6386SOL     OW21311   7.093   8.190   3.415  0.0857 -0.2361  0.4759
 6386SOL    HW121312   7.042   8.111   3.432 -2.0314  0.8207 -0.6923
 6386SOL    HW221313   7.170   8.159   3.368 -0.3256 -1.6743  0.7101
 6387SOL     OW21314   4.151   9.023   7.366 -0.3303  0.1432  0.2030
 6387SOL    HW121315   4.137   8.975   7.285 -3.2623  1.1061  0.0340
 6387SOL    HW221316   4.126   9.113   7.345 -0.3067  0.5960  1.9398
 6388SOL     OW21317   3.208   6.871   6.309 -0.2366  1.3621  0.0646
 6388SOL    HW121318   3.120   6.875   6.271 -0.6543  0.4590  0.9085
 6388SOL    HW221319   3.208   6.938   6.377 -0.5133  0.8842  0.5405
 6389SOL     OW21320   2.665   2.102   6.380  0.1202  0.0242 -0.1795
 6389SOL    HW121321   2.697   2.016   6.353 -0.9824  0.1976 -2.2862
 6389SOL    HW221322   2.587   2.083   6.432 -0.5665 -0.2864 -1.2775
 6390SOL     OW21323   1.874   3.435   9.126 -0.1097 -0.0015  0.1804
 6390SOL    HW121324   1.896   3.521   9.090  0.0963 -0.5657 -1.0980
 6390SOL    HW221325   1.822   3.393   9.057 -1.1133 -0.5048  1.2184
 6391SOL     OW21326   4.795   8.509   0.991  0.0259 -0.0240  0.2159
 6391SOL    HW121327   4.775   8.445   1.059 -1.6860 -0.3913 -0.5912
 6391SOL    HW221328   4.734   8.489   0.920  1.9565  0.1575 -1.5838
 6392SOL     OW21329   6.009   2.266   8.803 -0.1759 -0.1424  0.2193
 6392SOL    HW121330   5.946   2.203   8.769  1.3774 -1.6575 -0.0156
 6392SOL    HW221331   5.964   2.309   8.876 -2.0488  0.0874 -1.0064
 6393SOL     OW21332   8.941   7.783   0.927 -0.0909 -0.4718  0.0608
 6393SOL    HW121333   8.899   7.733   0.858  0.7385 -1.1453  0.0206
 6393SOL    HW221334   9.035   7.771   0.911  0.1376  1.2691 -0.0601
 6394SOL     OW21335   0.080   8.044   2.850 -0.3340  0.4059  0.6210
 6394SOL    HW121336   0.050   8.095   2.775 -2.0607 -0.5192  0.6264
 6394SOL    HW221337   0.165   8.010   2.823  0.0680  1.8764 -0.0403
 6395SOL     OW21338   9.183   1.827   1.080 -0.1559  0.2727 -0.1932
 6395SOL    HW121339   9.238   1.749   1.074 -0.5975 -0.2371  1.8761
 6395SOL    HW221340   9.162   1.848   0.988 -0.2013 -2.1376 -0.7973
 6396SOL     OW21341   3.775   1.008   7.069  0.0264 -0.1467 -0.0403
 6396SOL    HW121342   3.711   0.939   7.088  0.3065  0.0033  1.6340
 6396SOL    HW221343   3.731   1.089   7.095  0.1978  0.1563 -0.6966
 6397SOL     OW21344   4.282   9.591   1.799 -0.1050 -0.4188 -0.2523
 6397SOL    HW121345   4.244   9.666   1.846  2.3686 -0.3551  1.8657
 6397SOL    HW221346   4.255   9.515   1.850  0.5352 -0.5842 -0.1466
 6398SOL     OW21347   2.748   1.003   6.768 -0.5537  0.5685 -0.1147
 6398SOL    HW121348   2.719   1.020   6.857  0.2046 -2.0266  0.7164
 6398SOL    HW221349   2.667   0.989   6.719 -0.9286  0.2997  0.5697
 6399SOL     OW21350   6.401   8.727   3.455  0.5088  0.5945  0.1907
 6399SOL    HW121351   6.413   8.637   3.484  1.5009  0.6053 -0.1617
 6399SOL    HW221352   6.311   8.749   3.482  0.4599 -0.2946  0.7910
 6400SOL     OW21353   5.602   3.901   0.859  0.3386 -0.1102 -0.1206
 6400SOL    HW121354   5.681   3.940   0.823 -0.4385  0.7869 -0.9199
 6400SOL    HW221355   5.608   3.919   0.953  0.9747  0.1465 -0.2036
 6401SOL     OW21356   1.119   0.526   1.503  0.0580  0.1686 -0.0024
 6401SOL    HW121357   1.071   0.477   1.436  0.5859 -0.4765  0.0786
 6401SOL    HW221358   1.192   0.468   1.527  0.3497  0.7472  0.5280
 6402SOL     OW21359   4.384   7.183   1.006 -0.1919 -0.4197 -0.3250
 6402SOL    HW121360   4.337   7.263   0.984 -0.1830 -0.6289 -1.1208
 6402SOL    HW221361   4.476   7.204   0.990 -0.2475 -0.7837 -1.1338
 6403SOL     OW21362   8.217   7.685   5.640  0.2914  0.0063 -0.2963
 6403SOL    HW121363   8.295   7.682   5.695  0.2606  1.1651 -0.1587
 6403SOL    HW221364   8.160   7.617   5.676 -0.2544  1.5319  1.9666
 6404SOL     OW21365   7.097   0.296   4.085  0.1309 -0.2649  0.2668
 6404SOL    HW121366   7.066   0.269   4.171  0.7314 -2.7190 -0.1920
 6404SOL    HW221367   7.046   0.243   4.024  2.3185 -1.4681 -0.6659
 6405SOL     OW21368   3.047   0.314   9.462  0.6076  0.3149 -0.2416
 6405SOL    HW121369   3.085   0.390   9.417  1.2554 -0.3028 -0.7591
 6405SOL    HW221370   3.114   0.247   9.457  1.2743  0.6005  2.8393
 6406SOL     OW21371   1.559   6.824   3.355 -0.2060  0.0190  0.3212
 6406SOL    HW121372   1.500   6.751   3.373  0.6708 -1.2876 -1.7740
 6406SOL    HW221373   1.511   6.901   3.387 -2.0233 -1.2277  0.7732
 6407SOL     OW21374   3.084   3.865   6.324 -0.5662 -0.1621  0.0671
 6407SOL    HW121375   3.072   3.829   6.411 -0.8371  0.3752  0.2585
 6407SOL    HW221376   2.997   3.896   6.298 -0.6874 -1.1932 -0.7967
 6408SOL     OW21377   7.498   6.546   3.462 -0.1445 -0.1344  0.0131
 6408SOL    HW121378   7.500   6.603   3.385  0.4229 -0.1726 -0.0039
 6408SOL    HW221379   7.516   6.605   3.536 -0.5187 -0.1262  0.0973
 6409SOL     OW21380   3.653   0.344   0.634  0.3572  0.4944  0.4888
 6409SOL    HW121381   3.585   0.329   0.699  1.2882 -1.6323  1.0758
 6409SOL    HW221382   3.613   0.402   0.570 -1.7438 -0.0766  1.2050
 6410SOL     OW21383   9.122   0.796   8.936  0.1401  0.5662 -0.1723
 6410SOL    HW121384   9.091   0.724   8.991  1.5342 -1.0065 -1.3185
 6410SOL    HW221385   9.048   0.817   8.879 -0.6108  0.7533  0.8525
 6411SOL     OW21386   1.926   5.645   5.428 -0.1978 -0.3117  0.6675
 6411SOL    HW121387   1.875   5.603   5.498 -1.0835 -1.1349 -0.4448
 6411SOL    HW221388   1.869   5.642   5.352  1.0508 -0.1171 -0.2943
 6412SOL     OW21389   6.016   7.323   6.170 -0.2048 -0.4793 -0.5463
 6412SOL    HW121390   6.109   7.343   6.172 -0.0293 -1.2714 -0.4220
 6412SOL    HW221391   5.998   7.300   6.079 -0.1254 -0.9847 -0.4395
 6413SOL     OW21392   7.259   6.650   9.523  0.0494 -0.2119  0.3931
 6413SOL    HW121393   7.267   6.634   9.429  0.4344 -1.1966  0.5814
 6413SOL    HW221394   7.347   6.631   9.558 -0.6363 -2.0492  1.2421
 6414SOL     OW21395   8.537   4.348   1.869 -0.5487 -0.0932 -0.0336
 6414SOL    HW121396   8.601   4.359   1.939 -2.4484  0.4393  1.7039
 6414SOL    HW221397   8.589   4.355   1.788  1.5147  0.5569  1.2612
 6415SOL     OW21398   3.339   6.767   4.860 -0.1622 -0.9436  0.1113
 6415SOL    HW121399   3.345   6.816   4.941 -1.3903 -0.6672  0.0525
 6415SOL    HW221400   3.400   6.694   4.871 -0.6079 -1.1386  1.4545
 6416SOL     OW21401   8.874   7.821   6.382  0.1955  0.1931 -0.1221
 6416SOL    HW121402   8.967   7.834   6.364  0.2004  0.7843  0.3120
 6416SOL    HW221403   8.869   7.732   6.417  0.6613  0.3221  0.2844
 6417SOL     OW21404   0.265   4.001   2.298 -0.0615 -0.2997 -0.2102
 6417SOL    HW121405   0.356   4.003   2.269  0.3435  0.0979  1.0163
 6417SOL    HW221406   0.223   3.935   2.243  0.9522 -0.4309 -0.8376
 6418SOL     OW21407   8.963   7.293   2.571  0.2244  0.1369 -0.1599
 6418SOL    HW121408   8.871   7.271   2.580 -0.0094  0.6920 -1.0754
 6418SOL    HW221409   8.970   7.335   2.485  1.9388 -3.0467 -1.7454
 6419SOL     OW21410   4.556   1.537   0.982 -0.4574 -0.4837 -0.1714
 6419SOL    HW121411   4.516   1.460   0.942 -0.8273 -1.2204  1.5262
 6419SOL    HW221412   4.615   1.501   1.048 -0.1219  0.6805  0.1815
 6420SOL     OW21413   6.886   6.138   1.040  0.1734  0.8106  0.4119
 6420SOL    HW121414   6.847   6.138   0.953 -1.1831  1.0009  1.0044
 6420SOL    HW221415   6.905   6.230   1.057 -1.3865  1.0338  1.0898
 6421SOL     OW21416   2.347   0.795   0.775  0.0323 -0.2422  0.3661
 6421SOL    HW121417   2.413   0.858   0.746 -2.2844  2.4994  0.5173
 6421SOL    HW221418   2.280   0.798   0.706 -0.8644 -1.3601  1.1592
 6422SOL     OW21419   4.119   5.155   0.918 -0.5049  0.1859 -0.3532
 6422SOL    HW121420   4.156   5.232   0.874  0.7617  1.1954  2.2614
 6422SOL    HW221421   4.025   5.175   0.924 -0.2481  1.4023  0.0030
 6423SOL     OW21422   5.464   5.545   8.690 -0.6309 -0.5015 -0.4971
 6423SOL    HW121423   5.390   5.574   8.636 -1.0002 -2.0504 -0.8745
 6423SOL    HW221424   5.523   5.620   8.691 -1.7760  0.4490 -0.9640
 6424SOL     OW21425   5.240   8.464   5.442  0.1340  0.2713  0.0504
 6424SOL    HW121426   5.147   8.447   5.427  0.2880 -1.7989  1.0853
 6424SOL    HW221427   5.283   8.426   5.366  0.2677 -1.1278  0.7975
 6425SOL     OW21428   4.023   0.680   3.809  0.2261  0.1492 -0.0610
 6425SOL    HW121429   4.081   0.745   3.849 -1.4128  0.4047  2.0942
 6425SOL    HW221430   3.968   0.731   3.749  1.0009  0.1888 -0.7613
 6426SOL     OW21431   4.858   0.220   8.595 -0.2755  0.4829  0.0862
 6426SOL    HW121432   4.844   0.205   8.502 -0.1697  3.2480 -0.4775
 6426SOL    HW221433   4.953   0.222   8.605 -0.2866 -0.1807  0.3268
 6427SOL     OW21434   1.405   8.126   3.623  0.2118  0.3433 -0.0812
 6427SOL    HW121435   1.370   8.211   3.651 -0.6992 -0.1059  0.1586
 6427SOL    HW221436   1.463   8.099   3.694 -0.0544  0.4298  0.1678
 6428SOL     OW21437   1.713   3.080   1.740  0.5154 -0.0641  0.0184
 6428SOL    HW121438   1.772   3.150   1.767  0.3937  0.3971 -0.8755
 6428SOL    HW221439   1.720   3.015   1.809  1.5670  0.2786  0.2488
 6429SOL     OW21440   2.708   7.506   0.176  0.1472  0.0638  0.2010
 6429SOL    HW121441   2.617   7.503   0.204 -0.7789 -0.7510 -2.6421
 6429SOL    HW221442   2.713   7.581   0.116  1.7356  0.9720  1.3757
 6430SOL     OW21443   0.128   5.405   2.048 -0.0551 -0.0368  0.2657
 6430SOL    HW121444   0.116   5.381   2.140 -0.7534  0.1454  0.2266
 6430SOL    HW221445   0.043   5.391   2.008 -0.0517  0.9281 -0.1135
 6431SOL     OW21446   0.559   8.940   9.211  0.0644 -0.4588 -0.3023
 6431SOL    HW121447   0.512   9.021   9.192  1.0827 -0.0297 -1.0096
 6431SOL    HW221448   0.651   8.960   9.196  0.3695 -1.6582 -0.1687
 6432SOL     OW21449   2.299   1.295   7.071 -0.3258  0.1123 -0.1360
 6432SOL    HW121450   2.385   1.274   7.107  0.2380  0.5742 -1.1571
 6432SOL    HW221451   2.237   1.276   7.142  0.6358 -0.0152  0.6861
 6433SOL     OW21452   6.207   7.212   1.276 -0.3839 -0.3049 -0.4878
 6433SOL    HW121453   6.234   7.147   1.211 -1.2275  0.0480 -1.2082
 6433SOL    HW221454   6.261   7.289   1.257 -0.5814 -0.2256 -0.7421
 6434SOL     OW21455   3.086   2.313   9.044  0.0617  0.1269  0.3108
 6434SOL    HW121456   3.137   2.394   9.049 -1.5739  1.1990  0.1667
 6434SOL    HW221457   3.008   2.330   9.097 -1.3643 -0.5504 -1.4518
 6435SOL     OW21458   6.049   4.252   0.191  0.2976 -0.2972 -0.3983
 6435SOL    HW121459   6.110   4.226   0.260  0.9187 -0.0542 -0.8400
 6435SOL    HW221460   6.032   4.171   0.142  1.5327 -0.0780 -1.2352
 6436SOL     OW21461   0.003   3.331   7.829 -0.1718  0.2898 -0.7130
 6436SOL    HW121462   0.007   3.262   7.895  0.2899  1.3635  0.4267
 6436SOL    HW221463  -0.082   3.374   7.843  0.9397  2.1298  0.9437
 6437SOL     OW21464   4.692   0.892   6.618  0.2487 -0.4389  0.4555
 6437SOL    HW121465   4.724   0.859   6.534 -1.6255  1.2553 -1.0644
 6437SOL    HW221466   4.606   0.851   6.629 -0.1302  0.4254  0.8165
 6438SOL     OW21467   6.942   0.097   3.941 -0.7576  0.2410  0.4077
 6438SOL    HW121468   6.997   0.122   3.867  1.1986  0.8517  1.9778
 6438SOL    HW221469   6.941   0.001   3.938  1.8154  0.1047  1.2130
 6439SOL     OW21470   8.540   4.047   8.837  0.0200  0.0111  0.4593
 6439SOL    HW121471   8.447   4.038   8.858 -0.6243  0.7440 -1.7989
 6439SOL    HW221472   8.558   3.975   8.776 -0.0558  1.9411 -1.9698
 6440SOL     OW21473   4.762   0.440   4.453 -0.2372  0.2899  0.1363
 6440SOL    HW121474   4.698   0.478   4.392  0.9055  0.9583 -0.6759
 6440SOL    HW221475   4.751   0.490   4.534  0.2136  1.3718 -0.4480
 6441SOL     OW21476   6.446   4.527   3.196 -0.9957 -0.2364 -0.5699
 6441SOL    HW121477   6.386   4.576   3.140 -0.7773  1.4711  0.6115
 6441SOL    HW221478   6.390   4.484   3.259 -1.1192 -0.4937 -0.8557
 6442SOL     OW21479   6.113   3.257   2.632  0.0058  0.2649  0.5932
 6442SOL    HW121480   6.067   3.320   2.687 -1.2282 -0.7218  0.7133
 6442SOL    HW221481   6.078   3.172   2.657 -0.1270 -0.2681 -1.2638
 6443SOL     OW21482   5.790   2.402   3.414 -0.3474  0.3087 -0.4117
 6443SOL    HW121483   5.837   2.319   3.414 -0.2763  0.3115  1.3721
 6443SOL    HW221484   5.700   2.378   3.394 -0.3892 -0.2688  0.3992
 6444SOL     OW21485   6.981   3.364   5.539  0.3834  0.0136 -0.4564
 6444SOL    HW121486   7.068   3.404   5.541 -0.2383  1.3966  1.1117
 6444SOL    HW221487   6.982   3.307   5.462  2.6907 -0.0809 -0.4034
 6445SOL     OW21488   5.865   3.430   4.979  0.9540 -0.3813  0.1838
 6445SOL    HW121489   5.784   3.441   4.929 -0.1283 -1.3755  1.6794
 6445SOL    HW221490   5.933   3.424   4.912  0.0003  1.7560 -1.0864
 6446SOL     OW21491   5.369   6.548   8.203  0.3358  0.2542 -0.0591
 6446SOL    HW121492   5.369   6.471   8.260  0.5128  1.8310  2.1791
 6446SOL    HW221493   5.285   6.589   8.218  0.8738  1.3598  0.0124
 6447SOL     OW21494   2.634   1.396   6.795 -0.2758  0.1372 -0.2043
 6447SOL    HW121495   2.723   1.427   6.778 -0.0256 -0.3519  0.1765
 6447SOL    HW221496   2.621   1.325   6.732 -0.8760  1.0421 -1.1288
 6448SOL     OW21497   4.618   7.442   0.063 -0.5865  0.0904  0.1280
 6448SOL    HW121498   4.592   7.505   0.130 -3.6886  0.2028 -1.0462
 6448SOL    HW221499   4.667   7.494  -0.000  0.6632  0.3732  1.2777
 6449SOL     OW21500   4.874   6.126   6.841 -0.2956  0.0619  0.2742
 6449SOL    HW121501   4.933   6.073   6.895 -0.3421 -0.1555  0.1131
 6449SOL    HW221502   4.786   6.095   6.863 -0.2196 -1.8784 -1.8169
 6450SOL     OW21503   9.371   0.138   5.991 -0.2092  0.2449  0.1352
 6450SOL    HW121504   9.280   0.122   6.016 -0.4831  1.5704  0.0690
 6450SOL    HW221505   9.366   0.175   5.903  0.5541 -1.5962 -0.7305
 6451SOL     OW21506   9.267   4.703   4.149 -0.3673  0.5623  0.4473
 6451SOL    HW121507   9.231   4.785   4.183 -2.1180  0.1604 -0.3243
 6451SOL    HW221508   9.224   4.635   4.202 -1.5798  0.0276 -1.1385
 6452SOL     OW21509   5.393   0.728   4.371 -0.0808 -0.1419 -0.1689
 6452SOL    HW121510   5.353   0.810   4.342 -0.5367 -0.0240  0.7532
 6452SOL    HW221511   5.424   0.747   4.460  1.1348 -0.5381 -0.4921
 6453SOL     OW21512   6.677   1.018   3.677  0.2505  0.0704 -0.0777
 6453SOL    HW121513   6.700   1.095   3.626  0.0178 -0.2109 -0.6142
 6453SOL    HW221514   6.633   1.052   3.755  0.9341  0.5207  0.1131
 6454SOL     OW21515   5.493   5.306   2.435 -0.1891  0.5402  0.6091
 6454SOL    HW121516   5.471   5.314   2.528  0.5485 -1.4953  1.0209
 6454SOL    HW221517   5.586   5.285   2.434 -0.2883  0.0562 -0.5695
 6455SOL     OW21518   4.629   7.439   3.075 -0.2013 -0.5544 -0.3480
 6455SOL    HW121519   4.700   7.503   3.066  1.5403 -2.6106 -3.1285
 6455SOL    HW221520   4.669   7.366   3.123 -0.9155 -1.0949 -0.5629
 6456SOL     OW21521   7.307   5.755   4.189 -0.0574 -0.1891  0.4381
 6456SOL    HW121522   7.356   5.802   4.122 -0.4782 -1.0505 -0.4982
 6456SOL    HW221523   7.313   5.663   4.164 -1.9404 -0.3501  0.4232
 6457SOL     OW21524   3.551   2.208   9.332 -0.3330  0.1149  0.1464
 6457SOL    HW121525   3.631   2.244   9.294  1.3682 -2.6928  0.8110
 6457SOL    HW221526   3.486   2.216   9.262  1.0073  0.7553 -1.0745
 6458SOL     OW21527   3.411   8.162   0.685 -0.1433 -0.7559  0.8178
 6458SOL    HW121528   3.399   8.093   0.620  0.4269  0.0255 -0.1458
 6458SOL    HW221529   3.335   8.219   0.674  0.1121 -0.4531  0.6219
 6459SOL     OW21530   2.129   7.879   5.726  0.0786 -0.0157  0.2572
 6459SOL    HW121531   2.180   7.956   5.752 -1.0713  0.6282  0.6595
 6459SOL    HW221532   2.195   7.814   5.704  1.1029  1.3190 -0.8585
 6460SOL     OW21533   5.299   2.386   1.794 -0.6247  0.4028 -0.0216
 6460SOL    HW121534   5.266   2.360   1.880 -1.0008 -0.1004 -0.3096
 6460SOL    HW221535   5.281   2.479   1.789  1.0095  0.8362  1.1564
 6461SOL     OW21536   2.334   4.226   1.572  0.2202 -0.7228  0.3496
 6461SOL    HW121537   2.304   4.136   1.579  0.6640 -0.7838  1.7740
 6461SOL    HW221538   2.411   4.231   1.629 -0.6953  0.9183  1.5367
 6462SOL     OW21539   4.894   7.304   7.006 -0.5278  0.0222 -0.0395
 6462SOL    HW121540   4.806   7.280   6.974 -1.1949  0.5543  1.3252
 6462SOL    HW221541   4.878   7.348   7.090  1.0896 -0.3481  0.4933
 6463SOL     OW21542   6.656   1.933   3.612  0.0532 -0.4286 -0.0667
 6463SOL    HW121543   6.702   2.005   3.569 -1.6018 -0.4218 -1.9933
 6463SOL    HW221544   6.721   1.864   3.618  1.1830  0.6168  0.2050
 6464SOL     OW21545   9.293   5.543   8.612 -0.3147 -0.3445  0.0710
 6464SOL    HW121546   9.218   5.581   8.657 -0.8572 -0.6300 -0.5670
 6464SOL    HW221547   9.369   5.586   8.651 -0.8005 -0.1051  0.7797
 6465SOL     OW21548   7.043   5.917   0.399 -0.0682  0.2208 -0.8430
 6465SOL    HW121549   7.107   5.858   0.359 -0.9919 -2.6660  1.5109
 6465SOL    HW221550   6.966   5.911   0.342  0.3325  0.2512 -1.3886
 6466SOL     OW21551   7.631   3.909   7.954 -0.2640 -0.6383 -0.2447
 6466SOL    HW121552   7.603   3.849   8.023 -0.4231 -0.4126 -0.1109
 6466SOL    HW221553   7.710   3.869   7.919 -0.1303 -0.7125  0.1308
 6467SOL     OW21554   9.091   0.096   5.780 -0.9428  0.5827  0.1534
 6467SOL    HW121555   9.036   0.029   5.822  0.9934 -0.0133  1.9157
 6467SOL    HW221556   9.136   0.049   5.710  0.6800 -0.1505  1.6106
 6468SOL     OW21557   1.590   6.526   4.876 -0.0039 -0.0684  0.2494
 6468SOL    HW121558   1.639   6.598   4.916  0.4928 -0.2844  0.0405
 6468SOL    HW221559   1.516   6.568   4.833 -0.2196  0.2250  0.8970
 6469SOL     OW21560   1.040   5.957   2.209 -0.5082 -0.2057  0.0723
 6469SOL    HW121561   1.031   6.033   2.152  2.0974  0.5886  0.5754
 6469SOL    HW221562   0.996   5.982   2.290  1.6683  1.5269  0.8183
 6470SOL     OW21563   9.551   9.291   1.076  0.1282  0.6494 -0.0355
 6470SOL    HW121564   9.631   9.269   1.029  0.1182  2.4600 -0.9728
 6470SOL    HW221565   9.500   9.344   1.015 -1.2786  0.5048  0.9557
 6471SOL     OW21566   7.809   1.079   2.708 -0.4020  0.3092 -0.0675
 6471SOL    HW121567   7.745   1.147   2.686  0.2815  1.1660  0.5764
 6471SOL    HW221568   7.865   1.119   2.774  0.8474 -0.4168 -0.6698
 6472SOL     OW21569   3.062   0.904   4.293  0.5926  0.0201  0.0245
 6472SOL    HW121570   3.147   0.906   4.336  0.4676 -0.5902  0.3057
 6472SOL    HW221571   3.010   0.842   4.345 -0.0753  0.5091 -0.0438
 6473SOL     OW21572   9.445   7.233   1.884  0.4209  0.1705 -0.0244
 6473SOL    HW121573   9.494   7.315   1.887  2.0797 -0.7572 -0.2038
 6473SOL    HW221574   9.432   7.210   1.976 -1.4786  1.3873  0.0650
 6474SOL     OW21575   8.795   6.617   3.956  0.2795  0.0122  0.6813
 6474SOL    HW121576   8.846   6.612   4.037  0.2884 -0.0815  0.6699
 6474SOL    HW221577   8.860   6.640   3.889  0.6128 -1.6281  0.3801
 6475SOL     OW21578   4.003   4.402   2.720  0.4889  0.0588 -0.2363
 6475SOL    HW121579   3.918   4.358   2.725  0.4917  0.0661 -0.1097
 6475SOL    HW221580   3.986   4.490   2.753  0.5883 -0.0047 -0.0069
 6476SOL     OW21581   2.844   4.536   7.036  0.1050  0.2011  0.9245
 6476SOL    HW121582   2.870   4.625   7.061 -0.9154  0.7361  0.1718
 6476SOL    HW221583   2.816   4.495   7.117  1.7444  0.1269  1.4916
 6477SOL     OW21584   4.618   2.411   0.014 -0.6947  0.0012  0.0215
 6477SOL    HW121585   4.543   2.429   0.072  0.0836  0.9965  0.7481
 6477SOL    HW221586   4.608   2.473  -0.058 -0.6840 -0.0324 -0.0094
 6478SOL     OW21587   0.792   8.022   5.987  0.1620 -0.2262 -0.0280
 6478SOL    HW121588   0.730   7.965   5.942 -1.4617  1.4777 -0.0641
 6478SOL    HW221589   0.750   8.043   6.071  1.3352 -0.1515  0.5733
 6479SOL     OW21590   3.643   7.379   9.570  0.4794 -0.4765  0.4482
 6479SOL    HW121591   3.614   7.422   9.651  0.9116 -0.3022  0.5112
 6479SOL    HW221592   3.570   7.393   9.509 -0.2250 -1.3606  1.0632
 6480SOL     OW21593   8.165   7.762   3.631  0.4497  0.1819  0.0432
 6480SOL    HW121594   8.230   7.784   3.563 -0.7312  0.1865 -1.1219
 6480SOL    HW221595   8.127   7.680   3.601  0.6212 -0.3595  1.2572
 6481SOL     OW21596   4.959   4.627   8.823  0.5080 -0.0454 -0.3201
 6481SOL    HW121597   4.883   4.584   8.863  0.1389  0.7960 -0.0912
 6481SOL    HW221598   5.030   4.611   8.885  0.0307  0.9103  0.5095
 6482SOL     OW21599   1.443   1.900   0.854 -0.1782  0.1185  0.1872
 6482SOL    HW121600   1.517   1.865   0.804 -0.8447  1.5235 -1.9233
 6482SOL    HW221601   1.378   1.829   0.854 -1.3788  0.9327 -3.7421
 6483SOL     OW21602   7.917   0.595   8.980  0.9795  0.0608 -0.6824
 6483SOL    HW121603   7.934   0.526   9.044 -2.2779  1.8269  2.4198
 6483SOL    HW221604   7.988   0.658   8.994 -0.3612  1.0698  2.4307
 6484SOL     OW21605   3.994   5.163   1.922  0.1854  0.1458  0.0282
 6484SOL    HW121606   3.961   5.089   1.870  1.7615 -1.0735  0.6508
 6484SOL    HW221607   4.078   5.131   1.957 -0.8187  0.8552  3.4125
 6485SOL     OW21608   6.107   7.603   3.565  0.4947  0.3345  0.6524
 6485SOL    HW121609   6.069   7.624   3.650  0.2157 -0.8888  0.8593
 6485SOL    HW221610   6.199   7.583   3.584  1.0654  2.4248  0.2841
 6486SOL     OW21611   7.707   3.288   8.380  0.8051 -0.0930 -0.4057
 6486SOL    HW121612   7.639   3.337   8.426 -0.0480 -0.1863 -1.5483
 6486SOL    HW221613   7.788   3.333   8.403  0.1939  0.9435 -0.2365
 6487SOL     OW21614   6.847   4.211   6.406  0.0910  0.6991  0.1029
 6487SOL    HW121615   6.851   4.247   6.494  0.9060  0.0883  0.3274
 6487SOL    HW221616   6.906   4.135   6.408 -0.1473  0.4700 -0.8669
 6488SOL     OW21617   8.285   8.037   1.812 -0.7159 -0.5136 -0.0052
 6488SOL    HW121618   8.242   8.047   1.897  0.2411 -0.8221  0.5312
 6488SOL    HW221619   8.216   8.008   1.754 -1.4476 -0.0354  0.6049
 6489SOL     OW21620   2.525   3.062   1.417 -0.3185 -0.8465  0.2508
 6489SOL    HW121621   2.469   2.985   1.429 -0.5663 -0.4770  1.6161
 6489SOL    HW221622   2.612   3.033   1.443 -0.4338 -0.6443  0.8758
 6490SOL     OW21623   0.965   8.133   3.629 -0.6855 -0.8610 -0.2247
 6490SOL    HW121624   1.051   8.095   3.649 -0.9791 -1.7836 -0.6717
 6490SOL    HW221625   0.903   8.082   3.681 -0.9338  0.1094  0.4616
 6491SOL     OW21626   7.378   2.666   0.198 -0.0251  0.1057  0.5657
 6491SOL    HW121627   7.392   2.697   0.109  0.3316  0.9583  0.9110
 6491SOL    HW221628   7.456   2.692   0.246  1.0430 -2.7168  0.5457
 6492SOL     OW21629   7.437   8.005   2.189 -0.3087 -0.1286  0.3754
 6492SOL    HW121630   7.377   8.002   2.264 -2.6269 -0.0353 -1.3513
 6492SOL    HW221631   7.473   7.917   2.183 -1.7289 -0.7531  0.4284
 6493SOL     OW21632   0.480   1.602   7.315  0.4378  0.1892  0.3822
 6493SOL    HW121633   0.423   1.555   7.376 -0.1150 -2.2364 -1.8595
 6493SOL    HW221634   0.552   1.542   7.297  1.0677  1.2089 -0.6775
 6494SOL     OW21635   3.500   2.886   7.742  0.1914  0.0450 -0.1910
 6494SOL    HW121636   3.436   2.955   7.761  0.0801  0.2023 -1.1274
 6494SOL    HW221637   3.584   2.926   7.762  0.0947  0.2812 -0.2562
 6495SOL     OW21638   1.367   8.821   4.053  0.1397  0.3662  0.6605
 6495SOL    HW121639   1.272   8.828   4.063 -0.1782  0.8069 -1.8785
 6495SOL    HW221640   1.400   8.908   4.075 -0.5265  1.3653 -1.8450
 6496SOL     OW21641   5.647   5.245   0.038  0.0919 -0.1138 -0.0305
 6496SOL    HW121642   5.695   5.195   0.103  0.6458  0.1412 -0.2304
 6496SOL    HW221643   5.584   5.296   0.088 -1.9235 -2.5056  0.0229
 6497SOL     OW21644   0.569   2.347   3.296 -0.2422 -0.5766 -0.1526
 6497SOL    HW121645   0.662   2.328   3.279  0.1437  0.3186  0.8529
 6497SOL    HW221646   0.532   2.263   3.322  0.6691 -0.6380  1.0183
 6498SOL     OW21647   7.087   6.548   4.068  0.3489 -0.2562 -0.4503
 6498SOL    HW121648   7.120   6.515   3.984 -0.2679 -1.5412 -0.2097
 6498SOL    HW221649   7.156   6.605   4.099  0.1722  1.0710 -2.3022
 6499SOL     OW21650   5.118   3.090   7.537 -0.1440 -0.0775 -0.7052
 6499SOL    HW121651   5.209   3.071   7.556  0.6322  2.1495 -1.8421
 6499SOL    HW221652   5.070   3.059   7.614  1.5401 -1.2700 -0.0793
 6500SOL     OW21653   8.448   9.228   3.353  0.0485 -0.0839 -0.3672
 6500SOL    HW121654   8.532   9.251   3.391 -0.2269 -0.1070  0.2788
 6500SOL    HW221655   8.384   9.276   3.406 -0.4127 -0.9046 -0.1549
 6501SOL     OW21656   7.519   2.282   7.280 -0.4743 -0.1943  0.6769
 6501SOL    HW121657   7.437   2.304   7.325 -0.0565  0.7204  1.0127
 6501SOL    HW221658   7.504   2.194   7.246 -1.1057 -0.5743  1.8728
 6502SOL     OW21659   7.029   2.353   4.900 -0.0542  0.3087 -0.0624
 6502SOL    HW121660   7.108   2.299   4.900 -0.4222 -0.3105 -1.9884
 6502SOL    HW221661   7.058   2.437   4.863 -0.3796 -0.1088 -1.3112
 6503SOL     OW21662   0.944   5.071   3.417  0.7347  0.4162  0.1482
 6503SOL    HW121663   0.933   4.977   3.430 -0.0483  0.3644 -0.7785
 6503SOL    HW221664   0.920   5.109   3.501 -0.7870 -0.1150 -0.0038
 6504SOL     OW21665   2.925   6.209   1.838  0.2046  0.1376 -0.7275
 6504SOL    HW121666   2.993   6.216   1.771 -1.5113  1.5536 -2.4487
 6504SOL    HW221667   2.973   6.200   1.921  2.4035 -2.4215 -2.1363
 6505SOL     OW21668   6.421   1.730   4.653  0.8607  0.4415 -0.3018
 6505SOL    HW121669   6.494   1.672   4.630  0.8381 -0.9804  2.7273
 6505SOL    HW221670   6.364   1.729   4.576  2.0842 -1.6305 -1.2723
 6506SOL     OW21671   6.518   1.248   8.811 -1.1679  0.1873  1.0739
 6506SOL    HW121672   6.542   1.188   8.740  0.3733  1.4198  0.4897
 6506SOL    HW221673   6.473   1.320   8.767 -2.1683 -0.0616  1.6517
 6507SOL     OW21674   1.603   6.044   0.626  0.3178  0.3950 -0.1525
 6507SOL    HW121675   1.679   6.007   0.580  1.2288  1.8430  0.0914
 6507SOL    HW221676   1.531   6.037   0.563  1.0217  0.3557 -0.9782
 6508SOL     OW21677   9.570   2.738   6.866 -0.1707 -0.8744  0.0939
 6508SOL    HW121678   9.559   2.675   6.937 -0.1482 -1.5329 -0.4729
 6508SOL    HW221679   9.481   2.763   6.841 -0.1675 -0.2941  0.6524
 6509SOL     OW21680   1.435   6.408   5.817 -0.0376 -0.4959  0.2931
 6509SOL    HW121681   1.456   6.364   5.735  0.1234 -0.4166  0.2910
 6509SOL    HW221682   1.340   6.416   5.817 -0.2543 -2.5075  1.1510
 6510SOL     OW21683   6.393   6.667   3.343 -0.9582  0.0193  0.0246
 6510SOL    HW121684   6.389   6.620   3.260  0.2892  0.7998 -0.5083
 6510SOL    HW221685   6.423   6.755   3.320  0.3528 -0.0327  1.3917
 6511SOL     OW21686   3.187   8.258   5.145 -0.0576  0.1375 -0.3660
 6511SOL    HW121687   3.243   8.330   5.118  1.4464 -0.9662 -0.3433
 6511SOL    HW221688   3.122   8.298   5.203  1.2791  1.3179  0.3685
 6512SOL     OW21689   6.901   2.728   4.125 -0.3304 -0.2773 -0.0311
 6512SOL    HW121690   6.988   2.692   4.137 -0.1076  0.2236 -0.1323
 6512SOL    HW221691   6.877   2.704   4.035 -0.2777 -0.3640 -0.0223
 6513SOL     OW21692   8.864   8.118   1.365  0.2529 -0.2789  0.4181
 6513SOL    HW121693   8.899   8.030   1.352 -0.5994 -0.4892 -0.6052
 6513SOL    HW221694   8.860   8.155   1.277 -1.3284  0.0011  0.5826
 6514SOL     OW21695   3.423   4.423   3.023 -0.0149  0.2715  0.7115
 6514SOL    HW121696   3.398   4.511   3.051  1.6101 -0.0371  3.4966
 6514SOL    HW221697   3.490   4.396   3.086  0.1621 -2.6390 -0.5702
 6515SOL     OW21698   6.162   2.778   2.488  0.4730  0.5787 -0.0126
 6515SOL    HW121699   6.120   2.850   2.441  0.3735 -0.8493 -2.3099
 6515SOL    HW221700   6.208   2.820   2.560 -0.6687  2.7671 -0.4569
 6516SOL     OW21701   8.357   2.662   9.633 -0.0740  0.2336 -0.0157
 6516SOL    HW121702   8.300   2.585   9.640  1.1850 -0.7464 -0.1519
 6516SOL    HW221703   8.374   2.687   9.724 -0.9606  0.7295  0.0216
 6517SOL     OW21704   8.916   5.280   7.596 -0.4239 -0.1690 -0.5946
 6517SOL    HW121705   8.901   5.258   7.688 -1.5160  0.2555 -0.6620
 6517SOL    HW221706   8.829   5.280   7.557 -0.0749  0.7204 -1.3965
 6518SOL     OW21707   0.528   3.124   8.873 -0.0017 -0.3301  0.7340
 6518SOL    HW121708   0.612   3.123   8.919  0.1542  0.1598  0.4796
 6518SOL    HW221709   0.510   3.217   8.860  1.1092 -0.3920 -2.1956
 6519SOL     OW21710   3.573   0.080   3.662 -0.2470 -0.3135  0.8207
 6519SOL    HW121711   3.659   0.042   3.643  0.4359  1.5221  0.0185
 6519SOL    HW221712   3.528   0.082   3.577 -0.3121  0.5221  0.8645
 6520SOL     OW21713   4.447   7.285   6.305  0.2538 -0.3851  0.1601
 6520SOL    HW121714   4.434   7.343   6.381 -3.0704 -2.2688  1.2357
 6520SOL    HW221715   4.467   7.200   6.344  0.3463 -0.9919 -1.1866
 6521SOL     OW21716   2.921   0.293   7.920 -0.5888 -0.4584 -0.0919
 6521SOL    HW121717   2.956   0.297   8.009 -0.6078  0.0918 -0.1005
 6521SOL    HW221718   2.948   0.376   7.881 -2.1638  0.1397  0.0115
 6522SOL     OW21719   2.070   1.526   3.537  0.3785  0.3876  0.2798
 6522SOL    HW121720   2.084   1.594   3.603 -0.0039  0.1201  0.6399
 6522SOL    HW221721   2.114   1.559   3.459  2.7207 -0.2617  1.2474
 6523SOL     OW21722   2.734   0.440   0.134 -0.1749  0.2206  0.4227
 6523SOL    HW121723   2.704   0.352   0.157 -1.4629  0.4130 -0.4267
 6523SOL    HW221724   2.799   0.462   0.201 -0.9142 -0.7913  1.5045
 6524SOL     OW21725   9.375   6.714   2.372 -0.0487  0.3221 -0.3249
 6524SOL    HW121726   9.322   6.777   2.421  1.0578  2.0389 -1.2351
 6524SOL    HW221727   9.339   6.714   2.284  1.1381  1.2073 -0.8482
 6525SOL     OW21728   8.434   8.185   3.707  0.1565 -0.7232 -0.2720
 6525SOL    HW121729   8.466   8.115   3.650  0.3618 -0.3758 -0.5835
 6525SOL    HW221730   8.510   8.209   3.760  0.0674 -0.7843 -0.1162
 6526SOL     OW21731   9.414   6.790   8.450  0.0208  0.4591  0.1313
 6526SOL    HW121732   9.416   6.850   8.375  2.6490  1.0352  0.5581
 6526SOL    HW221733   9.422   6.847   8.527  0.4162 -0.3113  0.6745
 6527SOL     OW21734   7.979   0.185   9.599  0.0355 -0.8216  0.3783
 6527SOL    HW121735   7.971   0.277   9.574  0.0013 -0.2656  2.2908
 6527SOL    HW221736   7.942   0.136   9.525 -1.3215  0.7688 -0.0529
 6528SOL     OW21737   2.381   2.969   1.787  0.1209 -0.0749  0.0126
 6528SOL    HW121738   2.461   2.980   1.838  0.4703 -0.7589 -0.3712
 6528SOL    HW221739   2.397   2.890   1.735  0.2319  1.1909 -1.9903
 6529SOL     OW21740   7.097   1.259   7.677  0.2204 -0.2005 -0.4719
 6529SOL    HW121741   7.098   1.323   7.606 -3.1081 -0.8153 -1.2490
 6529SOL    HW221742   7.129   1.178   7.638  1.2387  0.1602 -0.4101
 6530SOL     OW21743   0.031   6.265   2.551 -0.2171 -0.4232  0.0769
 6530SOL    HW121744   0.001   6.329   2.486  1.4101 -0.6587 -0.9568
 6530SOL    HW221745   0.065   6.318   2.623  1.0789 -0.0908 -0.7515
 6531SOL     OW21746   0.721   1.100   5.648  0.2415 -0.2930 -0.0194
 6531SOL    HW121747   0.765   1.144   5.721 -1.0824 -1.1121  1.3101
 6531SOL    HW221748   0.752   1.147   5.570  0.5656  1.5596  1.1671
 6532SOL     OW21749   1.172   7.983   3.677 -0.4332  0.1945  0.1352
 6532SOL    HW121750   1.199   7.937   3.756 -1.0821  0.9858  0.8307
 6532SOL    HW221751   1.248   8.035   3.652  0.3720 -1.3614 -0.7652
 6533SOL     OW21752   7.113   6.125   6.738  0.1126  0.3575 -1.1834
 6533SOL    HW121753   7.091   6.208   6.780 -0.1245  1.1313 -2.7573
 6533SOL    HW221754   7.042   6.066   6.762  0.4716  0.4734  0.2516
 6534SOL     OW21755   0.964   4.109   6.680  1.0184 -0.3664 -0.6466
 6534SOL    HW121756   0.881   4.157   6.680  0.0838 -1.8979 -1.6849
 6534SOL    HW221757   0.972   4.076   6.591  1.2374 -2.7099  0.1732
 6535SOL     OW21758   3.845   5.271   7.323  0.1418 -0.0702  0.0804
 6535SOL    HW121759   3.930   5.295   7.287 -0.3616 -0.1676 -1.2413
 6535SOL    HW221760   3.796   5.237   7.248 -0.3035 -2.1445  1.2198
 6536SOL     OW21761   2.452   6.019   6.385  0.9309 -0.1380  0.0427
 6536SOL    HW121762   2.374   6.029   6.329  0.7283 -0.5740  0.2423
 6536SOL    HW221763   2.447   5.929   6.417 -0.0780  0.6779  2.4012
 6537SOL     OW21764   8.361   4.347   6.210  0.2540 -0.2691  0.5741
 6537SOL    HW121765   8.387   4.318   6.123  0.8413 -0.1423  0.7059
 6537SOL    HW221766   8.271   4.314   6.220 -0.1291  0.4099 -0.3934
 6538SOL     OW21767   7.412   7.089   7.383 -0.2441  0.2654  0.4564
 6538SOL    HW121768   7.492   7.038   7.393 -0.4936 -0.0551  0.8610
 6538SOL    HW221769   7.343   7.032   7.416 -0.8163  0.0432 -1.0083
 6539SOL     OW21770   8.280   9.466   1.353  0.0963  0.1564  0.2805
 6539SOL    HW121771   8.224   9.396   1.319 -0.9145  1.9371 -2.0013
 6539SOL    HW221772   8.369   9.439   1.329 -0.3499 -0.0495 -1.2523
 6540SOL     OW21773   6.341   5.597   7.508  0.1675 -0.5834  0.3518
 6540SOL    HW121774   6.401   5.557   7.571 -0.3977 -1.5207  0.3162
 6540SOL    HW221775   6.391   5.600   7.426  0.7568  0.2432  0.7322
 6541SOL     OW21776   7.683   6.059   0.579  0.8532  0.0434 -0.3282
 6541SOL    HW121777   7.777   6.071   0.590  1.1561 -2.1366  0.0155
 6541SOL    HW221778   7.676   5.988   0.515 -0.5176 -0.5819  0.4715
 6542SOL     OW21779   0.035   2.333   0.577  0.0276 -0.1095 -0.2030
 6542SOL    HW121780   0.082   2.363   0.655  1.4382  0.0989 -1.0875
 6542SOL    HW221781  -0.032   2.399   0.561  0.9619  0.8616 -0.2263
 6543SOL     OW21782   0.171   8.626   2.806  0.1950 -0.0881  0.1860
 6543SOL    HW121783   0.169   8.530   2.808 -0.5263 -0.0996 -0.6257
 6543SOL    HW221784   0.136   8.649   2.720 -1.0270  0.9367  0.9179
 6544SOL     OW21785   8.984   4.167   2.717  0.1179  0.0097  0.7916
 6544SOL    HW121786   9.044   4.188   2.789  0.2282  0.6288  0.5261
 6544SOL    HW221787   8.901   4.148   2.760  0.7424 -1.9758  1.2621
 6545SOL     OW21788   6.522   4.533   3.636  0.2320  0.3340  0.1709
 6545SOL    HW121789   6.459   4.496   3.573 -3.5768  2.9696  2.0152
 6545SOL    HW221790   6.544   4.618   3.600  1.7799 -0.0288  0.2130
 6546SOL     OW21791   1.533   9.482   8.725 -0.2363 -0.4625 -0.2299
 6546SOL    HW121792   1.522   9.531   8.644 -0.8777 -1.3223 -0.6780
 6546SOL    HW221793   1.445   9.477   8.762 -0.2193 -1.4458 -0.3025
 6547SOL     OW21794   6.061   2.131   5.834 -0.2300  0.2388  0.1593
 6547SOL    HW121795   6.078   2.221   5.861 -0.0697  0.5849 -1.0425
 6547SOL    HW221796   5.982   2.137   5.781 -0.1506 -0.3155 -0.0202
 6548SOL     OW21797   2.263   5.637   2.224  0.4715  0.1573  0.0244
 6548SOL    HW121798   2.283   5.730   2.212 -1.5453  0.5490 -0.7504
 6548SOL    HW221799   2.298   5.617   2.311  0.2674  1.8657  0.5543
 6549SOL     OW21800   6.873   4.906   4.494 -0.0539  0.8481  0.0659
 6549SOL    HW121801   6.857   4.869   4.407 -1.0043  0.6815  0.3048
 6549SOL    HW221802   6.918   4.836   4.542 -0.9356  0.3459  0.1916
 6550SOL     OW21803   6.618   6.966   5.289 -0.0232 -0.2029  0.0879
 6550SOL    HW121804   6.713   6.982   5.291  0.1200 -0.7037 -1.6268
 6550SOL    HW221805   6.604   6.897   5.354  0.7425  0.0133  0.4964
 6551SOL     OW21806   5.134   2.604   5.004 -0.0280 -0.4243  0.2081
 6551SOL    HW121807   5.112   2.688   4.963  0.3056 -0.3289  0.2214
 6551SOL    HW221808   5.174   2.552   4.935 -0.0443 -0.4966  0.2522
 6552SOL     OW21809   0.046   3.099   9.261 -0.2974 -0.7355 -0.5504
 6552SOL    HW121810   0.093   3.126   9.340  0.2915 -1.3979 -0.6717
 6552SOL    HW221811   0.114   3.090   9.194 -0.4720 -2.5096 -0.5221
 6553SOL     OW21812   3.128   2.681   2.219 -0.4035 -0.2428  0.2583
 6553SOL    HW121813   3.060   2.629   2.260 -0.2440 -0.7092 -0.0648
 6553SOL    HW221814   3.182   2.618   2.172  0.1531  0.1375  0.3710
 6554SOL     OW21815   2.596   8.503   2.663 -0.3098 -0.0213 -0.0697
 6554SOL    HW121816   2.684   8.468   2.673 -0.6479 -0.4637  2.0381
 6554SOL    HW221817   2.569   8.479   2.575  0.8941 -1.7688 -0.0027
 6555SOL     OW21818   1.227   7.467   2.777 -0.0034 -0.3976 -0.3466
 6555SOL    HW121819   1.191   7.531   2.838 -1.5543 -1.4167 -0.1203
 6555SOL    HW221820   1.311   7.503   2.750  0.1041  0.7125  1.3588
 6556SOL     OW21821   4.144   0.546   4.813  0.2463 -0.6147  0.2180
 6556SOL    HW121822   4.100   0.482   4.757  1.8789  0.4573 -2.5561
 6556SOL    HW221823   4.226   0.504   4.838  0.6148 -0.2254 -0.2967
 6557SOL     OW21824   2.851   2.220   3.525  0.0825  0.0442 -0.1610
 6557SOL    HW121825   2.778   2.165   3.498 -0.1997  0.3660 -0.0676
 6557SOL    HW221826   2.895   2.169   3.593  0.6838 -0.6824 -1.0733
 6558SOL     OW21827   4.759   2.873   2.062  0.0415  0.4149 -0.2351
 6558SOL    HW121828   4.688   2.823   2.102  0.0961 -1.1008 -1.8876
 6558SOL    HW221829   4.837   2.845   2.110 -0.3952  1.8805  1.4018
 6559SOL     OW21830   1.730   3.185   7.271  0.1813 -0.2631 -0.8700
 6559SOL    HW121831   1.812   3.223   7.237  0.2479  0.0184 -0.3937
 6559SOL    HW221832   1.661   3.242   7.236  0.3173  0.6817  0.3393
 6560SOL     OW21833   3.370   6.079   3.976  0.1307  0.2174  0.2681
 6560SOL    HW121834   3.412   5.993   3.974 -0.2218 -0.0067  1.4771
 6560SOL    HW221835   3.277   6.061   3.961  0.1362  0.4539 -0.0597
 6561SOL     OW21836   0.284   6.150   7.053 -0.2998 -0.5358 -0.0225
 6561SOL    HW121837   0.213   6.206   7.084  0.7343 -0.3291  2.1826
 6561SOL    HW221838   0.267   6.065   7.094  0.9212 -0.3584  0.9095
 6562SOL     OW21839   5.006   8.979   7.766  0.0918  0.1263 -0.0296
 6562SOL    HW121840   4.951   9.051   7.733 -0.3235 -0.3695 -0.4448
 6562SOL    HW221841   4.948   8.903   7.765  0.7259 -0.3603 -0.2574
 6563SOL     OW21842   1.678   2.647   0.209  0.2786 -0.2053  0.0365
 6563SOL    HW121843   1.652   2.555   0.215  2.0195 -1.0486 -3.0496
 6563SOL    HW221844   1.764   2.651   0.251 -0.3893  0.3858  1.4117
 6564SOL     OW21845   1.372   8.233   9.172  0.4799 -0.1662  0.2723
 6564SOL    HW121846   1.406   8.225   9.261  1.5005 -0.7503 -0.1466
 6564SOL    HW221847   1.448   8.213   9.116 -0.5264 -1.3600 -0.7130
 6565SOL     OW21848   6.275   5.836   0.496  0.1919  0.0799 -0.0445
 6565SOL    HW121849   6.203   5.847   0.558  0.5621  1.1928  0.2051
 6565SOL    HW221850   6.311   5.924   0.484 -0.1885  0.0080 -2.2354
 6566SOL     OW21851   5.077   1.487   2.220 -0.7963  0.0348  0.6118
 6566SOL    HW121852   5.027   1.566   2.200 -2.0353 -0.7206  0.6833
 6566SOL    HW221853   5.012   1.420   2.237  0.2274 -0.7182  1.7892
 6567SOL     OW21854   5.321   4.143   0.933 -0.4102 -0.4412  0.4650
 6567SOL    HW121855   5.408   4.163   0.969 -0.6139 -0.4581  0.9688
 6567SOL    HW221856   5.294   4.064   0.980 -0.6423 -0.5202  0.2021
 6568SOL     OW21857   1.567   9.011   6.477  0.3519 -0.1828  0.1642
 6568SOL    HW121858   1.534   8.983   6.563 -0.1571  2.4240  0.8984
 6568SOL    HW221859   1.497   8.990   6.416  0.8811 -2.4623  0.2144
 6569SOL     OW21860   5.224   6.888   3.363 -0.5054  0.2758  0.2207
 6569SOL    HW121861   5.243   6.931   3.446 -0.2972  0.3215  0.1486
 6569SOL    HW221862   5.309   6.862   3.329 -0.6936 -1.4110  0.9048
 6570SOL     OW21863   5.772   2.631   1.838  0.0856  0.3842  0.2146
 6570SOL    HW121864   5.733   2.691   1.774 -0.5834  0.7856  0.9772
 6570SOL    HW221865   5.702   2.569   1.858  0.1237  0.5549  0.9113
 6571SOL     OW21866   5.484   0.922   5.240 -0.3268  0.1462 -0.4772
 6571SOL    HW121867   5.530   0.846   5.276 -0.9618 -0.4036 -0.7959
 6571SOL    HW221868   5.545   0.958   5.175 -0.2345 -0.4267 -0.7203
 6572SOL     OW21869   0.160   4.298   4.594  0.1426 -0.3417  0.0941
 6572SOL    HW121870   0.095   4.236   4.562 -0.5007  1.0389 -1.4371
 6572SOL    HW221871   0.109   4.373   4.624  0.9278 -0.2476  1.2412
 6573SOL     OW21872   7.412   3.909   2.807 -0.2301 -0.2085 -0.7946
 6573SOL    HW121873   7.348   3.852   2.765  0.2449 -0.0636 -1.7512
 6573SOL    HW221874   7.472   3.850   2.851  0.0824 -0.4393 -1.5214
 6574SOL     OW21875   6.541   2.242   3.976  0.4522 -0.1882 -0.1612
 6574SOL    HW121876   6.599   2.293   3.920  0.0221 -1.5515 -1.9440
 6574SOL    HW221877   6.582   2.156   3.981 -0.5174 -0.6590 -0.0092
 6575SOL     OW21878   4.486   6.692   5.697  0.5358  0.0894  0.0791
 6575SOL    HW121879   4.494   6.630   5.770  0.4272  0.8022  0.6991
 6575SOL    HW221880   4.523   6.773   5.730 -1.8667  1.1830  0.2781
 6576SOL     OW21881   3.034   3.333   2.500  0.0184  0.5832 -0.1747
 6576SOL    HW121882   3.124   3.334   2.467 -0.1956 -0.6329 -0.8572
 6576SOL    HW221883   2.996   3.414   2.467  1.0929  1.5207  0.8257
 6577SOL     OW21884   6.639   4.259   7.830 -0.0737 -0.0095  0.2605
 6577SOL    HW121885   6.685   4.342   7.840  0.0831 -0.0976  0.2625
 6577SOL    HW221886   6.691   4.210   7.767 -2.0007  1.2634 -2.5503
 6578SOL     OW21887   8.620   1.536   7.576  0.4924 -0.3897 -0.1175
 6578SOL    HW121888   8.656   1.622   7.600 -0.8149 -0.2286  1.4074
 6578SOL    HW221889   8.654   1.476   7.643 -1.6207 -0.3130  1.0966
 6579SOL     OW21890   2.836   1.893   2.676  0.1396  0.0054 -0.2544
 6579SOL    HW121891   2.835   1.988   2.660  3.7436  0.3274  0.6137
 6579SOL    HW221892   2.928   1.873   2.693 -0.3263 -3.8635 -1.4208
 6580SOL     OW21893   7.859   8.035   2.892 -0.8194  0.3914  0.3946
 6580SOL    HW121894   7.825   8.116   2.930 -1.0169 -0.0146  1.1097
 6580SOL    HW221895   7.794   8.010   2.827 -1.0886  0.4607  0.6348
 6581SOL     OW21896   8.695   5.334   2.696 -0.4641  0.0220  0.3151
 6581SOL    HW121897   8.720   5.415   2.651 -0.5225 -0.5542 -0.7844
 6581SOL    HW221898   8.741   5.265   2.648 -1.6844 -0.7530  0.2187
 6582SOL     OW21899   4.037   0.517   0.101  0.5288 -0.1861 -0.4008
 6582SOL    HW121900   3.966   0.550   0.046 -0.0492 -0.5175  0.1345
 6582SOL    HW221901   4.074   0.444   0.052  1.0704  0.5055 -1.0681
 6583SOL     OW21902   8.875   2.112   8.506 -0.7049  0.1396  0.0727
 6583SOL    HW121903   8.904   2.140   8.419 -1.7223  0.4561 -0.1786
 6583SOL    HW221904   8.946   2.057   8.538 -0.8576 -1.0420 -1.4836
 6584SOL     OW21905   7.181   3.123   7.340  0.4592 -0.2847 -0.1285
 6584SOL    HW121906   7.259   3.115   7.395  0.3634 -0.6257 -0.0345
 6584SOL    HW221907   7.157   3.032   7.320 -0.0036 -0.1883 -0.0251
 6585SOL     OW21908   7.392   3.607   4.622 -0.3857  0.0390  0.4227
 6585SOL    HW121909   7.357   3.695   4.613  0.0668  0.1648 -0.1625
 6585SOL    HW221910   7.475   3.608   4.573 -0.3817 -0.7114  0.3912
 6586SOL     OW21911   6.510   3.852   4.502 -0.0081 -0.8938  0.2135
 6586SOL    HW121912   6.424   3.868   4.539 -0.7297 -1.1489 -1.2819
 6586SOL    HW221913   6.495   3.795   4.427  1.3291 -0.2034 -0.6420
 6587SOL     OW21914   4.178   2.210   8.621 -0.3818 -0.4566 -0.3912
 6587SOL    HW121915   4.130   2.255   8.551 -0.9027 -1.5244 -0.7383
 6587SOL    HW221916   4.133   2.235   8.701 -1.2467 -1.0644 -0.6693
 6588SOL     OW21917   8.569   2.908   4.179 -0.7332  0.3478 -0.4398
 6588SOL    HW121918   8.620   2.923   4.259 -0.7101  1.1255 -0.5944
 6588SOL    HW221919   8.479   2.899   4.210 -0.6994  0.4681 -0.2996
 6589SOL     OW21920   2.752   3.740   1.016  0.6195 -0.1586 -1.0152
 6589SOL    HW121921   2.698   3.815   1.041 -0.0895 -0.3577 -1.9133
 6589SOL    HW221922   2.754   3.742   0.921 -0.9231 -2.2729 -1.1648
 6590SOL     OW21923   1.866   8.208   1.958  0.8606  0.2910  0.1121
 6590SOL    HW121924   1.847   8.222   2.051  0.8377  1.0396 -0.0044
 6590SOL    HW221925   1.803   8.263   1.912  3.0649  2.6580 -0.3016
 6591SOL     OW21926   8.857   6.821   5.501  0.2800 -0.2854 -0.4197
 6591SOL    HW121927   8.859   6.744   5.557  2.9950  0.5965  0.8705
 6591SOL    HW221928   8.939   6.817   5.452  0.4830  1.7299 -0.3348
 6592SOL     OW21929   0.106   7.115   5.840  0.2766  0.0113  0.0229
 6592SOL    HW121930   0.172   7.155   5.783 -0.8124  1.0967 -0.5102
 6592SOL    HW221931   0.128   7.022   5.840  1.6480  0.3155 -0.3478
 6593SOL     OW21932   8.077   0.963   5.484 -0.3004  0.2261 -0.5339
 6593SOL    HW121933   8.157   0.982   5.435 -0.3147 -0.3113 -0.7744
 6593SOL    HW221934   8.081   0.869   5.501  0.9716  0.7592  2.7484
 6594SOL     OW21935   1.015   8.977   3.854 -0.1204  0.5479  0.4103
 6594SOL    HW121936   0.932   9.014   3.824  0.0148 -0.0638 -0.8035
 6594SOL    HW221937   1.075   8.991   3.780  0.5016 -0.1558  0.7721
 6595SOL     OW21938   2.866   7.425   7.593  0.1267 -0.2239 -0.7278
 6595SOL    HW121939   2.796   7.427   7.529 -0.1912  1.8538 -0.3637
 6595SOL    HW221940   2.842   7.353   7.652 -1.2544 -0.0801 -1.0873
 6596SOL     OW21941   4.315   9.208   1.925 -0.3406 -0.5382 -0.4016
 6596SOL    HW121942   4.288   9.122   1.891 -1.5835  0.4034 -1.9345
 6596SOL    HW221943   4.388   9.234   1.869 -1.6145  0.4884 -1.6566
 6597SOL     OW21944   7.781   1.799   9.273 -0.1484 -0.2622  0.1845
 6597SOL    HW121945   7.740   1.722   9.234 -1.1137 -0.0820  0.8320
 6597SOL    HW221946   7.817   1.768   9.356 -1.6170  0.2374  1.0334
 6598SOL     OW21947   0.197   8.102   2.440 -0.4164 -0.1736 -0.4330
 6598SOL    HW121948   0.131   8.147   2.493  0.1137  0.8979 -0.6370
 6598SOL    HW221949   0.193   8.011   2.468 -0.2441  0.3220  1.3578
 6599SOL     OW21950   0.481   2.854   4.699 -0.1132  0.4913 -0.1717
 6599SOL    HW121951   0.472   2.913   4.624  2.2556 -1.6022 -2.2950
 6599SOL    HW221952   0.564   2.880   4.740  1.0693 -1.3640 -1.2636
 6600SOL     OW21953   1.314   1.769   6.305  0.1143 -0.5982 -0.1589
 6600SOL    HW121954   1.337   1.779   6.397  1.8757  0.9138 -0.7010
 6600SOL    HW221955   1.236   1.714   6.306  0.1440 -0.7126  2.2170
 6601SOL     OW21956   8.049   3.132   3.021  0.1449  0.3579  0.6684
 6601SOL    HW121957   8.082   3.211   3.065 -0.3940  0.6001  0.6504
 6601SOL    HW221958   7.958   3.125   3.050 -0.1989  0.4757 -0.3363
 6602SOL     OW21959   7.920   6.404   0.299 -0.0096  0.2699  0.0273
 6602SOL    HW121960   7.966   6.326   0.268 -1.5633 -1.3836  1.7032
 6602SOL    HW221961   7.869   6.433   0.224  1.4082  0.3829 -0.9456
 6603SOL     OW21962   6.442   7.401   9.285  0.9107 -0.5009 -0.1705
 6603SOL    HW121963   6.352   7.395   9.317  0.3426  0.4165 -1.5012
 6603SOL    HW221964   6.496   7.393   9.363 -0.2330 -3.0154  0.4516
 6604SOL     OW21965   3.787   0.566   5.492 -0.2913 -0.0776  0.5239
 6604SOL    HW121966   3.861   0.627   5.499 -0.7581  0.4205  1.2636
 6604SOL    HW221967   3.809   0.511   5.417 -0.6137  2.0395 -1.2205
 6605SOL     OW21968   8.728   4.522   0.151 -0.1919  0.0185  0.2609
 6605SOL    HW121969   8.808   4.496   0.105 -1.1702  0.4582 -1.8491
 6605SOL    HW221970   8.758   4.584   0.218  1.4287 -1.5014  1.0263
 6606SOL     OW21971   7.299   5.051   5.921 -0.7502 -0.3164  0.5414
 6606SOL    HW121972   7.318   5.009   6.005 -1.2471  0.3688  1.0059
 6606SOL    HW221973   7.224   5.001   5.886 -1.3324  0.1581  1.0875
 6607SOL     OW21974   8.823   1.583   2.622 -0.2068  0.0328  0.3951
 6607SOL    HW121975   8.826   1.606   2.714 -0.1860  1.0337  0.1577
 6607SOL    HW221976   8.859   1.659   2.577 -2.0353  0.3915 -0.5681
 6608SOL     OW21977   0.581   5.216   3.132  0.1626  0.0013 -0.4011
 6608SOL    HW121978   0.542   5.252   3.212  1.8135  1.4125 -0.1799
 6608SOL    HW221979   0.629   5.139   3.161 -1.7622 -1.3558 -0.5752
 6609SOL     OW21980   4.505   6.881   8.293  0.0543 -0.0879  0.5737
 6609SOL    HW121981   4.513   6.787   8.274 -0.3371  0.0167 -0.1805
 6609SOL    HW221982   4.548   6.893   8.377  3.0204 -0.4060 -0.7683
 6610SOL     OW21983   9.496   0.277   1.108 -0.0130  0.0830  0.1243
 6610SOL    HW121984   9.417   0.280   1.053  0.8712  0.1415 -1.1957
 6610SOL    HW221985   9.526   0.187   1.102  1.2227  0.5482 -1.2042
 6611SOL     OW21986   0.386   5.913   5.056  0.1317  0.5781  0.0943
 6611SOL    HW121987   0.380   5.899   5.150 -0.1120  0.3367  0.0401
 6611SOL    HW221988   0.409   5.828   5.020 -2.7275 -0.0765 -0.3735
 6612SOL     OW21989   8.082   0.294   3.514 -0.3970 -0.1619  0.0726
 6612SOL    HW121990   8.082   0.229   3.584  0.0077 -1.1370 -0.8087
 6612SOL    HW221991   8.114   0.247   3.437  0.5202  1.2354 -0.4444
 6613SOL     OW21992   1.981   9.480   4.671  0.4088 -0.3666 -0.6264
 6613SOL    HW121993   1.923   9.407   4.695 -1.2146  0.9296 -0.3818
 6613SOL    HW221994   1.978   9.482   4.576 -2.2638  1.3239 -0.6285
 6614SOL     OW21995   9.226   1.690   5.519  0.2709  1.0413 -0.2284
 6614SOL    HW121996   9.229   1.730   5.606 -0.0643  1.0970 -0.2396
 6614SOL    HW221997   9.317   1.671   5.498  0.2176 -0.5447  0.8518
 6615SOL     OW21998   7.543   3.434   4.131  0.0150  0.0998  0.1156
 6615SOL    HW121999   7.469   3.374   4.145 -0.2546  0.4240  0.0731
 6615SOL    HW222000   7.507   3.521   4.149  0.0027  0.3997 -1.3029
 6616SOL     OW22001   6.016   0.879   0.032 -0.5218 -0.0242 -0.1967
 6616SOL    HW122002   6.071   0.940   0.080 -1.4324  0.0085  0.8600
 6616SOL    HW222003   5.927   0.902   0.059 -0.9330 -1.2328 -0.4794
 6617SOL     OW22004   8.971   9.260   3.307 -0.0391  0.2829 -0.2160
 6617SOL    HW122005   8.956   9.317   3.231 -0.3554 -0.8680 -1.0646
 6617SOL    HW222006   8.933   9.176   3.280 -0.6260 -0.0102  1.4353
 6618SOL     OW22007   1.788   2.580   7.149 -0.1398  0.0707  0.1152
 6618SOL    HW122008   1.854   2.511   7.157  2.3400  2.0407 -1.6183
 6618SOL    HW222009   1.772   2.609   7.239  0.4692 -1.2131  0.6601
 6619SOL     OW22010   7.073   3.634   1.190 -0.2862 -0.3122 -0.1130
 6619SOL    HW122011   7.030   3.687   1.122 -2.0895 -1.0940  0.3494
 6619SOL    HW222012   7.097   3.697   1.258 -0.2374  0.2130 -0.6098
 6620SOL     OW22013   8.151   8.634   8.716  0.4707 -0.5716  0.0554
 6620SOL    HW122014   8.173   8.550   8.756  0.6813 -0.9520 -0.8390
 6620SOL    HW222015   8.082   8.614   8.653  0.3285 -0.0245  0.0275
 6621SOL     OW22016   1.412   3.642   0.271  0.0364 -0.1061  0.2394
 6621SOL    HW122017   1.483   3.580   0.257 -0.1338 -0.1091 -0.6713
 6621SOL    HW222018   1.345   3.617   0.208 -0.6787  0.0438  0.9220
 6622SOL     OW22019   2.271   1.070   9.450 -0.1578 -0.5319  0.9500
 6622SOL    HW122020   2.358   1.085   9.413  1.3145 -1.0296  3.9740
 6622SOL    HW222021   2.284   1.004   9.517 -2.8423 -0.3939  1.7127
 6623SOL     OW22022   5.992   8.510   5.422 -0.2843 -0.0852 -0.5639
 6623SOL    HW122023   5.908   8.535   5.462 -0.3272 -0.4862 -0.4008
 6623SOL    HW222024   5.973   8.502   5.329 -0.7014 -1.2808 -0.3930
 6624SOL     OW22025   6.726   1.396   2.921  0.9067  0.6261 -0.3552
 6624SOL    HW122026   6.690   1.329   2.863  0.5758  0.1522  0.3743
 6624SOL    HW222027   6.703   1.479   2.880 -0.5620  0.3268 -0.1932
 6625SOL     OW22028   1.422   7.300   0.871  0.1113 -0.4103  0.3453
 6625SOL    HW122029   1.404   7.234   0.938 -0.2420 -0.2098  0.4541
 6625SOL    HW222030   1.509   7.279   0.839  0.8546  0.2700  1.8017
 6626SOL     OW22031   8.585   1.740   0.248  0.7796 -0.0973 -0.0939
 6626SOL    HW122032   8.529   1.717   0.173  1.9666 -0.0280 -1.0266
 6626SOL    HW222033   8.534   1.714   0.325 -0.9864  0.8980 -0.8568
 6627SOL     OW22034   0.123   9.457   4.916  0.1374 -0.0091 -0.5541
 6627SOL    HW122035   0.169   9.383   4.957  0.6780  0.0402 -1.0617
 6627SOL    HW222036   0.030   9.435   4.926  0.2910 -0.9242 -0.9894
 6628SOL     OW22037   5.557   8.428   4.047  0.2080  0.0957  0.1088
 6628SOL    HW122038   5.606   8.385   3.977  1.8537  0.1128  1.1947
 6628SOL    HW222039   5.549   8.361   4.115 -2.6571 -0.4059 -0.5683
 6629SOL     OW22040   8.609   7.340   6.780 -0.1479  1.0286  0.3189
 6629SOL    HW122041   8.561   7.391   6.845 -1.5511 -1.3342  1.2633
 6629SOL    HW222042   8.661   7.279   6.831  0.9688  1.0310 -0.7686
 6630SOL     OW22043   0.191   0.935   8.284  0.6927  0.3269 -0.5792
 6630SOL    HW122044   0.237   0.858   8.317 -0.8358 -0.6457 -0.6120
 6630SOL    HW222045   0.103   0.904   8.266  0.0672  2.0712 -0.7182
 6631SOL     OW22046   7.345   2.136   3.886  0.0705  0.4095 -0.3574
 6631SOL    HW122047   7.278   2.079   3.847  0.9067  0.5285 -2.0694
 6631SOL    HW222048   7.423   2.081   3.890 -0.3346 -0.1053  2.7379
 6632SOL     OW22049   5.119   1.618   1.871 -0.3375 -0.1693 -0.2892
 6632SOL    HW122050   5.132   1.564   1.949  1.4302 -0.1586 -0.5365
 6632SOL    HW222051   5.134   1.559   1.798  0.9319  0.4637 -0.5684
 6633SOL     OW22052   3.246   0.752   5.718  0.2338 -0.1876  0.3280
 6633SOL    HW122053   3.319   0.748   5.656 -0.4324 -0.0726 -0.4786
 6633SOL    HW222054   3.287   0.744   5.804  1.3976  1.7604  0.0129
 6634SOL     OW22055   6.159   8.199   0.841 -0.3088 -0.0331 -0.1351
 6634SOL    HW122056   6.090   8.146   0.801  0.1441  1.2195 -2.8584
 6634SOL    HW222057   6.130   8.290   0.827  0.9667  0.4813  0.4165
 6635SOL     OW22058   8.395   2.484   6.630  0.1218 -0.5124 -0.3388
 6635SOL    HW122059   8.346   2.450   6.705 -0.3615  1.3398  0.2390
 6635SOL    HW222060   8.478   2.513   6.667 -0.8835  2.2884 -0.0384
 6636SOL     OW22061   4.215   6.268   0.659 -0.0782 -0.1439 -0.4092
 6636SOL    HW122062   4.253   6.284   0.573 -1.6643  1.7518 -0.8096
 6636SOL    HW222063   4.210   6.172   0.665 -1.4568 -0.3432 -3.1503
 6637SOL     OW22064   8.502   1.152   7.431 -0.3374  0.1478 -0.2548
 6637SOL    HW122065   8.557   1.179   7.504 -0.5792  1.0744 -0.4081
 6637SOL    HW222066   8.537   1.067   7.405  0.6818  0.4804 -0.0070
 6638SOL     OW22067   9.144   6.012   4.931 -0.2723  0.1058  0.1634
 6638SOL    HW122068   9.117   6.094   4.972  0.8436  1.1151 -0.9973
 6638SOL    HW222069   9.236   6.002   4.955 -0.3518 -0.7304  0.1629
 6639SOL     OW22070   2.057   7.032   3.391 -0.0209  0.1991 -0.0795
 6639SOL    HW122071   2.016   7.115   3.412 -0.3782 -0.0480  0.2168
 6639SOL    HW222072   1.984   6.970   3.383  0.1643  0.1190 -1.3033
 6640SOL     OW22073   6.974   4.512   2.682  0.1012  0.1730 -0.4718
 6640SOL    HW122074   6.913   4.557   2.623  0.9962  3.3915  0.8184
 6640SOL    HW222075   7.061   4.532   2.646  0.5936  0.8985  1.0347
 6641SOL     OW22076   7.785   7.257   5.141 -0.3990 -0.0229  0.1433
 6641SOL    HW122077   7.747   7.195   5.204 -1.4659 -0.2533 -0.6928
 6641SOL    HW222078   7.837   7.202   5.083 -0.8088 -0.0483 -0.2017
 6642SOL     OW22079   0.431   1.475   6.905  0.5676  0.0275  0.7096
 6642SOL    HW122080   0.336   1.485   6.910  0.6214  0.5843  0.7270
 6642SOL    HW222081   0.453   1.410   6.972 -0.0160 -1.6647 -0.6887
 6643SOL     OW22082   8.497   6.124   9.270  0.1246  0.6537 -0.1857
 6643SOL    HW122083   8.586   6.154   9.251  0.5165 -0.0363  0.4979
 6643SOL    HW222084   8.494   6.035   9.237 -0.8560  1.2003 -1.6844
 6644SOL     OW22085   7.204   2.030   1.363  0.3634 -0.3318 -0.3231
 6644SOL    HW122086   7.147   2.042   1.440  0.8280 -1.0468  0.1451
 6644SOL    HW222087   7.279   1.982   1.397  0.4802 -0.8318 -1.2748
 6645SOL     OW22088   3.915   0.023   4.901  0.0152 -0.0585 -0.6593
 6645SOL    HW122089   3.867   0.016   4.984  2.0364  0.5910  0.6540
 6645SOL    HW222090   3.927   0.118   4.889 -0.1812 -0.1549 -1.6671
 6646SOL     OW22091   7.765   6.238   5.302 -0.4627 -0.5873  0.4691
 6646SOL    HW122092   7.852   6.215   5.336 -0.4463 -0.3918  0.5600
 6646SOL    HW222093   7.725   6.154   5.280  0.3626 -0.6106 -1.0945
 6647SOL     OW22094   9.276   5.171   3.877  0.2615  0.1701  0.7121
 6647SOL    HW122095   9.231   5.088   3.861  0.4912  0.0319  0.7765
 6647SOL    HW222096   9.209   5.238   3.861 -0.1078 -0.0521  1.2817
 6648SOL     OW22097   6.258   6.710   6.426  0.1209 -0.4423  0.3963
 6648SOL    HW122098   6.217   6.686   6.343  1.3252 -2.0896  0.2079
 6648SOL    HW222099   6.186   6.721   6.487 -0.6894 -1.1996 -0.3996
 6649SOL     OW22100   1.242   6.794   2.065  0.0068  0.2636 -0.1860
 6649SOL    HW122101   1.278   6.717   2.020  1.2856 -0.7310  2.3702
 6649SOL    HW222102   1.150   6.774   2.077 -0.2193  0.2660 -1.6999
 6650SOL     OW22103   3.527   6.144   4.217  0.2058  0.1230 -0.1601
 6650SOL    HW122104   3.602   6.101   4.176 -0.4221 -0.3326 -0.8343
 6650SOL    HW222105   3.467   6.162   4.145  0.0240  1.2425  0.2525
 6651SOL     OW22106   7.480   5.475   9.439 -0.3395  0.0668 -0.1589
 6651SOL    HW122107   7.567   5.435   9.430 -0.0678  0.8785 -1.3859
 6651SOL    HW222108   7.434   5.418   9.500  1.1009 -0.3131  0.6336
 6652SOL     OW22109   1.707   8.232   5.606  0.4809  0.0735 -0.1912
 6652SOL    HW122110   1.621   8.254   5.642  0.9556 -0.4630  1.3514
 6652SOL    HW222111   1.689   8.205   5.516 -1.3521 -2.4745  0.8073
 6653SOL     OW22112   7.871   8.881   7.504 -0.4322 -0.1996 -0.3513
 6653SOL    HW122113   7.801   8.946   7.491  0.1735  0.4874 -0.2427
 6653SOL    HW222114   7.847   8.837   7.586 -1.3267 -0.7463 -0.8880
 6654SOL     OW22115   0.466   6.453   9.268 -0.2893  0.1389  0.9333
 6654SOL    HW122116   0.452   6.359   9.264 -0.3753  0.2003 -0.6037
 6654SOL    HW222117   0.378   6.491   9.268 -0.2515  0.2365  1.3359
 6655SOL     OW22118   0.395   8.168   4.710 -0.2483  0.0623  0.3633
 6655SOL    HW122119   0.480   8.210   4.703 -0.0820 -0.5266 -1.6791
 6655SOL    HW222120   0.411   8.076   4.688 -0.8023 -0.9388  3.6148
 6656SOL     OW22121   3.992   8.564   6.224  0.3702 -0.2843 -0.3766
 6656SOL    HW122122   3.996   8.610   6.141 -1.4981 -0.8222 -0.8181
 6656SOL    HW222123   4.049   8.488   6.212  0.5277 -0.0746 -0.9769
 6657SOL     OW22124   4.411   1.731   7.829  0.0408 -0.3447  0.1269
 6657SOL    HW122125   4.399   1.804   7.769  1.3202 -0.5968 -0.4843
 6657SOL    HW222126   4.402   1.653   7.773 -0.4835 -0.6401  0.6092
 6658SOL     OW22127   2.691   9.350   8.155  0.3943 -0.9711 -0.1799
 6658SOL    HW122128   2.727   9.262   8.168  0.5165 -1.1282 -1.4989
 6658SOL    HW222129   2.619   9.339   8.093 -1.4846 -0.5337  1.7775
 6659SOL     OW22130   8.315   9.411   3.545  0.1894  0.2526 -0.4844
 6659SOL    HW122131   8.254   9.454   3.486 -1.0225  0.9433  1.2094
 6659SOL    HW222132   8.270   9.331   3.573  1.7715 -1.4073 -2.3500
 6660SOL     OW22133   3.834   6.036   9.234  0.4074  0.2143  0.6018
 6660SOL    HW122134   3.884   5.962   9.201 -0.1957 -0.4610  1.1791
 6660SOL    HW222135   3.746   6.003   9.248  0.2353  0.9078  1.3002
 6661SOL     OW22136   1.008   2.196   5.051 -0.5868  0.2564  0.3719
 6661SOL    HW122137   0.993   2.102   5.045 -0.1581  0.1918  0.3355
 6661SOL    HW222138   1.087   2.212   5.000 -0.7943  0.6741  0.1663
 6662SOL     OW22139   0.413   6.681   4.730  0.0737 -0.1628 -0.0524
 6662SOL    HW122140   0.348   6.653   4.794  1.4524 -1.9722  0.6394
 6662SOL    HW222141   0.481   6.724   4.782  0.1844  0.3015 -0.5756
 6663SOL     OW22142   2.674   9.253   5.154  0.6971 -0.3777  0.5383
 6663SOL    HW122143   2.688   9.347   5.148 -0.1471 -0.3049 -0.9050
 6663SOL    HW222144   2.592   9.244   5.203  0.6203 -0.3417  0.4172
 6664SOL     OW22145   8.250   0.912   6.737  0.4820  0.0925  0.0909
 6664SOL    HW122146   8.320   0.911   6.802  1.5806 -0.0018 -1.0384
 6664SOL    HW222147   8.216   0.823   6.735 -0.1319  0.2905  1.0991
 6665SOL     OW22148   7.112   7.078   2.960  0.1627 -0.1811 -0.2158
 6665SOL    HW122149   7.070   7.131   3.028  1.6120  1.8738 -0.8358
 6665SOL    HW222150   7.171   7.020   3.008 -1.0837 -0.9630  0.4398
 6666SOL     OW22151   6.322   6.262   7.515 -0.4048  0.0882  0.0436
 6666SOL    HW122152   6.247   6.318   7.496 -0.6646  0.2384  1.4378
 6666SOL    HW222153   6.341   6.277   7.608 -1.0002 -2.7042  0.7132
 6667SOL     OW22154   0.045   1.163   0.503 -0.3235 -0.2477  0.4408
 6667SOL    HW122155   0.068   1.129   0.589 -0.5179  0.9192  0.9793
 6667SOL    HW222156   0.123   1.150   0.449  0.5551  0.9077  1.3901
 6668SOL     OW22157   2.017   6.413   0.456 -0.0245  0.3011 -0.0400
 6668SOL    HW122158   2.080   6.418   0.384  0.0948 -0.2208  0.0239
 6668SOL    HW222159   1.949   6.475   0.432 -1.1536 -1.4676 -1.7733
 6669SOL     OW22160   6.848   6.370   1.265  0.0354  0.2221 -0.0373
 6669SOL    HW122161   6.919   6.413   1.217  0.1624 -0.6459 -0.6464
 6669SOL    HW222162   6.771   6.425   1.249  0.8251  2.0172  1.8392
 6670SOL     OW22163   4.767   5.431   2.122 -0.3850  0.2725 -0.1463
 6670SOL    HW122164   4.739   5.400   2.208  0.7912  1.5364  0.7473
 6670SOL    HW222165   4.859   5.405   2.116 -0.6401 -0.4103 -1.3341
 6671SOL     OW22166   6.561   3.707   1.042  0.6123 -0.1451  0.2134
 6671SOL    HW122167   6.517   3.777   0.994 -0.1415 -0.1613  0.8552
 6671SOL    HW222168   6.497   3.678   1.107  0.8417 -1.5498 -0.1426
 6672SOL     OW22169   2.009   1.352   3.863  0.7126  0.2595 -0.4223
 6672SOL    HW122170   2.036   1.262   3.849 -0.3174 -0.0966 -0.1996
 6672SOL    HW222171   2.087   1.396   3.897  0.9894 -0.7513  0.2972
 6673SOL     OW22172   5.524   7.885   3.967  0.1527  0.1378  0.4764
 6673SOL    HW122173   5.470   7.917   4.040  1.0262 -0.4741  1.4018
 6673SOL    HW222174   5.568   7.963   3.934  1.2894  0.1227  1.9032
 6674SOL     OW22175   0.435   0.585   9.323 -0.3908  0.2111 -0.1004
 6674SOL    HW122176   0.496   0.632   9.266 -0.4162 -0.0506 -0.3493
 6674SOL    HW222177   0.377   0.538   9.263  0.8312 -1.6797  0.0991
 6675SOL     OW22178   0.579   8.878   7.657 -0.9680  0.0682 -0.6844
 6675SOL    HW122179   0.509   8.823   7.620 -2.7341  2.4744 -1.1269
 6675SOL    HW222180   0.536   8.930   7.724  1.2223 -0.8342  1.5663
 6676SOL     OW22181   6.063   0.978   9.000 -0.1578 -0.1315  0.1329
 6676SOL    HW122182   6.041   1.071   9.008 -0.1825 -0.2092  1.1487
 6676SOL    HW222183   6.126   0.975   8.929  1.3427  0.9516  1.3321
 6677SOL     OW22184   8.373   6.314   5.939 -0.1427 -0.0201  0.1259
 6677SOL    HW122185   8.318   6.261   5.995  0.0328 -1.4471 -1.0005
 6677SOL    HW222186   8.313   6.353   5.875 -0.2846  1.2629  1.0012
 6678SOL     OW22187   1.073   5.829   7.230 -0.0706 -0.3811  0.5466
 6678SOL    HW122188   1.115   5.768   7.169  0.3074  0.2686  0.1505
 6678SOL    HW222189   1.145   5.876   7.271 -0.3656 -0.0744  0.7231
 6679SOL     OW22190   7.679   4.098   7.302 -0.0455 -0.2518  0.1758
 6679SOL    HW122191   7.701   4.146   7.382  0.5084  0.8429 -0.6005
 6679SOL    HW222192   7.583   4.098   7.299 -0.1007 -1.3221  1.4159
 6680SOL     OW22193   9.234   0.350   9.028  0.6732  0.0528 -0.5830
 6680SOL    HW122194   9.274   0.374   9.112 -1.0067  2.1819 -0.2932
 6680SOL    HW222195   9.210   0.258   9.038  2.8370 -0.4637  0.2659
 6681SOL     OW22196   9.599   3.206   4.111  0.5878 -0.8043 -0.2579
 6681SOL    HW122197   9.561   3.213   4.023  0.0133 -0.6490 -0.0017
 6681SOL    HW222198   9.590   3.113   4.133  0.3604 -0.7709 -0.2038
 6682SOL     OW22199   1.021   8.645   7.039 -0.4452  0.3700  0.1105
 6682SOL    HW122200   0.930   8.640   7.066 -0.4577  1.4894  0.2874
 6682SOL    HW222201   1.071   8.643   7.121 -0.3320  0.3823  0.0428
 6683SOL     OW22202   8.318   6.707   6.588  0.2788 -0.3375 -0.2297
 6683SOL    HW122203   8.268   6.696   6.669  0.4884 -0.0623 -0.0633
 6683SOL    HW222204   8.251   6.716   6.519  0.0955  0.4930  0.0531
 6684SOL     OW22205   2.043   9.125   4.437 -0.1023 -0.1087 -0.3651
 6684SOL    HW122206   2.002   9.091   4.358 -2.3972 -0.3767  0.8320
 6684SOL    HW222207   2.028   9.220   4.433 -0.3792 -0.1428 -0.1823
 6685SOL     OW22208   2.102   1.892   6.592 -0.1775 -0.0180  0.7242
 6685SOL    HW122209   2.086   1.846   6.510  0.5479  0.8074  0.0988
 6685SOL    HW222210   2.137   1.825   6.651 -1.2151 -0.7357  0.5448
 6686SOL     OW22211   8.135   8.160   2.006 -0.0533 -0.2961 -0.1656
 6686SOL    HW122212   8.094   8.216   1.940 -0.3832  1.2494  1.2867
 6686SOL    HW222213   8.181   8.220   2.064  1.7297 -1.7645  0.0252
 6687SOL     OW22214   2.319   7.096   5.045 -0.7141  0.3860  0.6687
 6687SOL    HW122215   2.230   7.068   5.068 -0.5168  0.1487  1.1558
 6687SOL    HW222216   2.375   7.025   5.076 -0.4791 -0.3350 -1.2552
 6688SOL     OW22217   5.293   5.285   9.237  0.6335 -0.2143 -0.6367
 6688SOL    HW122218   5.272   5.359   9.180  0.5313  0.4082  0.1714
 6688SOL    HW222219   5.227   5.219   9.217 -0.3176  0.5715 -0.2222
 6689SOL     OW22220   4.081   1.066   0.377  0.2823 -0.2810 -0.0221
 6689SOL    HW122221   4.118   0.978   0.380 -2.1240 -1.3807 -0.5868
 6689SOL    HW222222   4.091   1.094   0.287  0.5728 -0.1920  0.0377
 6690SOL     OW22223   7.929   2.160   5.489 -0.0995  0.0196 -0.4589
 6690SOL    HW122224   7.930   2.084   5.431  0.6472  1.0181 -1.7984
 6690SOL    HW222225   7.987   2.223   5.447  2.3420 -0.0101  2.4879
 6691SOL     OW22226   2.045   0.461   1.184  0.1636  0.2313 -0.3752
 6691SOL    HW122227   2.140   0.460   1.198 -0.1045 -1.0257  1.8231
 6691SOL    HW222228   2.024   0.553   1.168  1.5733  0.7738  0.7023
 6692SOL     OW22229   3.582   3.284   0.538 -0.1368  0.0938 -0.0760
 6692SOL    HW122230   3.660   3.263   0.486  0.0424 -2.0598  0.9711
 6692SOL    HW222231   3.522   3.211   0.522 -0.7634  0.2493  1.4064
 6693SOL     OW22232   1.059   6.157   6.706 -0.2283 -0.1460  0.4477
 6693SOL    HW122233   1.076   6.183   6.615 -0.6694  0.3382  0.5042
 6693SOL    HW222234   1.134   6.193   6.755 -0.9294  1.2252  0.5579
 6694SOL     OW22235   9.407   7.699   0.179 -0.0575  0.3189  0.5217
 6694SOL    HW122236   9.356   7.691   0.098 -0.9289 -0.1790  1.0982
 6694SOL    HW222237   9.492   7.663   0.157 -0.7845 -1.3110  0.2493
 6695SOL     OW22238   1.954   6.170   0.561 -0.0331 -0.0969  0.1018
 6695SOL    HW122239   2.024   6.141   0.501  0.2347 -0.0374  0.3805
 6695SOL    HW222240   1.932   6.258   0.530 -1.0336 -0.6817 -0.9095
 6696SOL     OW22241   1.372   0.279   9.119 -0.1452  0.4359  0.1927
 6696SOL    HW122242   1.318   0.310   9.046  2.9640  1.9032 -1.6844
 6696SOL    HW222243   1.375   0.184   9.109 -2.4479  0.2852  0.4944
 6697SOL     OW22244   1.060   0.954   3.715  0.3115 -0.2525  0.1350
 6697SOL    HW122245   1.057   0.970   3.809 -0.2364  1.4010 -0.1444
 6697SOL    HW222246   1.122   1.019   3.681  0.6185 -0.9262 -0.6398
 6698SOL     OW22247   6.690   2.437   1.614  0.4794 -0.1174 -0.3695
 6698SOL    HW122248   6.689   2.341   1.617  0.6669 -0.0940  1.2596
 6698SOL    HW222249   6.620   2.459   1.553 -1.1374 -1.2529  1.0051
 6699SOL     OW22250   8.722   0.011   2.587  0.3137  0.0216  0.2766
 6699SOL    HW122251   8.635   0.042   2.611  0.0675  0.8234 -1.4941
 6699SOL    HW222252   8.708  -0.074   2.547  0.3051  0.2767 -0.2663
 6700SOL     OW22253   0.565   8.100   7.613  0.7246  0.3479 -0.5238
 6700SOL    HW122254   0.608   8.036   7.670  0.9611  0.4948 -0.5398
 6700SOL    HW222255   0.495   8.136   7.667  0.7091  0.2129 -0.4515
 6701SOL     OW22256   5.725   3.671   1.107 -0.9048  0.2530 -0.2259
 6701SOL    HW122257   5.655   3.736   1.109  0.7752  2.1556  0.7892
 6701SOL    HW222258   5.791   3.709   1.049 -0.1523 -0.8856 -0.1519
 6702SOL     OW22259   7.999   0.012   6.550  0.1368 -0.4289 -0.3077
 6702SOL    HW122260   8.065  -0.015   6.614 -0.5965  0.5314  0.8857
 6702SOL    HW222261   7.978  -0.069   6.502  1.0323 -1.0734  0.3557
 6703SOL     OW22262   4.841   0.488   5.400  0.2970 -0.4511  0.3889
 6703SOL    HW122263   4.845   0.439   5.482 -1.7981 -0.8546  0.2951
 6703SOL    HW222264   4.791   0.567   5.421  1.5947  0.5157 -0.0283
 6704SOL     OW22265   3.983   1.067   5.899  0.2653  0.1050 -0.1793
 6704SOL    HW122266   3.902   1.016   5.906 -0.8366  1.7072 -0.5757
 6704SOL    HW222267   3.995   1.081   5.805 -0.4859  2.0591 -0.0321
 6705SOL     OW22268   0.425   7.646   6.599 -0.3213 -0.6268  0.3784
 6705SOL    HW122269   0.519   7.663   6.594 -0.8301  2.4467 -0.6614
 6705SOL    HW222270   0.411   7.610   6.686  1.5648  0.9791  1.4212
 6706SOL     OW22271   6.214   8.578   7.362 -0.2620 -0.0460 -0.3115
 6706SOL    HW122272   6.122   8.586   7.388 -0.2895 -1.4176  0.1195
 6706SOL    HW222273   6.253   8.524   7.431  0.9803  0.8706 -0.2594
 6707SOL     OW22274   2.953   0.401   0.348  0.0086 -0.2411 -0.0033
 6707SOL    HW122275   2.892   0.436   0.414 -0.5068 -1.9627  0.5157
 6707SOL    HW222276   3.029   0.458   0.352 -1.0430  1.1915  0.2831
 6708SOL     OW22277   6.157   6.482   5.083 -0.7064  0.2589 -0.3366
 6708SOL    HW122278   6.116   6.440   5.007  0.0810 -0.0042 -0.6263
 6708SOL    HW222279   6.176   6.409   5.143 -0.2200  0.3115 -0.4220
 6709SOL     OW22280   2.971   7.102   3.652 -0.0528 -0.6161 -0.6322
 6709SOL    HW122281   2.934   7.028   3.700 -2.2016  0.4512 -0.5133
 6709SOL    HW222282   3.012   7.063   3.575 -0.9101 -1.9571 -0.4337
 6710SOL     OW22283   8.898   3.111   0.203 -0.1653  0.2898 -0.2161
 6710SOL    HW122284   8.946   3.062   0.136 -0.3850  0.8380 -0.7905
 6710SOL    HW222285   8.922   3.069   0.285  0.4302 -0.1438 -0.6003
 6711SOL     OW22286   3.852   5.902   2.579  0.2316  0.1853 -0.3300
 6711SOL    HW122287   3.785   5.858   2.528  0.5500  1.4893 -1.9702
 6711SOL    HW222288   3.820   5.899   2.669 -0.3387 -2.2004 -0.5538
 6712SOL     OW22289   7.609   8.150   7.217  0.3019  0.3214  0.4035
 6712SOL    HW122290   7.606   8.056   7.200  1.0875  0.3805 -0.1405
 6712SOL    HW222291   7.520   8.181   7.200  0.0049 -0.3498  0.7458
 6713SOL     OW22292   6.979   2.153   1.818  0.0668  0.0637 -0.0725
 6713SOL    HW122293   7.018   2.076   1.859  0.5408  0.8507  1.0019
 6713SOL    HW222294   6.989   2.138   1.724  1.5161 -0.4996  0.1467
 6714SOL     OW22295   7.466   0.666   8.334  0.2959 -0.0031  0.3923
 6714SOL    HW122296   7.560   0.650   8.321  0.7474  1.9521  0.8165
 6714SOL    HW222297   7.450   0.749   8.289 -1.2421 -0.2828  0.3640
 6715SOL     OW22298   7.825   4.800   4.872 -0.2447  0.0103 -0.2315
 6715SOL    HW122299   7.767   4.859   4.823 -0.4418  1.2722  1.4166
 6715SOL    HW222300   7.768   4.729   4.902 -0.3138 -0.2688 -0.9932
 6716SOL     OW22301   2.504   3.265   9.329 -0.1386 -0.0037 -0.4486
 6716SOL    HW122302   2.455   3.205   9.386  1.0624 -0.9625 -0.3821
 6716SOL    HW222303   2.474   3.352   9.354 -3.2528 -0.5571 -1.7434
 6717SOL     OW22304   1.464   4.646   7.378  0.1234  0.6687  0.3108
 6717SOL    HW122305   1.458   4.713   7.446  1.2105  0.1174  0.9778
 6717SOL    HW222306   1.556   4.649   7.350 -0.3895  1.2063 -1.4879
 6718SOL     OW22307   7.983   7.810   0.223 -0.7839 -0.1613 -0.4353
 6718SOL    HW122308   8.052   7.770   0.171  0.1522  0.1370  0.5488
 6718SOL    HW222309   7.963   7.745   0.291 -0.1724  0.4914  0.3827
 6719SOL     OW22310   5.923   6.672   8.512  0.1897 -0.4482 -0.1851
 6719SOL    HW122311   5.977   6.714   8.446  1.2919 -2.8502 -0.9284
 6719SOL    HW222312   5.848   6.731   8.523  1.7298  1.7578 -0.9152
 6720SOL     OW22313   1.939   5.274   4.127 -0.1833 -0.1025  0.7911
 6720SOL    HW122314   1.900   5.191   4.099 -3.1811  0.5893  2.3990
 6720SOL    HW222315   2.005   5.249   4.192  2.5541 -1.3542 -2.2200
 6721SOL     OW22316   2.537   3.951   8.917  0.4026  0.2277 -0.1646
 6721SOL    HW122317   2.443   3.944   8.933  0.5162  0.4137  0.6173
 6721SOL    HW222318   2.544   3.997   8.834 -0.1954  0.7570  0.0726
 6722SOL     OW22319   1.351   4.300   0.992 -0.6274 -0.1378  0.4886
 6722SOL    HW122320   1.367   4.267   1.080 -0.5511  0.0629  0.5522
 6722SOL    HW222321   1.399   4.240   0.934 -0.8938 -0.4236  0.5632
 6723SOL     OW22322   4.990   0.035   4.812 -0.3860  0.1847 -0.0030
 6723SOL    HW122323   4.906   0.069   4.782 -0.9328 -1.7495 -0.8588
 6723SOL    HW222324   5.022  -0.018   4.738  1.1932  0.2304  0.6121
 6724SOL     OW22325   0.226   0.792   7.709  0.6691  0.5331 -0.0642
 6724SOL    HW122326   0.205   0.701   7.688  1.1946  0.5259 -0.5942
 6724SOL    HW222327   0.273   0.788   7.792 -1.0937  0.5230  0.9880
 6725SOL     OW22328   7.865   8.109   1.142 -0.2830  1.0823  0.1775
 6725SOL    HW122329   7.834   8.146   1.059  1.5787  0.5673 -0.8068
 6725SOL    HW222330   7.940   8.164   1.166  0.6435 -0.1779  0.2745
 6726SOL     OW22331   4.050   3.991   7.220  0.7406 -0.4331 -0.3554
 6726SOL    HW122332   3.984   3.923   7.205  0.2269  0.2291 -1.2135
 6726SOL    HW222333   4.000   4.067   7.250  1.2058 -0.1718 -0.2310
 6727SOL     OW22334   5.088   0.240   1.840  0.4392 -0.0876  0.2515
 6727SOL    HW122335   5.121   0.221   1.752  2.4102  0.7374  0.7521
 6727SOL    HW222336   5.167   0.251   1.893 -0.6877  0.7451  1.8463
 6728SOL     OW22337   9.176   8.769   5.585 -0.1764  0.2133 -0.3893
 6728SOL    HW122338   9.163   8.859   5.554 -1.6379 -0.0137 -0.5039
 6728SOL    HW222339   9.264   8.746   5.556  0.9397  2.1993  1.1517
 6729SOL     OW22340   8.969   2.392   3.895  0.0252 -0.2862  0.2988
 6729SOL    HW122341   8.945   2.454   3.827 -0.1311 -1.1346 -0.4415
 6729SOL    HW222342   8.994   2.446   3.970 -2.6245  0.7027  0.5987
 6730SOL     OW22343   0.629   1.934   1.161  0.4923 -0.0087 -0.4184
 6730SOL    HW122344   0.665   1.960   1.246 -2.9204  3.7405  0.1916
 6730SOL    HW222345   0.669   1.995   1.099 -1.3426  1.2493 -0.4298
 6731SOL     OW22346   8.096   8.413   0.606  0.5797  0.7590  0.6274
 6731SOL    HW122347   8.112   8.380   0.517  2.5166 -1.1626  1.5864
 6731SOL    HW222348   8.022   8.472   0.596 -2.0775 -2.5534 -1.6431
 6732SOL     OW22349   1.662   5.636   7.722 -0.0704  0.1626 -0.2995
 6732SOL    HW122350   1.729   5.677   7.776 -0.6190  0.7654 -0.0682
 6732SOL    HW222351   1.710   5.602   7.647  0.2505  2.3124 -1.1272
 6733SOL     OW22352   9.239   7.319   5.676  0.2127  0.0613 -0.0522
 6733SOL    HW122353   9.253   7.335   5.583 -0.1620  0.7701  0.0093
 6733SOL    HW222354   9.327   7.310   5.713  0.3651 -2.8267 -0.8944
 6734SOL     OW22355   4.326   3.130   1.997 -0.4132  0.7917 -0.1012
 6734SOL    HW122356   4.394   3.087   1.946  1.5675  1.8936  1.4477
 6734SOL    HW222357   4.285   3.059   2.046 -0.4220  0.0986 -1.0818
 6735SOL     OW22358   6.216   3.885   6.677  0.0654  0.4152 -0.6191
 6735SOL    HW122359   6.162   3.807   6.664  2.1092 -1.1396 -0.4012
 6735SOL    HW222360   6.230   3.920   6.589  0.2386 -0.2768 -0.8753
 6736SOL     OW22361   6.567   8.587   5.921 -0.7791  0.1345 -0.0604
 6736SOL    HW122362   6.602   8.591   5.831 -2.9031 -0.9740 -1.0110
 6736SOL    HW222363   6.591   8.500   5.952 -2.4329 -0.5798 -0.6671
 6737SOL     OW22364   5.423   8.146   1.090 -0.5261  0.5643  0.0663
 6737SOL    HW122365   5.405   8.068   1.142 -0.7819  0.2050 -0.5504
 6737SOL    HW222366   5.354   8.208   1.115 -0.2363  0.6532  0.6624
 6738SOL     OW22367   2.111   7.254   3.945  0.6157  0.1771 -0.5256
 6738SOL    HW122368   2.200   7.273   3.975 -0.2791  0.6185  2.1022
 6738SOL    HW222369   2.090   7.327   3.886  1.6649  0.5463 -0.4620
 6739SOL     OW22370   0.703   7.104   9.289  0.3351  0.0122 -0.2295
 6739SOL    HW122371   0.796   7.119   9.273  0.5341 -0.9020 -0.0254
 6739SOL    HW222372   0.658   7.169   9.235  1.0914  0.5857 -0.1823
 6740SOL     OW22373   7.745   1.239   9.496 -0.0778 -0.1354 -0.3288
 6740SOL    HW122374   7.666   1.188   9.480  0.4517 -1.0275 -0.1538
 6740SOL    HW222375   7.814   1.193   9.448  0.2927  0.7827 -0.7010
 6741SOL     OW22376   5.299   3.346   1.773  0.3916 -0.3396 -0.1109
 6741SOL    HW122377   5.283   3.441   1.767  0.9028 -0.2952 -1.0699
 6741SOL    HW222378   5.343   3.325   1.691  0.8673 -1.3011  0.3830
 6742SOL     OW22379   9.562   2.036   6.907  0.4522 -0.1087  0.6083
 6742SOL    HW122380   9.535   2.127   6.893 -1.3440 -0.5153  1.1557
 6742SOL    HW222381   9.541   2.019   6.999  1.8626 -0.7458  0.8381
 6743SOL     OW22382   9.559   6.450   4.574 -0.4151  0.3279  0.5938
 6743SOL    HW122383   9.472   6.423   4.600 -0.7937 -0.5824 -1.4075
 6743SOL    HW222384   9.555   6.546   4.570 -0.7712  0.3970  2.1932
 6744SOL     OW22385   2.990   0.555   6.600 -0.3991 -0.0723  0.2331
 6744SOL    HW122386   3.014   0.572   6.509  0.3202 -1.8242  0.0595
 6744SOL    HW222387   3.068   0.513   6.637 -1.6680 -1.9873  0.8514
 6745SOL     OW22388   4.036   8.903   7.135 -0.2655  0.4008  0.5146
 6745SOL    HW122389   4.094   8.827   7.139  0.5293  1.0030  0.6968
 6745SOL    HW222390   3.949   8.866   7.124 -0.2545 -0.6806  3.1693
 6746SOL     OW22391   0.855   9.216   5.743 -0.3263 -0.5903  0.2949
 6746SOL    HW122392   0.909   9.242   5.668  0.9998  0.5948  1.5900
 6746SOL    HW222393   0.857   9.121   5.742  1.2956 -0.5932 -0.1041
 6747SOL     OW22394   9.063   4.473   9.292 -0.4074 -0.1236  0.4395
 6747SOL    HW122395   9.006   4.534   9.338 -0.6081 -0.4839  0.6680
 6747SOL    HW222396   9.085   4.406   9.357  0.7577  0.3200  0.5414
 6748SOL     OW22397   2.344   0.942   6.314 -0.3522 -1.0378 -0.3120
 6748SOL    HW122398   2.311   1.031   6.325  2.3623  0.1246 -0.7817
 6748SOL    HW222399   2.331   0.900   6.399 -0.6658  0.1785  0.2501
 6749SOL     OW22400   0.816   6.020   7.397 -0.0537  0.0597 -0.2890
 6749SOL    HW122401   0.754   6.033   7.325  2.7073  0.6422 -2.7364
 6749SOL    HW222402   0.827   5.925   7.402 -0.0554  0.0303 -0.8129
 6750SOL     OW22403   7.059   1.766   3.458  0.2007  0.5618 -0.2013
 6750SOL    HW122404   7.027   1.777   3.548  2.5220  1.3383  0.5914
 6750SOL    HW222405   7.074   1.855   3.427  0.2356  0.2608 -1.0759
 6751SOL     OW22406   3.794   7.923   6.307  0.4815  0.7076 -0.2152
 6751SOL    HW122407   3.823   7.976   6.233  0.8715 -1.6687 -1.8639
 6751SOL    HW222408   3.710   7.887   6.279  0.6565 -0.2794  0.4682
 6752SOL     OW22409   2.010   6.218   1.885 -0.2764 -0.7755 -0.3373
 6752SOL    HW122410   2.100   6.249   1.895 -0.8741  1.0053 -0.1061
 6752SOL    HW222411   1.976   6.217   1.975 -0.7558 -0.5559 -0.5171
 6753SOL     OW22412   8.242   8.452   8.917  0.1234 -0.1204 -0.1355
 6753SOL    HW122413   8.230   8.417   9.006  0.7697 -0.9030 -0.3423
 6753SOL    HW222414   8.278   8.379   8.867  2.1490  0.9991 -0.4391
 6754SOL     OW22415   0.728   7.788   5.849 -0.1002  0.2848  0.4427
 6754SOL    HW122416   0.772   7.703   5.853 -1.2819 -0.4466 -1.1294
 6754SOL    HW222417   0.636   7.769   5.867 -0.2598  1.3433  0.8144
 6755SOL     OW22418   1.672   7.097   1.923 -0.2497  0.3909  0.8280
 6755SOL    HW122419   1.718   7.176   1.896  0.1480 -0.1362 -0.0914
 6755SOL    HW222420   1.664   7.045   1.843  0.0696 -0.7757  1.5219
 6756SOL     OW22421   8.237   4.835   8.603  0.3965  0.1704  0.3999
 6756SOL    HW122422   8.219   4.891   8.679  1.4958 -0.0093  0.8076
 6756SOL    HW222423   8.290   4.889   8.545  1.6818 -0.4969  0.9097
 6757SOL     OW22424   0.141   3.107   2.106 -0.1670  0.0001 -0.0215
 6757SOL    HW122425   0.177   3.033   2.156  3.5130 -1.1662 -3.7578
 6757SOL    HW222426   0.206   3.176   2.117 -1.3368  1.1448 -0.0857
 6758SOL     OW22427   0.625   1.058   0.438  0.1154  0.2833 -0.4167
 6758SOL    HW122428   0.709   1.075   0.396  0.8482  0.0928  0.9254
 6758SOL    HW222429   0.647   1.023   0.524 -1.3354  0.3670  0.0264
 6759SOL     OW22430   6.312   5.775   4.577 -0.0621  0.2464  0.2264
 6759SOL    HW122431   6.266   5.701   4.617  0.1321  0.1148  0.2113
 6759SOL    HW222432   6.283   5.775   4.486 -0.5669  0.5963  0.3845
 6760SOL     OW22433   2.813   6.049   4.242  0.4573 -0.2715 -0.1664
 6760SOL    HW122434   2.802   6.139   4.271 -0.9065 -0.4202 -0.1397
 6760SOL    HW222435   2.854   6.004   4.316  1.3323  0.3543 -0.2594
 6761SOL     OW22436   5.763   0.345   5.436 -0.7114 -0.2732  0.1351
 6761SOL    HW122437   5.717   0.397   5.502 -0.3823  0.6669 -0.3578
 6761SOL    HW222438   5.762   0.400   5.358  2.2143  0.3253  0.3994
 6762SOL     OW22439   3.709   9.125   5.378 -0.1659  0.1819  0.0741
 6762SOL    HW122440   3.738   9.214   5.358 -1.5102  0.5823 -0.1981
 6762SOL    HW222441   3.706   9.122   5.473  3.3475 -0.7650  0.2719
 6763SOL     OW22442   5.901   3.021   1.886  0.3591  0.2940 -0.1601
 6763SOL    HW122443   5.943   3.103   1.859  2.3144 -0.7399 -0.4066
 6763SOL    HW222444   5.951   2.992   1.962  1.9934 -2.3458 -2.0603
 6764SOL     OW22445   1.043   4.689   3.084 -0.4203  0.1571 -0.2736
 6764SOL    HW122446   0.955   4.661   3.109  0.3310 -1.0679  1.1959
 6764SOL    HW222447   1.097   4.672   3.162  0.9247  1.8861 -0.7681
 6765SOL     OW22448   8.011   7.805   4.211 -0.0122  0.0211  0.2089
 6765SOL    HW122449   8.022   7.894   4.242  1.1021 -0.3952  1.0828
 6765SOL    HW222450   7.999   7.813   4.116  2.3451  0.9787 -0.0681
 6766SOL     OW22451   8.923   6.856   1.904  0.5346  0.0120  0.7254
 6766SOL    HW122452   8.974   6.910   1.965  2.3748  1.1828 -1.6952
 6766SOL    HW222453   8.961   6.874   1.818 -3.5690  0.5286 -1.2382
 6767SOL     OW22454   7.941   0.544   8.482 -0.1438 -0.1371  0.1267
 6767SOL    HW122455   7.999   0.470   8.499  0.3486 -0.2155 -1.6503
 6767SOL    HW222456   7.983   0.619   8.525  0.7593 -0.3868 -0.3039
 6768SOL     OW22457   0.105   0.690   7.986 -0.1010 -0.3489 -0.2692
 6768SOL    HW122458   0.087   0.675   8.079  1.1841 -0.2080  0.0143
 6768SOL    HW222459   0.146   0.609   7.956 -0.3834 -0.3420 -0.6909
 6769SOL     OW22460   0.276   8.343   4.901  0.1747  0.7571  0.4282
 6769SOL    HW122461   0.327   8.423   4.893  1.8758 -0.3182  0.0562
 6769SOL    HW222462   0.309   8.286   4.831  2.1452 -1.8833  3.2409
 6770SOL     OW22463   9.475   8.195   0.878  0.0249 -0.5350 -0.0981
 6770SOL    HW122464   9.555   8.171   0.830  0.0891  0.6481 -0.6227
 6770SOL    HW222465   9.404   8.179   0.816  0.0253  0.1062 -0.2734
 6771SOL     OW22466   3.909   1.522   2.566 -0.6458  0.0832 -0.4399
 6771SOL    HW122467   3.843   1.452   2.557 -0.2413 -0.3197 -0.2938
 6771SOL    HW222468   3.948   1.506   2.651  0.6874 -0.5948 -1.1462
 6772SOL     OW22469   5.490   9.136   3.520 -0.0092 -0.1123  0.4026
 6772SOL    HW122470   5.477   9.145   3.425 -0.7233 -0.0263  0.5113
 6772SOL    HW222471   5.402   9.138   3.557  0.2335 -0.7001  1.0230
 6773SOL     OW22472   1.113   0.810   2.867  0.4249  0.1277 -0.2487
 6773SOL    HW122473   1.062   0.873   2.918  1.0934  1.0684 -0.7068
 6773SOL    HW222474   1.137   0.858   2.788  0.8962 -0.7329 -0.6373
 6774SOL     OW22475   0.276   0.685   6.028 -0.1868  0.1140  0.0672
 6774SOL    HW122476   0.287   0.677   6.123  0.1830  0.3474  0.0441
 6774SOL    HW222477   0.291   0.596   5.995  0.9160  0.2793  0.1077
 6775SOL     OW22478   6.778   3.278   3.479  0.3274 -0.2629  0.3954
 6775SOL    HW122479   6.812   3.236   3.400  1.3330  0.8603  0.2045
 6775SOL    HW222480   6.782   3.372   3.460 -0.8262 -0.0210  1.2268
 6776SOL     OW22481   0.266   1.810   6.640 -0.1740  0.3588  0.6340
 6776SOL    HW122482   0.232   1.899   6.652  1.5263  0.7469  3.3600
 6776SOL    HW222483   0.360   1.818   6.655  0.2082 -1.7270 -0.2999
 6777SOL     OW22484   2.815   5.601   2.896 -0.1343 -0.2269 -0.2864
 6777SOL    HW122485   2.784   5.691   2.885 -1.3999 -0.4425  1.2114
 6777SOL    HW222486   2.906   5.611   2.925 -0.0347  0.5290 -0.8135
 6778SOL     OW22487   2.311   2.703   0.140  0.1376 -0.3051 -0.2778
 6778SOL    HW122488   2.330   2.747   0.057  1.1862  1.2516  0.7337
 6778SOL    HW222489   2.277   2.773   0.197 -2.3588 -1.7033  0.0788
 6779SOL     OW22490   6.471   1.363   3.670  0.0992  0.4861  0.5340
 6779SOL    HW122491   6.486   1.394   3.759  2.2475  1.5462 -0.1230
 6779SOL    HW222492   6.402   1.420   3.636 -1.5798 -0.6880  1.8434
 6780SOL     OW22493   3.734   2.850   4.298 -0.4522  0.1210 -0.1587
 6780SOL    HW122494   3.757   2.763   4.266 -1.6888 -1.1396  2.1313
 6780SOL    HW222495   3.641   2.860   4.279  0.3132  2.5270 -3.5771
 6781SOL     OW22496   9.077   6.357   5.777  0.6290  0.0851  0.6910
 6781SOL    HW122497   9.023   6.316   5.709 -0.4269  0.9096  0.9893
 6781SOL    HW222498   9.151   6.395   5.730  0.3101 -0.0185  0.0940
 6782SOL     OW22499   2.685   0.873   4.017  0.0359 -0.3213  0.6156
 6782SOL    HW122500   2.689   0.782   4.046  0.1771  0.1821  2.2863
 6782SOL    HW222501   2.720   0.923   4.091 -0.9831  1.1595  0.1454
 6783SOL     OW22502   5.703   5.621   8.141  0.1942 -0.1003 -0.0855
 6783SOL    HW122503   5.636   5.567   8.184  0.1071 -0.4470 -0.6448
 6783SOL    HW222504   5.657   5.665   8.070 -0.4366  3.0018  2.0298
 6784SOL     OW22505   4.015   8.261   1.454 -0.0165  0.2402 -0.4594
 6784SOL    HW122506   4.078   8.192   1.473 -0.6587 -0.2334  0.0267
 6784SOL    HW222507   4.042   8.297   1.370 -0.0645 -1.0820 -1.0664
 6785SOL     OW22508   4.259   2.428   7.273  0.0369  0.3425  0.2568
 6785SOL    HW122509   4.309   2.378   7.338  0.4697  1.0042  0.4445
 6785SOL    HW222510   4.217   2.498   7.324  1.5292  1.7459 -0.3446
 6786SOL     OW22511   7.819   2.708   6.063  0.3444 -0.1037  0.3143
 6786SOL    HW122512   7.775   2.793   6.069  0.9510  0.3721 -1.4061
 6786SOL    HW222513   7.751   2.649   6.030  0.5496  0.2772 -0.8261
 6787SOL     OW22514   2.133   2.917   7.525 -0.1813  0.2419 -0.1045
 6787SOL    HW122515   2.219   2.947   7.553  0.6596 -1.7716 -0.3228
 6787SOL    HW222516   2.090   2.888   7.606  0.8006 -2.1055 -0.3543
 6788SOL     OW22517   8.758   4.656   7.444  0.3029  0.9871 -0.0680
 6788SOL    HW122518   8.823   4.587   7.436  0.3586  1.0018  0.2456
 6788SOL    HW222519   8.767   4.707   7.363  0.6921  1.0001 -0.0197
 6789SOL     OW22520   6.176   7.226   9.183  0.3028  0.2434  0.6160
 6789SOL    HW122521   6.121   7.302   9.167  0.4579  0.2834  0.2494
 6789SOL    HW222522   6.181   7.219   9.278  1.0327  1.2386  0.6682
 6790SOL     OW22523   1.064   8.693   7.352 -0.4153 -0.1999  0.0356
 6790SOL    HW122524   1.134   8.718   7.412 -1.8269  3.6066  0.3513
 6790SOL    HW222525   1.008   8.636   7.404  0.6803 -0.5917  0.8350
 6791SOL     OW22526   8.024   5.842   7.588 -0.1413  0.1038  0.4374
 6791SOL    HW122527   7.953   5.901   7.562  0.6093  1.1896  0.7930
 6791SOL    HW222528   8.072   5.891   7.654  0.6879 -0.7999  0.5163
 6792SOL     OW22529   2.032   3.241   0.276  0.2973  0.1212  0.0725
 6792SOL    HW122530   2.016   3.198   0.360 -1.4815  0.3019 -0.1363
 6792SOL    HW222531   2.111   3.293   0.290  0.9407 -1.1018  1.1285
 6793SOL     OW22532   6.626   3.931   4.199 -0.1365  0.3781 -0.0015
 6793SOL    HW122533   6.639   3.844   4.238 -0.1216  0.2224 -0.3452
 6793SOL    HW222534   6.652   3.919   4.107 -1.7880  0.3049 -0.4945
 6794SOL     OW22535   3.473   0.086   0.191  0.0564 -0.0464 -0.1046
 6794SOL    HW122536   3.438   0.028   0.124 -1.3910  0.9965 -0.3252
 6794SOL    HW222537   3.453   0.174   0.159 -0.0588  0.4942  1.3638
 6795SOL     OW22538   0.171   6.677   7.783 -0.2925 -0.3764  0.0706
 6795SOL    HW122539   0.150   6.733   7.858 -0.4615  0.2993 -0.4692
 6795SOL    HW222540   0.090   6.675   7.732 -1.0307 -2.9590  1.1940
 6796SOL     OW22541   7.641   7.289   6.776  0.2626 -0.4142 -0.1579
 6796SOL    HW122542   7.654   7.214   6.833  1.0018  0.7348  1.2362
 6796SOL    HW222543   7.715   7.287   6.715 -0.3142 -1.4166 -0.8459
 6797SOL     OW22544   7.722   1.070   6.163  0.0376  0.3299  0.0405
 6797SOL    HW122545   7.760   1.114   6.087  1.1722 -0.6635  0.0080
 6797SOL    HW222546   7.643   1.028   6.129  0.3875  0.1229 -0.5360
 6798SOL     OW22547   3.341   9.291   6.541 -0.0338 -0.2392  0.0789
 6798SOL    HW122548   3.390   9.212   6.520 -0.0394  0.0387 -1.0964
 6798SOL    HW222549   3.336   9.293   6.636  0.5243 -1.3063  0.1396
 6799SOL     OW22550   4.566   6.935   6.174  0.2863  0.2532  0.0699
 6799SOL    HW122551   4.481   6.938   6.131 -0.4063 -1.6748  1.2001
 6799SOL    HW222552   4.620   6.878   6.119 -0.5125 -1.9815  1.5030
 6800SOL     OW22553   3.391   0.253   6.400  0.1412 -0.1809  0.5332
 6800SOL    HW122554   3.466   0.228   6.453  1.2048  0.2658 -0.7071
 6800SOL    HW222555   3.321   0.270   6.463  1.0995 -0.5162  1.7148
 6801SOL     OW22556   9.614   5.693   1.494  0.4100  0.1654 -0.3069
 6801SOL    HW122557   9.669   5.703   1.416 -0.2031 -0.8449 -0.8837
 6801SOL    HW222558   9.598   5.783   1.524  1.6824  0.5015 -0.6078
 6802SOL     OW22559   2.313   7.945   6.607  0.1305  0.4590  0.0392
 6802SOL    HW122560   2.319   8.034   6.640 -0.4653  1.2335 -1.8006
 6802SOL    HW222561   2.403   7.919   6.591  0.2394  1.4574 -1.1374
 6803SOL     OW22562   0.067   3.867   1.835  0.3518  0.4814 -0.2617
 6803SOL    HW122563   0.048   3.904   1.921  2.9038  0.9628  0.1622
 6803SOL    HW222564   0.085   3.944   1.780  0.1978  0.1029 -0.8521
 6804SOL     OW22565   6.934   5.327   7.579  0.0564 -0.0124 -0.2464
 6804SOL    HW122566   6.905   5.278   7.502 -1.3252  1.6165 -0.8392
 6804SOL    HW222567   6.943   5.261   7.648 -2.5334 -1.0245 -0.7626
 6805SOL     OW22568   0.762   7.594   0.576 -0.1586  0.0211 -0.3894
 6805SOL    HW122569   0.723   7.681   0.568 -0.6656 -0.3698 -3.2333
 6805SOL    HW222570   0.740   7.550   0.494  1.0442 -2.4101  0.4942
 6806SOL     OW22571   6.202   5.283   9.599  0.6323  0.1782  0.3258
 6806SOL    HW122572   6.165   5.287   9.511  2.0480 -1.1044 -0.3839
 6806SOL    HW222573   6.253   5.364   9.607 -0.5190  0.9092  0.4854
 6807SOL     OW22574   2.137   9.083   8.348 -0.2657  0.1764  0.1628
 6807SOL    HW122575   2.208   9.143   8.370  0.1153 -0.4184  0.6281
 6807SOL    HW222576   2.139   9.076   8.253 -0.1745  0.7316  0.1247
 6808SOL     OW22577   7.655   2.719   5.538 -0.3758 -0.2467 -0.4764
 6808SOL    HW122578   7.691   2.796   5.582 -0.2294  0.2944 -1.5183
 6808SOL    HW222579   7.727   2.656   5.537 -0.6476 -0.6206  0.8345
 6809SOL     OW22580   1.930   8.347   5.715  0.3492 -0.3005  0.0928
 6809SOL    HW122581   1.853   8.291   5.710  0.8500 -0.9271 -0.8300
 6809SOL    HW222582   1.896   8.435   5.700 -0.5082 -0.2451  1.9727
 6810SOL     OW22583   3.740   6.312   5.217  0.3250  0.0534  0.0880
 6810SOL    HW122584   3.809   6.333   5.280  0.5839 -0.3213 -0.0655
 6810SOL    HW222585   3.659   6.318   5.267  0.3719  1.5697  0.0127
 6811SOL     OW22586   5.290   4.462   3.629 -1.1860  0.1881 -0.0488
 6811SOL    HW122587   5.197   4.484   3.630 -1.2074  0.0962  0.0432
 6811SOL    HW222588   5.319   4.476   3.719 -0.9586  0.8493 -0.2193
 6812SOL     OW22589   8.891   0.182   4.852  0.0559 -0.2836 -0.0633
 6812SOL    HW122590   8.891   0.137   4.767  0.8712  2.0364 -1.3945
 6812SOL    HW222591   8.903   0.112   4.916  1.7122 -1.9363 -2.0169
 6813SOL     OW22592   6.873   0.291   0.053  0.2548  0.0512 -0.1881
 6813SOL    HW122593   6.889   0.197   0.063 -2.0391 -0.2872  1.3591
 6813SOL    HW222594   6.841   0.318   0.140  0.8636  2.2764 -0.6030
 6814SOL     OW22595   8.725   6.935   3.629 -0.5777  0.3394  0.2773
 6814SOL    HW122596   8.783   6.872   3.586 -1.3934  0.9410 -1.8245
 6814SOL    HW222597   8.782   7.009   3.650 -0.2520  0.2407 -0.2361
 6815SOL     OW22598   5.191   8.264   1.611  0.3487 -0.5360  0.3730
 6815SOL    HW122599   5.190   8.215   1.529  1.3541 -2.4135  1.4175
 6815SOL    HW222600   5.271   8.317   1.606  0.4217 -0.6658  0.1377
 6816SOL     OW22601   0.834   0.748   5.298  0.2681  0.1514  0.3564
 6816SOL    HW122602   0.863   0.826   5.346  0.5303  2.2002 -2.8173
 6816SOL    HW222603   0.739   0.750   5.306  0.3554 -0.8396  2.4758
 6817SOL     OW22604   6.515   4.654   1.661  0.1370 -0.1817 -0.3002
 6817SOL    HW122605   6.485   4.723   1.601  0.5510 -0.6331 -1.0509
 6817SOL    HW222606   6.484   4.573   1.620  1.0305 -0.5464 -0.2652
 6818SOL     OW22607   4.114   6.829   8.820 -0.0710 -0.1079  0.2435
 6818SOL    HW122608   4.133   6.845   8.913 -1.4762  1.7179  0.2666
 6818SOL    HW222609   4.200   6.809   8.782  0.7691  0.6010  1.6614
 6819SOL     OW22610   9.443   0.483   5.877  0.0692  0.1219  0.4729
 6819SOL    HW122611   9.511   0.502   5.813 -0.9740 -2.1375 -1.4496
 6819SOL    HW222612   9.392   0.564   5.883  1.7917  1.2438  0.5674
 6820SOL     OW22613   5.647   7.562   7.470  0.3319 -0.6981  0.2287
 6820SOL    HW122614   5.566   7.613   7.463  0.6424  0.0888  1.8414
 6820SOL    HW222615   5.620   7.472   7.457 -0.6503 -0.3644 -0.1342
 6821SOL     OW22616   8.527   3.786   9.015  0.6561  0.8695 -0.3815
 6821SOL    HW122617   8.529   3.852   9.085  1.2480  0.0896  0.3662
 6821SOL    HW222618   8.434   3.774   8.996  0.3203 -0.2757  1.6542
 6822SOL     OW22619   3.349   9.414   4.856 -0.6807  0.2215 -0.1809
 6822SOL    HW122620   3.326   9.322   4.869 -1.5281  0.5339  0.6128
 6822SOL    HW222621   3.445   9.415   4.864 -0.6662 -0.5751 -0.1146
 6823SOL     OW22622   5.428   3.217   7.983  0.4420 -0.6379  0.7415
 6823SOL    HW122623   5.399   3.128   8.000 -0.9422 -0.5099 -0.7484
 6823SOL    HW222624   5.456   3.217   7.892  0.3235  0.4819  0.6930
 6824SOL     OW22625   2.716   7.114   6.068 -0.2550 -0.3230  0.1524
 6824SOL    HW122626   2.756   7.099   5.983  1.5603 -1.5270  1.1592
 6824SOL    HW222627   2.692   7.027   6.099 -1.9380  0.1945  0.4449
 6825SOL     OW22628   7.124   7.082   0.362  0.1026 -0.5976  0.2597
 6825SOL    HW122629   7.102   7.152   0.423  0.1699 -0.9248  0.6650
 6825SOL    HW222630   7.211   7.053   0.389 -1.0520 -2.7671  1.9428
 6826SOL     OW22631   4.164   1.296   6.321  0.5970  0.3240  0.0697
 6826SOL    HW122632   4.228   1.304   6.392  0.7240  0.9567 -0.1080
 6826SOL    HW222633   4.216   1.276   6.243  0.5392  0.4437  0.0001
 6827SOL     OW22634   4.837   4.492   2.242 -0.8563 -0.5372 -0.2530
 6827SOL    HW122635   4.904   4.453   2.298 -0.6297  0.4492  0.1848
 6827SOL    HW222636   4.754   4.465   2.281 -0.7038  0.4326  0.8016
 6828SOL     OW22637   3.974   3.417   3.365 -0.1247 -0.0942 -0.3129
 6828SOL    HW122638   3.944   3.384   3.280  1.3847 -0.8735 -0.5755
 6828SOL    HW222639   4.063   3.448   3.349 -0.4422  1.3774  0.6203
 6829SOL     OW22640   0.075   6.204   4.550 -0.0381 -0.0205  0.4943
 6829SOL    HW122641   0.025   6.283   4.570 -2.5344 -1.5424  0.7083
 6829SOL    HW222642   0.069   6.150   4.629 -1.1994 -1.7514 -0.6988
 6830SOL     OW22643   6.645   2.928   1.117  0.3247  0.0694  0.1012
 6830SOL    HW122644   6.710   2.919   1.047  1.3131  0.8214  0.8919
 6830SOL    HW222645   6.619   3.021   1.113 -1.1277 -0.3323 -0.5493
 6831SOL     OW22646   2.253   1.581   6.998 -0.9704  0.2320 -0.0533
 6831SOL    HW122647   2.287   1.539   7.078  2.5638  1.5163 -0.7076
 6831SOL    HW222648   2.195   1.649   7.030 -0.9529 -0.3712  1.3436
 6832SOL     OW22649   3.049   8.675   1.093  0.2578  0.3223 -0.0031
 6832SOL    HW122650   2.980   8.608   1.097  0.3936  0.1937  0.2516
 6832SOL    HW222651   3.116   8.638   1.035 -1.2454  1.7482 -2.8504
 6833SOL     OW22652   3.004   3.855   1.670  0.5117  0.2616  0.5105
 6833SOL    HW122653   2.971   3.792   1.606  1.3532 -0.2660  0.5770
 6833SOL    HW222654   3.080   3.895   1.627  0.7633  0.2884  0.9674
 6834SOL     OW22655   8.544   8.690   7.171  0.1434  0.0992 -0.2104
 6834SOL    HW122656   8.637   8.676   7.188  0.2510  0.1101 -0.7746
 6834SOL    HW222657   8.534   8.675   7.077 -0.4122  0.1747 -0.1679
 6835SOL     OW22658   8.737   3.755   9.315  0.0016 -0.7673 -0.1598
 6835SOL    HW122659   8.698   3.748   9.402 -2.9832 -2.3812 -1.4933
 6835SOL    HW222660   8.684   3.821   9.270  1.5632  0.1172 -0.7917
 6836SOL     OW22661   1.471   2.983   7.063  0.0347  0.1136 -0.5678
 6836SOL    HW122662   1.406   3.020   7.123  1.9872  0.7704  1.2577
 6836SOL    HW222663   1.485   3.053   6.999  0.8531  1.0494  0.5917
 6837SOL     OW22664   4.323   4.773   1.618 -0.0049 -0.2556 -0.6314
 6837SOL    HW122665   4.253   4.837   1.599  0.9574  1.2409  0.6528
 6837SOL    HW222666   4.404   4.822   1.604  0.7778 -1.4172 -0.2672
 6838SOL     OW22667   8.412   7.247   7.867 -0.5348  0.6411 -0.1741
 6838SOL    HW122668   8.392   7.265   7.775 -3.0897 -0.0969  0.1428
 6838SOL    HW222669   8.336   7.280   7.914 -0.1317 -0.6764  1.4841
 6839SOL     OW22670   9.386   3.664   4.244  0.9531 -0.1574  0.4741
 6839SOL    HW122671   9.456   3.658   4.179 -0.6638 -1.1757 -1.2677
 6839SOL    HW222672   9.367   3.757   4.251  1.0956 -0.0319 -0.6245
 6840SOL     OW22673   3.752   3.188   3.991 -0.2543 -0.3770  0.5329
 6840SOL    HW122674   3.696   3.187   4.068  1.5152  1.5978  1.9645
 6840SOL    HW222675   3.737   3.274   3.951 -0.5099 -1.0437 -0.8613
 6841SOL     OW22676   3.988   3.714   6.824  0.3735 -0.1047 -0.3167
 6841SOL    HW122677   3.972   3.644   6.761  0.4727 -0.4932  0.0798
 6841SOL    HW222678   4.061   3.764   6.786  0.1763 -0.1030 -0.6943
 6842SOL     OW22679   8.520   5.526   7.098 -0.1842 -0.6481  0.1817
 6842SOL    HW122680   8.484   5.442   7.070  1.7955 -0.8136 -2.1453
 6842SOL    HW222681   8.582   5.503   7.168  0.5797 -1.1846 -0.6568
 6843SOL     OW22682   2.614   4.301   0.035  0.4223  0.1555 -0.2862
 6843SOL    HW122683   2.596   4.228  -0.024  0.3810 -1.2726  1.4151
 6843SOL    HW222684   2.700   4.334   0.007  1.2905 -1.7217  0.0318
 6844SOL     OW22685   3.947   1.580   4.713  0.3387 -0.1940 -0.1916
 6844SOL    HW122686   3.992   1.596   4.796  0.5811  0.7344 -0.4862
 6844SOL    HW222687   3.924   1.488   4.715 -1.0496  0.1386  1.5925
 6845SOL     OW22688   1.282   0.427   8.319 -0.3303 -0.2772 -0.3672
 6845SOL    HW122689   1.335   0.347   8.318  0.2682  0.0661  1.1231
 6845SOL    HW222690   1.261   0.440   8.411 -0.0938  1.5065 -0.5347
 6846SOL     OW22691   5.269   7.009   0.437 -1.3092 -0.5710  0.4944
 6846SOL    HW122692   5.307   7.064   0.367  0.4780  1.0609  2.6126
 6846SOL    HW222693   5.325   6.932   0.440 -1.2664 -0.5502  0.2880
 6847SOL     OW22694   3.137   1.694   0.903  0.0857 -0.0436  0.5005
 6847SOL    HW122695   3.129   1.613   0.852 -1.9520 -0.7040  1.7363
 6847SOL    HW222696   3.046   1.722   0.918  0.6374  0.7129  2.7841
 6848SOL     OW22697   1.095   1.434   8.115  0.0163  0.1146  0.1602
 6848SOL    HW122698   1.077   1.527   8.131  1.6862  0.4528  0.2782
 6848SOL    HW222699   1.118   1.430   8.022  2.1898  0.2594  0.6332
 6849SOL     OW22700   8.737   0.773   3.977 -0.4413  0.3979  0.1945
 6849SOL    HW122701   8.716   0.682   3.957 -1.5265  0.8527 -0.8814
 6849SOL    HW222702   8.740   0.816   3.891  0.9559  1.2056  0.6196
 6850SOL     OW22703   1.605   0.702   6.015 -0.1456  0.3774  0.0985
 6850SOL    HW122704   1.580   0.637   6.081 -0.5395 -0.3427 -0.7402
 6850SOL    HW222705   1.619   0.651   5.935  0.7405  1.1844 -0.2739
 6851SOL     OW22706   4.841   3.751   8.039 -0.4351 -0.4193 -0.1531
 6851SOL    HW122707   4.821   3.844   8.026 -2.3523 -0.6523  0.8392
 6851SOL    HW222708   4.936   3.748   8.040 -0.2778  1.2960 -1.7982
 6852SOL     OW22709   1.149   0.977   2.655 -0.6158  0.5353  0.0367
 6852SOL    HW122710   1.076   1.034   2.678 -1.0698  0.1097 -0.3270
 6852SOL    HW222711   1.209   1.033   2.605  0.1725  1.3563  1.8149
 6853SOL     OW22712   7.867   6.072   2.390 -0.0217  0.2779  0.0617
 6853SOL    HW122713   7.849   6.166   2.381 -1.0774 -0.0088 -1.1277
 6853SOL    HW222714   7.960   6.064   2.371 -0.0275  1.0322 -0.3375
 6854SOL     OW22715   4.733   5.711   8.111  0.0721  0.5637  0.7028
 6854SOL    HW122716   4.641   5.729   8.129 -0.1987  0.3206 -0.3755
 6854SOL    HW222717   4.756   5.770   8.040  0.0863 -0.9642 -0.6181
 6855SOL     OW22718   9.061   3.287   4.835 -0.0025 -0.4024  0.6025
 6855SOL    HW122719   9.147   3.306   4.799  0.3145  0.4965  1.7605
 6855SOL    HW222720   9.038   3.366   4.885 -2.2132  0.0409 -0.9823
 6856SOL     OW22721   5.855   7.059   8.460 -0.0240 -0.3723  0.5842
 6856SOL    HW122722   5.798   6.982   8.468 -1.6996  0.8108  0.6442
 6856SOL    HW222723   5.843   7.106   8.542  0.9258  0.0077  0.5191
 6857SOL     OW22724   5.877   3.435   4.581 -0.2070 -0.9494 -0.7868
 6857SOL    HW122725   5.914   3.489   4.511 -1.0778  0.4049 -0.2547
 6857SOL    HW222726   5.930   3.457   4.658 -2.6224  1.8663  0.2566
 6858SOL     OW22727   8.514   0.618   1.640 -0.3819 -0.9605  0.1800
 6858SOL    HW122728   8.581   0.678   1.673 -1.0210 -0.9332  1.4596
 6858SOL    HW222729   8.469   0.586   1.718 -4.0911  1.5620 -0.6943
 6859SOL     OW22730   2.560   3.597   9.276 -0.1296 -0.0916 -0.5878
 6859SOL    HW122731   2.505   3.553   9.211 -1.1376 -0.2274  0.3212
 6859SOL    HW222732   2.543   3.551   9.358  2.0623 -0.7271 -0.4280
 6860SOL     OW22733   8.528   0.890   7.353  0.6640 -0.0930 -0.5262
 6860SOL    HW122734   8.451   0.855   7.307 -0.5993  1.9879 -0.1466
 6860SOL    HW222735   8.592   0.907   7.283 -1.0656  2.6167 -1.6112
 6861SOL     OW22736   2.783   5.659   5.444  0.5896  0.0761 -0.7940
 6861SOL    HW122737   2.825   5.626   5.523  2.4219 -0.9976 -2.1307
 6861SOL    HW222738   2.844   5.723   5.408  0.2944 -0.2137 -1.8697
 6862SOL     OW22739   4.708   8.320   7.373  0.0463  0.5183 -0.1953
 6862SOL    HW122740   4.784   8.339   7.428 -1.0775  2.8890  0.6971
 6862SOL    HW222741   4.730   8.357   7.288  0.6097 -0.4960 -0.5044
 6863SOL     OW22742   1.702   2.312   7.302 -0.1715 -0.1109 -0.8100
 6863SOL    HW122743   1.678   2.339   7.213 -0.7275  2.0000 -0.0945
 6863SOL    HW222744   1.621   2.277   7.339 -1.1900  2.9349  0.1615
 6864SOL     OW22745   2.352   3.580   1.610  0.2386  0.0563  0.1526
 6864SOL    HW122746   2.426   3.521   1.619  0.8110  0.7205 -0.1273
 6864SOL    HW222747   2.292   3.534   1.551  0.4165 -0.4944  0.3997
 6865SOL     OW22748   7.625   9.203   4.555 -0.7444  0.1234  0.2556
 6865SOL    HW122749   7.595   9.281   4.603  0.5081  0.1944  0.9486
 6865SOL    HW222750   7.545   9.167   4.516 -1.4931  1.1756  0.7766
 6866SOL     OW22751   3.356   0.748   6.505 -0.1714 -0.0362  0.0223
 6866SOL    HW122752   3.364   0.704   6.421 -2.5494  1.9351 -1.3549
 6866SOL    HW222753   3.436   0.801   6.512  0.8905 -1.5524 -0.0741
 6867SOL     OW22754   0.661   7.026   8.348  0.3187  0.4243  0.3270
 6867SOL    HW122755   0.659   7.118   8.377 -0.0561  0.2107  1.0044
 6867SOL    HW222756   0.679   6.977   8.428 -0.6145 -0.1777  0.1681
 6868SOL     OW22757   0.405   7.293   6.504 -0.5754  0.4383  0.4464
 6868SOL    HW122758   0.342   7.242   6.453 -1.4721  3.0068 -1.2145
 6868SOL    HW222759   0.354   7.364   6.541  0.9898  1.4497  0.7567
 6869SOL     OW22760   9.278   6.144   7.644  0.0033 -0.2713 -0.2497
 6869SOL    HW122761   9.242   6.185   7.565  1.1266 -0.8339 -1.0771
 6869SOL    HW222762   9.228   6.063   7.654 -0.6234  0.1426  0.0369
 6870SOL     OW22763   6.779   8.775   2.128 -0.1707 -0.2059  0.4765
 6870SOL    HW122764   6.801   8.732   2.211 -0.8197 -0.4257  0.5404
 6870SOL    HW222765   6.688   8.751   2.111 -0.8591  1.8229  0.9413
 6871SOL     OW22766   3.940   1.932   3.487 -0.1511 -0.2304 -0.0978
 6871SOL    HW122767   3.941   1.849   3.439 -0.8253  0.7400 -1.8966
 6871SOL    HW222768   3.862   1.926   3.543 -1.1830 -0.1906 -1.4646
 6872SOL     OW22769   8.550   0.577   8.281  0.1793  0.1632  0.2922
 6872SOL    HW122770   8.545   0.488   8.247  0.5966  0.6929 -1.2705
 6872SOL    HW222771   8.475   0.586   8.339  0.7771 -1.5563  1.4027
 6873SOL     OW22772   1.712   6.172   4.003  0.1611  0.0650  0.5845
 6873SOL    HW122773   1.706   6.094   4.057  2.3956  0.0056  0.8449
 6873SOL    HW222774   1.749   6.239   4.061 -0.7354  1.0332  0.0762
 6874SOL     OW22775   2.834   5.647   3.246  0.7691 -0.0194 -0.3553
 6874SOL    HW122776   2.842   5.663   3.340 -0.7347  0.0810 -0.2200
 6874SOL    HW222777   2.789   5.724   3.212 -0.8704 -1.0907 -0.7384
 6875SOL     OW22778   9.009   4.455   3.339  0.7425 -0.0965  0.2030
 6875SOL    HW122779   9.040   4.384   3.395  0.8746 -0.2594 -0.0759
 6875SOL    HW222780   9.077   4.521   3.344 -0.7863  1.4951  3.0936
 6876SOL     OW22781   6.385   5.323   7.078  0.3263  0.3765 -0.3056
 6876SOL    HW122782   6.354   5.234   7.092  0.8547  0.1196 -0.7613
 6876SOL    HW222783   6.336   5.375   7.141  1.1857 -0.4709  1.1184
 6877SOL     OW22784   8.169   2.414   7.332  0.3369  0.0548 -0.6340
 6877SOL    HW122785   8.199   2.493   7.378  0.0557  0.4019 -1.0301
 6877SOL    HW222786   8.148   2.352   7.401  1.2452  0.0700 -0.3309
 6878SOL     OW22787   6.067   8.826   8.556  0.3492 -0.6065  0.2172
 6878SOL    HW122788   6.023   8.870   8.629 -0.2407 -1.0085  0.1101
 6878SOL    HW222789   6.137   8.776   8.598  1.7445  1.2517  0.2469
 6879SOL     OW22790   7.244   0.278   0.380 -0.0947 -0.0561  0.9452
 6879SOL    HW122791   7.292   0.290   0.463  0.2543  1.7667  0.5238
 6879SOL    HW222792   7.207   0.190   0.387  2.8615 -1.4030  1.5359
 6880SOL     OW22793   6.874   1.350   5.457 -0.2880 -0.3033 -0.3567
 6880SOL    HW122794   6.865   1.297   5.378 -0.6045  0.2849 -0.7183
 6880SOL    HW222795   6.803   1.414   5.452  0.9901  1.1576 -0.7048
 6881SOL     OW22796   7.821   6.992   8.738  1.1943 -0.3854 -0.4574
 6881SOL    HW122797   7.885   6.992   8.809  1.1257 -0.4427 -0.3953
 6881SOL    HW222798   7.743   7.032   8.776  1.3436  0.1123 -0.6662
 6882SOL     OW22799   8.696   1.941   6.084  0.0501  0.1771 -0.1174
 6882SOL    HW122800   8.717   1.950   5.991 -0.7038 -0.5387 -0.3661
 6882SOL    HW222801   8.700   2.030   6.119 -0.5690  0.5772 -1.0332
 6883SOL     OW22802   9.107   8.177   4.372  0.2847  0.1517 -0.0258
 6883SOL    HW122803   9.029   8.143   4.327  0.4435  0.8847 -0.9026
 6883SOL    HW222804   9.165   8.204   4.300  1.7928 -1.2942  0.5727
 6884SOL     OW22805   4.423   5.905   5.986 -0.5045 -0.5709 -0.1469
 6884SOL    HW122806   4.503   5.912   5.933 -0.0672  1.5019  0.6828
 6884SOL    HW222807   4.429   5.819   6.028  0.2754 -1.2805 -1.6390
 6885SOL     OW22808   9.088   1.992   2.696 -0.4423 -0.4398  0.7342
 6885SOL    HW122809   9.118   1.950   2.615  0.1902  0.2797  0.5853
 6885SOL    HW222810   9.127   2.079   2.694 -0.2508 -0.4760  1.9188
 6886SOL     OW22811   3.058   9.070   3.206 -0.0348  0.5354  0.5028
 6886SOL    HW122812   3.107   9.142   3.167 -0.1566  0.5490  0.3747
 6886SOL    HW222813   3.125   9.010   3.238  0.2271 -1.5728 -3.3881
 6887SOL     OW22814   7.378   8.125   1.071 -0.2322 -0.4336  0.0994
 6887SOL    HW122815   7.417   8.048   1.113 -1.0344 -1.6177 -1.2519
 6887SOL    HW222816   7.399   8.198   1.130  1.2346 -1.5409  1.0108
 6888SOL     OW22817   6.744   4.848   6.707  0.0656 -0.1172 -0.6790
 6888SOL    HW122818   6.675   4.815   6.764  0.7169 -1.8737 -0.8415
 6888SOL    HW222819   6.773   4.771   6.657  1.7137  0.6904 -1.0454
 6889SOL     OW22820   5.353   3.378   3.548  0.5850 -0.2347 -0.5352
 6889SOL    HW122821   5.426   3.420   3.595  0.2192  0.3026 -0.4419
 6889SOL    HW222822   5.292   3.449   3.531 -2.1904 -1.2850  3.4763
 6890SOL     OW22823   1.026   9.030   2.900  0.0416 -0.0846  0.0598
 6890SOL    HW122824   0.996   8.961   2.840 -0.1863 -0.4363  0.5703
 6890SOL    HW222825   1.114   9.003   2.926  1.2092  1.3688 -2.0877
 6891SOL     OW22826   6.570   3.637   6.332  0.0482 -0.3377 -0.6815
 6891SOL    HW122827   6.598   3.635   6.241  1.2824  1.4528 -0.3992
 6891SOL    HW222828   6.651   3.628   6.382 -0.6119 -1.2968  0.2681
 6892SOL     OW22829   3.914   9.153   7.007 -0.2390 -0.5012 -0.1464
 6892SOL    HW122830   3.907   9.080   7.069 -2.4894  0.0958  0.3728
 6892SOL    HW222831   4.003   9.185   7.019  0.3603 -2.2817  0.5998
 6893SOL     OW22832   6.165   1.803   1.811  0.5428 -0.2832 -0.1832
 6893SOL    HW122833   6.214   1.723   1.833  0.4224 -0.1005  0.7957
 6893SOL    HW222834   6.201   1.870   1.868  0.4794  0.3150 -0.8370
 6894SOL     OW22835   9.500   4.745   0.145  0.0482 -0.1166  0.2371
 6894SOL    HW122836   9.580   4.719   0.189  0.2149 -0.9249 -0.5040
 6894SOL    HW222837   9.525   4.752   0.052 -0.4192  0.9800  0.1754
 6895SOL     OW22838   1.951   0.329   1.651  0.3072 -0.1354  0.1407
 6895SOL    HW122839   1.950   0.311   1.745 -0.7601 -1.6281 -0.1300
 6895SOL    HW222840   2.040   0.362   1.634  1.3534 -2.2181  1.2620
 6896SOL     OW22841   5.535   8.195   7.255 -0.0733 -0.0218 -0.0239
 6896SOL    HW122842   5.557   8.125   7.318 -1.1308  0.9908  1.5345
 6896SOL    HW222843   5.613   8.250   7.253  0.4973 -0.8306 -0.7112
 6897SOL     OW22844   7.448   8.973   6.454 -0.3373 -0.4852  0.8461
 6897SOL    HW122845   7.427   8.937   6.540 -1.0726 -1.8215  0.1404
 6897SOL    HW222846   7.452   8.897   6.397 -1.6528  0.5268 -0.6651
 6898SOL     OW22847   6.922   1.088   0.943 -0.1098 -0.2792  0.3885
 6898SOL    HW122848   6.937   1.175   0.980  2.0414 -0.2957 -0.3461
 6898SOL    HW222849   6.953   1.028   1.011 -1.1087 -0.5049  0.6768
 6899SOL     OW22850   0.812   9.359   5.208  0.0532 -0.0351  0.1740
 6899SOL    HW122851   0.860   9.407   5.275  1.7124  0.7391 -1.4900
 6899SOL    HW222852   0.845   9.269   5.213  0.5250  0.1320  0.0959
 6900SOL     OW22853   1.487   2.141   5.447  0.5561 -0.1227  0.5735
 6900SOL    HW122854   1.495   2.185   5.532  0.0955  0.2811  0.4157
 6900SOL    HW222855   1.466   2.050   5.468  2.5294 -0.5391  0.9324
 6901SOL     OW22856   1.684   1.604   5.972 -0.3703  0.0560 -0.2041
 6901SOL    HW122857   1.763   1.640   5.933 -1.1746 -0.8931 -2.9339
 6901SOL    HW222858   1.615   1.666   5.948 -0.8616 -0.4490 -0.1301
 6902SOL     OW22859   1.276   3.681   3.448 -0.6721 -0.1166 -0.1324
 6902SOL    HW122860   1.277   3.745   3.377  0.0578  1.3581  1.1431
 6902SOL    HW222861   1.336   3.612   3.419  0.3135  0.8984 -0.5822
 6903SOL     OW22862   3.599   3.931   8.585  0.2640  0.2142 -0.2851
 6903SOL    HW122863   3.584   3.892   8.499  0.5621  1.6531 -1.0189
 6903SOL    HW222864   3.601   4.025   8.568 -0.9660  0.6127  1.4906
 6904SOL     OW22865   0.142   5.414   0.932  0.2368  0.2433 -0.4184
 6904SOL    HW122866   0.187   5.361   0.998 -0.2116 -0.5621 -0.7559
 6904SOL    HW222867   0.208   5.431   0.865  0.3570  0.0255 -0.3555
 6905SOL     OW22868   7.236   8.147   7.772 -0.3506 -0.4875 -0.1479
 6905SOL    HW122869   7.215   8.089   7.845 -0.7330  2.3735  2.1884
 6905SOL    HW222870   7.332   8.151   7.772 -0.3663  1.0303  1.6006
 6906SOL     OW22871   2.791   5.091   0.399  0.0633  0.1581 -0.1520
 6906SOL    HW122872   2.874   5.129   0.429 -0.3874  0.0881  1.2533
 6906SOL    HW222873   2.726   5.126   0.459 -0.8909 -0.0714 -1.0237
 6907SOL     OW22874   3.899   2.466   4.893  0.5800  0.5472  0.5581
 6907SOL    HW122875   3.953   2.508   4.826  0.0961 -0.6879 -0.6528
 6907SOL    HW222876   3.830   2.421   4.844  0.3709 -0.6417  1.8668
 6908SOL     OW22877   5.638   7.331   0.789 -0.1364 -0.5308  0.2838
 6908SOL    HW122878   5.642   7.259   0.851  1.7653  0.4220  1.3615
 6908SOL    HW222879   5.662   7.408   0.841  0.3241  0.4798 -1.3657
 6909SOL     OW22880   3.374   6.970   6.615 -0.2471 -0.3652 -0.1700
 6909SOL    HW122881   3.383   6.948   6.708 -0.7984 -0.4223 -0.1214
 6909SOL    HW222882   3.284   7.004   6.608 -0.2004 -0.3453 -0.6773
 6910SOL     OW22883   0.699   5.857   7.776 -0.1942  0.6564  0.5133
 6910SOL    HW122884   0.691   5.762   7.771 -0.9216  0.7798 -0.9912
 6910SOL    HW222885   0.641   5.890   7.708  0.7111  2.1485  0.4204
 6911SOL     OW22886   4.408   4.393   7.675  0.2757 -0.0195 -0.4085
 6911SOL    HW122887   4.396   4.426   7.764 -0.5488 -0.6534 -0.2798
 6911SOL    HW222888   4.417   4.472   7.622 -1.5351  0.4369 -0.0917
 6912SOL     OW22889   6.506   1.203   9.079 -0.6357  0.7390  0.1764
 6912SOL    HW122890   6.597   1.227   9.060 -1.0542  2.6781  0.5158
 6912SOL    HW222891   6.467   1.188   8.992 -0.1039  0.2057  0.0175
 6913SOL     OW22892   7.939   2.561   1.677 -0.0089 -0.1927 -0.7982
 6913SOL    HW122893   7.877   2.515   1.733  0.3062 -0.3266 -0.5524
 6913SOL    HW222894   7.886   2.599   1.607 -0.2998 -0.7257 -0.8654
 6914SOL     OW22895   0.330   7.661   9.307 -0.1406  0.2887 -0.4728
 6914SOL    HW122896   0.401   7.705   9.260 -0.1539  1.0271  0.1790
 6914SOL    HW222897   0.365   7.575   9.330 -0.6627 -0.7678 -3.1980
 6915SOL     OW22898   3.819   8.021   4.212 -1.3396  0.2337  0.2437
 6915SOL    HW122899   3.864   7.975   4.141  1.0945 -0.4726  2.0711
 6915SOL    HW222900   3.744   7.965   4.232 -0.9940 -0.5540 -0.5521
 6916SOL     OW22901   0.297   3.717   3.831  0.0178 -0.0548 -0.2058
 6916SOL    HW122902   0.295   3.724   3.927  1.6115 -3.1624  0.1908
 6916SOL    HW222903   0.384   3.681   3.812 -1.0173 -1.4844 -2.6245
 6917SOL     OW22904   6.401   0.882   2.258 -0.2743  0.8839 -0.1435
 6917SOL    HW122905   6.483   0.928   2.246  0.2496  0.7389  2.3688
 6917SOL    HW222906   6.419   0.817   2.326 -1.8510 -0.8349 -1.2426
 6918SOL     OW22907   8.477   1.240   5.425  0.7275  0.2670  0.4363
 6918SOL    HW122908   8.395   1.226   5.472 -0.1252  0.7598 -0.8467
 6918SOL    HW222909   8.538   1.270   5.492  0.4225 -1.8836  1.7750
 6919SOL     OW22910   7.334   0.952   7.806  0.2230 -0.0355  0.1136
 6919SOL    HW122911   7.398   0.960   7.877  0.6962  0.6982 -0.3815
 6919SOL    HW222912   7.363   0.875   7.757  1.0992  0.6351 -0.4540
 6920SOL     OW22913   6.099   9.233   3.417  0.3770 -0.0782  0.6326
 6920SOL    HW122914   6.073   9.144   3.395  0.1485  0.0145  0.5279
 6920SOL    HW222915   6.136   9.226   3.505  0.1078 -0.2287  0.7332
 6921SOL     OW22916   5.799   1.245   8.503  0.4226  0.1837  0.1774
 6921SOL    HW122917   5.712   1.219   8.531 -0.6883  2.9251 -0.3812
 6921SOL    HW222918   5.812   1.202   8.418 -1.5812  1.7896 -1.0310
 6922SOL     OW22919   8.485   9.617   0.583 -0.1918 -0.0883  0.5596
 6922SOL    HW122920   8.403   9.582   0.549  0.0759 -2.1475  1.8745
 6922SOL    HW222921   8.459   9.668   0.659 -0.3180 -0.0909  0.5193
 6923SOL     OW22922   0.535   0.892   1.741 -0.7473  0.0219 -0.3300
 6923SOL    HW122923   0.493   0.974   1.717 -0.0250  0.2661 -0.7759
 6923SOL    HW222924   0.587   0.867   1.664 -1.3102 -1.0889 -0.3789
 6924SOL     OW22925   7.626   2.620   4.090  0.1357  0.4060  0.0005
 6924SOL    HW122926   7.627   2.662   4.176 -0.5034 -1.4397  0.9485
 6924SOL    HW222927   7.651   2.529   4.106  0.7076  0.1776 -1.8776
 6925SOL     OW22928   5.691   8.932   8.950 -0.0016 -0.0035  0.3776
 6925SOL    HW122929   5.688   8.983   9.031  0.8367  1.6802 -0.5839
 6925SOL    HW222930   5.637   8.982   8.889 -1.6872 -1.9312  0.2228
 6926SOL     OW22931   5.798   7.939   6.638  0.0663  0.2268  0.0415
 6926SOL    HW122932   5.830   7.918   6.726  1.5700  1.5241 -0.1510
 6926SOL    HW222933   5.773   7.854   6.601  0.1973 -0.4428  1.4060
 6927SOL     OW22934   6.023   4.812   8.770 -0.1652 -0.0129 -0.3578
 6927SOL    HW122935   6.040   4.767   8.853  0.2127  1.6299  0.4886
 6927SOL    HW222936   6.064   4.755   8.704  2.6667  0.3273  0.9382
 6928SOL     OW22937   4.616   5.032   4.538  0.3139  0.1327  0.4928
 6928SOL    HW122938   4.524   5.023   4.564  0.1091 -0.9324 -0.5206
 6928SOL    HW222939   4.649   5.103   4.593 -1.4065  1.3026  0.1104
 6929SOL     OW22940   7.503   8.200   5.885  0.0044 -0.2162  0.1390
 6929SOL    HW122941   7.556   8.138   5.935  0.4651  0.1723  0.1348
 6929SOL    HW222942   7.444   8.144   5.834 -0.4422 -0.6146  1.0680
 6930SOL     OW22943   9.495   8.870   7.860  0.1102  0.2331  0.3839
 6930SOL    HW122944   9.540   8.943   7.902 -4.5377  1.2339  4.5676
 6930SOL    HW222945   9.449   8.909   7.786  0.1381  0.8169  0.6716
 6931SOL     OW22946   7.127   9.170   4.066  0.0028 -0.9153  0.1647
 6931SOL    HW122947   7.167   9.083   4.064  0.6116 -0.6258 -0.7146
 6931SOL    HW222948   7.113   9.188   4.159  1.1274 -1.3839  0.4348
 6932SOL     OW22949   1.407   5.873   8.365 -0.4406  0.4717 -0.1726
 6932SOL    HW122950   1.441   5.906   8.282  1.2593  0.3605  0.4301
 6932SOL    HW222951   1.420   5.945   8.427 -0.4329  0.0822  0.2840
 6933SOL     OW22952   5.458   0.187   0.258  0.1507  0.3107 -0.4346
 6933SOL    HW122953   5.428   0.200   0.348  0.8822  0.4185 -0.1964
 6933SOL    HW222954   5.433   0.268   0.213 -3.9231 -1.2698 -1.4381
 6934SOL     OW22955   2.362   7.880   1.989 -0.5109  0.2582 -0.4158
 6934SOL    HW122956   2.383   7.910   1.901  2.6083 -1.3565 -0.3880
 6934SOL    HW222957   2.351   7.960   2.040 -1.4893  1.2137 -2.0511
 6935SOL     OW22958   1.827   3.131   5.889 -0.3944  0.1015 -0.0093
 6935SOL    HW122959   1.822   3.040   5.858  0.9045  0.3949 -1.1774
 6935SOL    HW222960   1.917   3.140   5.920 -0.6550  0.8626  0.5214
 6936SOL     OW22961   7.763   3.776   1.234 -0.2690 -0.3067 -0.3603
 6936SOL    HW122962   7.684   3.775   1.179 -1.1510  0.0646  0.8567
 6936SOL    HW222963   7.812   3.699   1.206 -0.8336 -0.2896 -1.4636
 6937SOL     OW22964   1.317   2.071   3.059  0.8764 -0.2486 -0.2295
 6937SOL    HW122965   1.278   2.065   3.146  0.8780 -0.4426 -0.2407
 6937SOL    HW222966   1.384   2.003   3.058 -0.1163 -1.2541 -0.8861
 6938SOL     OW22967   0.580   8.620   5.411 -0.7239  0.0526 -0.1599
 6938SOL    HW122968   0.520   8.619   5.486 -1.2587 -0.4089 -0.5758
 6938SOL    HW222969   0.667   8.623   5.450 -0.9782  3.5134  0.4734
 6939SOL     OW22970   6.392   7.610   9.133  0.0892  1.0571  0.4086
 6939SOL    HW122971   6.414   7.549   9.203  2.1552  2.0949  0.7357
 6939SOL    HW222972   6.352   7.556   9.065  0.5837 -0.4206  1.2664
 6940SOL     OW22973   1.490   4.715   9.067  0.3001  0.2123  0.7048
 6940SOL    HW122974   1.501   4.796   9.017  1.3348 -0.5016 -0.2544
 6940SOL    HW222975   1.400   4.686   9.047  0.5780  0.1278 -0.4663
 6941SOL     OW22976   3.115   7.687   1.383  0.1722  0.2068  0.3014
 6941SOL    HW122977   3.057   7.637   1.441  0.9555 -0.6739  0.3332
 6941SOL    HW222978   3.105   7.778   1.413 -1.7418  0.1976 -0.1640
 6942SOL     OW22979   5.450   5.466   8.021  0.1079  0.4747  0.2587
 6942SOL    HW122980   5.361   5.446   8.051 -0.8211  1.9184 -1.3691
 6942SOL    HW222981   5.463   5.408   7.946  1.4911 -1.3728  1.8077
 6943SOL     OW22982   6.669   0.188   8.787  0.5192  0.1222  0.0588
 6943SOL    HW122983   6.694   0.265   8.838 -0.5822  0.0012  0.8150
 6943SOL    HW222984   6.606   0.220   8.723  1.0148  0.0658 -0.4624
 6944SOL     OW22985   9.277   8.430   9.343  0.3162  0.0491  0.2703
 6944SOL    HW122986   9.308   8.362   9.283 -0.1869 -0.4091  0.5186
 6944SOL    HW222987   9.334   8.505   9.326  0.9207 -0.4525  0.0322
 6945SOL     OW22988   0.139   0.540   7.563  0.3128 -0.1800  0.0904
 6945SOL    HW122989   0.107   0.451   7.578 -0.8846  0.1449 -0.4030
 6945SOL    HW222990   0.087   0.573   7.490  1.3098  0.6457 -0.2866
 6946SOL     OW22991   0.933   0.585   0.165 -0.0945 -0.3574 -0.4597
 6946SOL    HW122992   1.006   0.635   0.201 -1.5908  1.1653  0.6023
 6946SOL    HW222993   0.912   0.520   0.233 -0.1537 -0.3534 -0.4738
 6947SOL     OW22994   0.717   0.443   6.699  0.0261  0.1855 -0.7206
 6947SOL    HW122995   0.628   0.471   6.677  0.0519  0.4612 -0.4827
 6947SOL    HW222996   0.762   0.524   6.724 -0.2485 -0.2253  1.1943
 6948SOL     OW22997   0.601   8.157   4.119  0.0995 -0.1488 -0.3743
 6948SOL    HW122998   0.678   8.181   4.171  0.6091  0.1056 -1.2358
 6948SOL    HW222999   0.636   8.113   4.042 -0.6868 -1.0884 -0.2185
 6949SOL     OW23000   2.820   3.181   3.070  0.0500  0.0647  0.0373
 6949SOL    HW123001   2.914   3.174   3.087 -0.2123 -1.1696  1.1028
 6949SOL    HW223002   2.778   3.152   3.151 -1.2500 -2.3081 -1.3853
 6950SOL     OW23003   0.597   4.293   1.808  0.3375 -0.5473  0.1190
 6950SOL    HW123004   0.623   4.383   1.786  1.1671 -0.6082  0.7873
 6950SOL    HW223005   0.543   4.303   1.887 -0.7996 -0.5223 -0.6345
 6951SOL     OW23006   4.600   6.606   2.841  0.1227  0.0948  0.7039
 6951SOL    HW123007   4.695   6.617   2.839  0.1059  0.1371  0.1750
 6951SOL    HW223008   4.569   6.640   2.757 -0.3465 -0.0640  0.8068
 6952SOL     OW23009   3.474   7.332   1.567  0.1369  0.3963 -0.6519
 6952SOL    HW123010   3.485   7.356   1.475 -2.1714 -1.9892 -1.6975
 6952SOL    HW223011   3.391   7.373   1.593  0.9178  1.2972  0.5037
 6953SOL     OW23012   6.025   2.315   7.129  0.3614 -0.1015  0.4075
 6953SOL    HW123013   6.039   2.251   7.199  1.4950  0.1705  0.4458
 6953SOL    HW223014   5.951   2.281   7.079  1.9798 -2.3561 -0.6034
 6954SOL     OW23015   8.420   7.237   3.466  0.3729  0.0272 -0.2817
 6954SOL    HW123016   8.469   7.170   3.419  0.2747 -0.6910  0.6183
 6954SOL    HW223017   8.448   7.228   3.557 -0.4521  0.4818  0.0313
 6955SOL     OW23018   3.985   7.583   4.282  0.4081  0.4762 -0.2995
 6955SOL    HW123019   4.070   7.545   4.261  1.2059  1.7354  0.5638
 6955SOL    HW223020   3.922   7.513   4.261  1.5737 -0.2563 -1.5353
 6956SOL     OW23021   4.455   8.401   1.836 -0.1775 -0.3120  1.0398
 6956SOL    HW123022   4.456   8.427   1.744  0.1775  1.0464  1.3981
 6956SOL    HW223023   4.363   8.412   1.863 -0.3765 -1.1635  0.7452
 6957SOL     OW23024   5.041   0.401   2.787 -0.5456 -0.2879  0.3716
 6957SOL    HW123025   5.088   0.323   2.757  0.4912  0.4816 -0.0581
 6957SOL    HW223026   5.067   0.410   2.879  1.3139  0.9001 -0.2030
 6958SOL     OW23027   4.418   7.114   6.705 -0.0493  0.7567  0.0528
 6958SOL    HW123028   4.371   7.071   6.777  0.8417 -0.4189 -0.0363
 6958SOL    HW223029   4.408   7.055   6.631  1.1871  0.6863 -0.0789
 6959SOL     OW23030   3.892   2.860   9.415  0.0074 -0.5100  0.2504
 6959SOL    HW123031   3.875   2.791   9.480  2.2799 -2.4506 -1.0574
 6959SOL    HW223032   3.834   2.839   9.342 -1.0733  0.4916  0.7721
 6960SOL     OW23033   6.886   6.482   2.831  0.1571 -0.0027  0.1760
 6960SOL    HW123034   6.853   6.401   2.872 -1.3605  1.0655  1.2108
 6960SOL    HW223035   6.972   6.496   2.872  0.0193 -0.6013  0.6961
 6961SOL     OW23036   0.953   5.889   4.424  0.0330 -0.9282  0.1287
 6961SOL    HW123037   0.904   5.913   4.345 -0.0122  0.1503  0.4627
 6961SOL    HW223038   0.956   5.794   4.422  1.5993 -0.9094 -2.1050
 6962SOL     OW23039   7.744   3.208   1.564  0.6395 -0.5741 -0.8637
 6962SOL    HW123040   7.664   3.248   1.598  1.3540  0.0386  0.1304
 6962SOL    HW223041   7.752   3.241   1.475  0.3184  0.1510 -0.6249
 6963SOL     OW23042   4.508   6.493   2.011 -0.0790  0.0330  0.1873
 6963SOL    HW123043   4.429   6.537   1.983 -0.6950 -1.6134 -0.7855
 6963SOL    HW223044   4.478   6.430   2.077  0.6746  0.5270  1.0288
 6964SOL     OW23045   5.096   4.714   8.577  0.6619 -0.2341 -0.1000
 6964SOL    HW123046   5.130   4.688   8.491 -1.3000  1.4984 -1.4869
 6964SOL    HW223047   5.001   4.706   8.569  0.2604  2.5191  0.9880
 6965SOL     OW23048   0.211   8.110   0.182 -0.6200 -0.2043  0.4599
 6965SOL    HW123049   0.304   8.100   0.201 -0.1799  0.5785 -1.0843
 6965SOL    HW223050   0.178   8.167   0.252  0.2184  0.0561  0.6537
 6966SOL     OW23051   4.423   5.311   8.944 -0.1535  0.1426 -0.0725
 6966SOL    HW123052   4.519   5.319   8.937  0.1050 -1.4588  1.1020
 6966SOL    HW223053   4.397   5.388   8.994  0.6340  0.1620  0.3326
 6967SOL     OW23054   5.213   8.062   2.864 -0.1008  0.1554 -0.9704
 6967SOL    HW123055   5.269   7.988   2.842 -0.3402 -0.2119 -0.3576
 6967SOL    HW223056   5.125   8.025   2.870  0.1623 -0.2317  2.5792
 6968SOL     OW23057   1.660   5.413   9.198  0.3007  0.3134  0.4304
 6968SOL    HW123058   1.628   5.452   9.116 -0.7881  2.8712  1.9602
 6968SOL    HW223059   1.588   5.359   9.229 -0.4718  1.7063  1.1334
 6969SOL     OW23060   8.293   2.011   1.886  0.1756 -0.4617  0.3839
 6969SOL    HW123061   8.319   2.103   1.890 -0.4451 -0.3072  1.3482
 6969SOL    HW223062   8.198   2.012   1.892  0.1095 -1.1353 -0.3783
 6970SOL     OW23063   2.226   1.720   6.768 -0.0349 -0.0781 -0.8004
 6970SOL    HW123064   2.303   1.694   6.717  0.1208 -2.4300  0.5030
 6970SOL    HW223065   2.229   1.666   6.847 -2.2203  0.8429  0.0150
 6971SOL     OW23066   1.807   7.053   0.785  0.3990  0.1774 -0.4305
 6971SOL    HW123067   1.813   7.008   0.870 -1.2710 -3.3437 -2.0067
 6971SOL    HW223068   1.896   7.084   0.769  1.2491 -0.9540  1.6283
 6972SOL     OW23069   6.556   3.605   3.221  0.0211  0.5174  0.1261
 6972SOL    HW123070   6.479   3.638   3.174  0.9137  1.0503 -1.0121
 6972SOL    HW223071   6.522   3.535   3.276 -0.8215 -1.4557 -2.7161
 6973SOL     OW23072   4.391   0.754   5.462 -0.4843 -0.1875  0.3283
 6973SOL    HW123073   4.346   0.798   5.534  0.5294 -0.0653  0.9091
 6973SOL    HW223074   4.371   0.661   5.474 -0.9743 -0.0877  0.2905
 6974SOL     OW23075   2.073   3.843   0.722 -0.4866  0.0275 -0.0044
 6974SOL    HW123076   2.057   3.857   0.629  1.2217  4.0796  0.1070
 6974SOL    HW223077   2.158   3.800   0.726 -0.0040  0.9312 -0.3494
 6975SOL     OW23078   6.719   6.198   0.245 -0.8850 -0.0463  0.1428
 6975SOL    HW123079   6.642   6.141   0.243 -0.0784 -1.2757 -4.0244
 6975SOL    HW223080   6.691   6.278   0.201  0.2097 -0.5951 -1.6286
 6976SOL     OW23081   7.393   6.093   6.256 -0.2427 -0.1868 -0.5788
 6976SOL    HW123082   7.390   6.047   6.339 -1.5794  1.7221  0.5075
 6976SOL    HW223083   7.486   6.092   6.231  0.2575 -0.3442  1.1949
 6977SOL     OW23084   6.625   9.274   2.767  0.3520 -0.6512 -0.7935
 6977SOL    HW123085   6.601   9.231   2.850 -0.6173  0.0126 -0.7196
 6977SOL    HW223086   6.673   9.352   2.794  1.9870 -1.5630 -0.9262
 6978SOL     OW23087   3.415   4.960   0.632  0.1522  0.3984 -0.3607
 6978SOL    HW123088   3.411   5.051   0.662  0.8363  0.2380  0.2361
 6978SOL    HW223089   3.327   4.942   0.599 -0.6116  0.6308  1.4326
 6979SOL     OW23090   5.015   4.720   4.505 -0.2290  0.7620 -0.0472
 6979SOL    HW123091   4.940   4.763   4.548  0.0491 -0.3764  1.6647
 6979SOL    HW223092   4.977   4.643   4.462 -0.1689  0.7039  0.0053
 6980SOL     OW23093   2.279   8.670   7.535 -0.3455 -0.0457 -0.3472
 6980SOL    HW123094   2.313   8.666   7.446 -1.6068  2.0842 -0.9807
 6980SOL    HW223095   2.325   8.743   7.576  0.2031 -0.9847  0.7852
 6981SOL     OW23096   7.149   2.626   4.986  0.2315  0.0539 -0.2849
 6981SOL    HW123097   7.167   2.714   5.018  0.1025  0.0227 -0.1264
 6981SOL    HW223098   7.054   2.621   4.981  0.2565  0.1729 -0.9939
 6982SOL     OW23099   1.981   8.934   6.341  0.2442 -0.4885 -0.1787
 6982SOL    HW123100   2.007   8.980   6.261 -0.1053 -0.0670 -0.0546
 6982SOL    HW223101   1.993   8.999   6.411  0.5270 -0.8474  0.1055
 6983SOL     OW23102   5.868   7.360   0.574 -0.1898  0.5567  0.0648
 6983SOL    HW123103   5.803   7.339   0.641  1.5660 -0.1551  1.6293
 6983SOL    HW223104   5.864   7.455   0.566 -1.0872  0.5639  0.4825
 6984SOL     OW23105   3.307   5.349   9.346  0.0477  0.1626  0.0688
 6984SOL    HW123106   3.272   5.273   9.300 -0.3934 -0.0705  0.7714
 6984SOL    HW223107   3.242   5.368   9.414  0.0492  1.2992 -0.2299
 6985SOL     OW23108   2.700   2.723   0.004 -0.2512  0.4641 -0.0532
 6985SOL    HW123109   2.727   2.811  -0.021  1.0082 -0.0487 -0.5757
 6985SOL    HW223110   2.777   2.685   0.046 -0.6348 -0.5361 -0.2253
 6986SOL     OW23111   6.225   2.402   5.647  0.2627  0.8088  0.8204
 6986SOL    HW123112   6.279   2.479   5.630 -0.8393  1.4584  0.1660
 6986SOL    HW223113   6.136   2.436   5.654 -0.0395 -0.1952  2.2728
 6987SOL     OW23114   0.125   4.499   2.243 -0.7168  0.1589 -0.8982
 6987SOL    HW123115   0.095   4.508   2.333  1.2235  0.9171 -0.2781
 6987SOL    HW223116   0.086   4.574   2.197 -0.0547  0.9602 -0.1856
 6988SOL     OW23117   5.602   9.272   4.804  0.2901 -0.2148 -0.3104
 6988SOL    HW123118   5.655   9.206   4.760  0.6284 -1.3769  1.6797
 6988SOL    HW223119   5.653   9.353   4.798  1.8110 -1.0558  0.6116
 6989SOL     OW23120   0.691   3.631   1.141  0.5657 -0.1687  0.1530
 6989SOL    HW123121   0.666   3.679   1.219 -0.1642  1.2352 -0.8995
 6989SOL    HW223122   0.741   3.694   1.089 -0.8114 -0.3365 -1.4748
 6990SOL     OW23123   6.399   1.618   2.038  0.4978  0.0252  0.1969
 6990SOL    HW123124   6.440   1.539   2.073 -1.4655 -1.4657 -0.7300
 6990SOL    HW223125   6.373   1.595   1.949  0.3561  1.9056 -0.2950
 6991SOL     OW23126   1.441   6.058   3.789  0.3488 -0.0766 -0.4137
 6991SOL    HW123127   1.358   6.014   3.768  0.3588 -0.1626 -0.2695
 6991SOL    HW223128   1.415   6.147   3.811  0.3294 -0.0063 -0.7116
 6992SOL     OW23129   3.376   1.781   6.344  0.1346 -0.2345  0.1539
 6992SOL    HW123130   3.337   1.713   6.289  0.5747 -0.0502 -0.3919
 6992SOL    HW223131   3.450   1.814   6.293 -0.7403  1.4399 -0.0881
 6993SOL     OW23132   3.614   1.397   9.376  0.2770  0.0282 -0.1353
 6993SOL    HW123133   3.612   1.348   9.294  0.6839 -0.1558 -0.0371
 6993SOL    HW223134   3.523   1.422   9.391  0.1482 -0.2337 -0.4633
 6994SOL     OW23135   8.254   8.243   7.344  0.2468 -0.5678  0.4107
 6994SOL    HW123136   8.347   8.246   7.320  0.1669 -0.4464  0.1190
 6994SOL    HW223137   8.208   8.231   7.261  0.0523 -1.5536  0.6527
 6995SOL     OW23138   7.632   2.742   7.821 -0.3639  0.1266 -0.2602
 6995SOL    HW123139   7.674   2.779   7.744 -1.2075 -0.3357 -0.9674
 6995SOL    HW223140   7.588   2.816   7.863  0.0051  0.3596 -0.2863
 6996SOL     OW23141   9.179   9.140   1.933 -0.7799 -0.0795  0.5311
 6996SOL    HW123142   9.254   9.094   1.972 -0.8587 -0.9881 -0.3604
 6996SOL    HW223143   9.182   9.227   1.973  2.4157  0.9111 -1.4112
 6997SOL     OW23144   0.428   5.380   0.242  0.3451 -0.3858  0.2657
 6997SOL    HW123145   0.342   5.421   0.236  0.5305 -0.0337 -0.0201
 6997SOL    HW223146   0.489   5.453   0.258  0.6259 -0.5940  0.1605
 6998SOL     OW23147   1.366   5.680   4.496  0.3282 -0.2813 -0.0773
 6998SOL    HW123148   1.453   5.644   4.510 -0.1147 -1.3102  0.1225
 6998SOL    HW223149   1.367   5.712   4.406  1.5008  1.4985  0.5138
 6999SOL     OW23150   4.663   4.915   5.673 -0.1701 -0.9475 -0.3912
 6999SOL    HW123151   4.685   4.844   5.613  1.7480 -0.2531 -0.5734
 6999SOL    HW223152   4.696   4.887   5.758  0.1037 -0.5090 -0.3505
 7000SOL     OW23153   3.804   2.594   4.197  0.4434  0.2464  0.2940
 7000SOL    HW123154   3.839   2.558   4.278 -2.4941  0.5414  1.8219
 7000SOL    HW223155   3.782   2.518   4.144 -1.5760 -0.1663  1.6345
 7001SOL     OW23156   8.221   8.677   1.645 -0.4353  0.5919  0.2256
 7001SOL    HW123157   8.215   8.650   1.553 -1.0994  0.2468  0.3585
 7001SOL    HW223158   8.314   8.668   1.666 -0.3584  0.1347 -0.2600
 7002SOL     OW23159   3.863   4.960   1.178 -0.3037  0.2077  0.4116
 7002SOL    HW123160   3.950   5.001   1.182 -0.0243 -0.1721 -1.0484
 7002SOL    HW223161   3.808   5.025   1.136 -0.3426 -0.1366 -0.0777
 7003SOL     OW23162   0.009   8.282   1.915  0.5073 -0.0295  0.3258
 7003SOL    HW123163  -0.013   8.189   1.915  1.3357 -0.2374  1.0524
 7003SOL    HW223164   0.000   8.308   1.824 -2.1431 -0.2066  0.4477
 7004SOL     OW23165   1.022   7.104   6.693 -0.3663  0.2341 -0.4115
 7004SOL    HW123166   1.117   7.120   6.692 -0.1944 -0.6851 -0.4240
 7004SOL    HW223167   0.985   7.180   6.737  0.4821  0.0991  0.5902
 7005SOL     OW23168   3.437   2.165   8.602 -0.2205  0.1508  0.0647
 7005SOL    HW123169   3.383   2.183   8.679 -0.4299 -1.1158  0.2346
 7005SOL    HW223170   3.439   2.069   8.596  1.0139  0.2074 -0.6503
 7006SOL     OW23171   6.501   4.088   4.651 -0.4586 -0.4049 -0.0813
 7006SOL    HW123172   6.499   4.028   4.576 -1.3588  0.6192 -0.9134
 7006SOL    HW223173   6.577   4.144   4.635 -0.4251 -0.4356 -0.0288
 7007SOL     OW23174   9.380   1.315   5.775  0.5090  0.4655 -0.0848
 7007SOL    HW123175   9.342   1.262   5.704 -1.6784  0.2039  1.2058
 7007SOL    HW223176   9.337   1.284   5.854  1.3466  2.2025  1.1121
 7008SOL     OW23177   9.297   7.075   4.224  0.1696  0.1711  0.5740
 7008SOL    HW123178   9.243   7.146   4.257 -0.8516 -0.1661 -0.3183
 7008SOL    HW223179   9.304   7.091   4.130 -1.6082 -1.8435  0.0255
 7009SOL     OW23180   1.627   3.609   9.622 -0.4140 -0.0375 -0.3111
 7009SOL    HW123181   1.586   3.694   9.634  0.3699  0.3794 -0.5208
 7009SOL    HW223182   1.645   3.578   9.711 -2.5776 -0.9538 -0.1306
 7010SOL     OW23183   2.192   4.565   6.945 -0.0584  0.1208  0.3731
 7010SOL    HW123184   2.102   4.597   6.932 -0.1467 -0.4837 -0.5925
 7010SOL    HW223185   2.209   4.510   6.868  1.1074  0.1524  0.5985
 7011SOL     OW23186   3.556   0.475   0.386  0.3074  0.4441  0.4343
 7011SOL    HW123187   3.574   0.511   0.300 -0.2884  0.8912  0.4863
 7011SOL    HW223188   3.487   0.411   0.371  1.2276 -0.5539  0.3710
 7012SOL     OW23189   0.955   0.523   5.336  0.8432 -0.0862  0.2265
 7012SOL    HW123190   1.023   0.550   5.398  1.7695 -0.4020 -0.6248
 7012SOL    HW223191   0.907   0.603   5.317  0.1280 -0.0977  1.8231
 7013SOL     OW23192   3.739   1.722   0.795  0.6610  0.0462 -0.3368
 7013SOL    HW123193   3.756   1.743   0.887 -0.9767  1.5424 -0.3161
 7013SOL    HW223194   3.747   1.627   0.791 -0.0906 -0.1606  1.5826
 7014SOL     OW23195   8.034   8.051   0.040 -0.8366  0.5633  0.1368
 7014SOL    HW123196   8.083   8.034   0.121 -0.1086  2.1376  0.0696
 7014SOL    HW223197   8.014   7.965   0.006  2.1404 -0.2027  0.0499
 7015SOL     OW23198   3.227   3.727   2.598 -0.1198  0.1391 -0.4952
 7015SOL    HW123199   3.287   3.787   2.641 -1.4941  1.1395  0.0894
 7015SOL    HW223200   3.283   3.657   2.564  1.1776  0.1407  1.5006
 7016SOL     OW23201   9.588   2.118   8.353  0.2543  0.0353 -0.5987
 7016SOL    HW123202   9.626   2.142   8.268  0.4961 -0.5159 -0.6525
 7016SOL    HW223203   9.573   2.024   8.346 -1.7116  0.3337 -0.8015
 7017SOL     OW23204   0.473   2.267   2.298 -0.0624  0.3811  0.6832
 7017SOL    HW123205   0.432   2.353   2.293  2.4178  1.7640  2.0082
 7017SOL    HW223206   0.511   2.264   2.386  3.5043 -0.2637 -0.7172
 7018SOL     OW23207   5.578   6.684   4.444  0.1821  0.5505  0.3379
 7018SOL    HW123208   5.626   6.603   4.427  1.0871  0.9592  0.8311
 7018SOL    HW223209   5.614   6.746   4.381  1.0363  1.1213  1.3423
 7019SOL     OW23210   8.558   1.888   2.839  0.7251  0.1525 -0.1778
 7019SOL    HW123211   8.490   1.925   2.784  0.8971  1.0211  0.1887
 7019SOL    HW223212   8.521   1.804   2.869 -1.4397  1.8594  2.3592
 7020SOL     OW23213   8.867   7.812   2.165  0.2377 -0.0558 -0.7831
 7020SOL    HW123214   8.864   7.727   2.208  0.3514 -0.6955 -1.9861
 7020SOL    HW223215   8.780   7.824   2.128  0.2610  0.2932 -0.7276
 7021SOL     OW23216   3.379   3.597   4.273 -0.0837  0.4586 -0.9580
 7021SOL    HW123217   3.341   3.511   4.292 -0.4162  0.6961 -0.5441
 7021SOL    HW223218   3.471   3.579   4.255 -0.2348 -0.0334 -1.2679
 7022SOL     OW23219   0.901   8.415   0.869  0.1524 -0.0048  0.4490
 7022SOL    HW123220   0.945   8.368   0.940 -0.6256  1.6083  2.0774
 7022SOL    HW223221   0.809   8.414   0.894 -0.1589  0.4501 -0.6457
 7023SOL     OW23222   1.072   0.856   6.927  0.0653  0.5314  0.0939
 7023SOL    HW123223   1.160   0.820   6.919 -1.6297 -4.0916 -1.0555
 7023SOL    HW223224   1.056   0.861   7.022  1.0785 -0.0999  0.3107
 7024SOL     OW23225   5.581   3.793   8.489  0.6874 -0.0957 -0.7137
 7024SOL    HW123226   5.659   3.749   8.524  0.8024 -0.0698 -0.9341
 7024SOL    HW223227   5.545   3.840   8.564 -0.8572 -2.5015  0.1876
 7025SOL     OW23228   8.773   0.561   0.960 -0.3645 -0.2997 -0.1179
 7025SOL    HW123229   8.721   0.588   1.035  1.3649 -1.4349  1.5895
 7025SOL    HW223230   8.852   0.614   0.965 -0.2599 -0.3369 -1.1909
 7026SOL     OW23231   0.242   4.695   7.567  0.7889  0.4557 -0.1342
 7026SOL    HW123232   0.254   4.783   7.603 -0.4156  0.9520 -0.8799
 7026SOL    HW223233   0.147   4.683   7.565  0.9147 -1.7400  1.9678
 7027SOL     OW23234   8.526   3.926   8.121 -0.0027 -0.0241  0.6424
 7027SOL    HW123235   8.467   3.852   8.111 -0.6054  0.1767  2.4037
 7027SOL    HW223236   8.561   3.917   8.210  0.3416  1.4891  0.6916
 7028SOL     OW23237   8.148   5.490   3.156  0.0024 -0.0631 -0.0648
 7028SOL    HW123238   8.175   5.398   3.151  0.4584  0.0783 -0.2189
 7028SOL    HW223239   8.210   5.530   3.216 -0.8470 -0.0807  0.8607
 7029SOL     OW23240   8.488   4.100   7.665 -0.0574 -0.2747 -0.1439
 7029SOL    HW123241   8.495   4.194   7.648 -0.8438 -0.0731  0.5951
 7029SOL    HW223242   8.472   4.061   7.579  2.0387  0.0507 -0.7410
 7030SOL     OW23243   3.395   0.281   7.775 -0.8607 -0.3337  0.2536
 7030SOL    HW123244   3.337   0.206   7.768 -2.7445  1.0663 -0.0970
 7030SOL    HW223245   3.483   0.246   7.761 -1.8006 -2.2583 -1.2009
 7031SOL     OW23246   0.833   8.950   5.716 -0.3860 -0.4996 -0.3372
 7031SOL    HW123247   0.907   8.911   5.669 -1.0657 -1.7217 -0.4206
 7031SOL    HW223248   0.759   8.941   5.656 -0.6071  0.7945 -0.2930
 7032SOL     OW23249   7.845   7.275   6.377 -0.6478 -0.3944  0.3215
 7032SOL    HW123250   7.760   7.234   6.390 -0.7316 -0.0472  0.9309
 7032SOL    HW223251   7.837   7.360   6.421 -0.2221 -0.0651 -0.2305
 7033SOL     OW23252   7.364   9.454   1.626 -0.4319  0.1338  0.5977
 7033SOL    HW123253   7.326   9.413   1.549  1.7658 -2.2944  0.6764
 7033SOL    HW223254   7.358   9.387   1.694 -0.0197  1.3056  1.8407
 7034SOL     OW23255   2.476   1.964   4.770 -0.1294  0.5948  0.0532
 7034SOL    HW123256   2.542   2.033   4.783  0.2931  0.0546  0.8840
 7034SOL    HW223257   2.394   2.012   4.757  0.2757  1.2661 -0.0923
 7035SOL     OW23258   8.929   5.465   3.469 -0.2493  0.1774 -0.2713
 7035SOL    HW123259   8.959   5.551   3.498  1.0935 -0.0236 -0.9711
 7035SOL    HW223260   8.946   5.465   3.375 -0.4588 -0.7573 -0.3167
 7036SOL     OW23261   0.422   0.774   5.570 -0.2019  0.2592  0.2628
 7036SOL    HW123262   0.358   0.703   5.558  0.6173 -0.2797 -1.2225
 7036SOL    HW223263   0.383   0.830   5.637 -0.4378 -2.0810  2.2316
 7037SOL     OW23264   7.142   2.181   0.759 -0.2749 -0.4634  0.1213
 7037SOL    HW123265   7.077   2.134   0.708 -0.8468 -1.4151  1.6482
 7037SOL    HW223266   7.220   2.126   0.754  0.2595  0.3697 -1.2015
 7038SOL     OW23267   3.148   5.486   4.542 -0.3827 -0.1181 -0.1842
 7038SOL    HW123268   3.130   5.394   4.521 -0.5656 -0.3414  0.8767
 7038SOL    HW223269   3.229   5.483   4.592  0.4990  0.4803 -1.5376
 7039SOL     OW23270   0.444   7.220   4.896  0.0864  0.1270  1.1839
 7039SOL    HW123271   0.441   7.297   4.953 -0.2843 -0.4906  2.0235
 7039SOL    HW223272   0.352   7.202   4.874  0.2698  0.7969 -0.2382
 7040SOL     OW23273   1.577   7.968   1.946  0.8865  0.3522  0.8454
 7040SOL    HW123274   1.524   8.046   1.929  2.2329  1.1330 -0.0134
 7040SOL    HW223275   1.606   7.939   1.860 -1.1871 -2.3657  0.9235
 7041SOL     OW23276   3.979   0.352   9.475 -0.1589  0.1164 -0.3483
 7041SOL    HW123277   4.047   0.412   9.447  0.8731 -1.4453 -1.3558
 7041SOL    HW223278   3.901   0.380   9.427  0.3292  0.5649 -0.8836
 7042SOL     OW23279   7.710   2.430   9.318  0.2409 -0.4070  0.0092
 7042SOL    HW123280   7.778   2.485   9.280  3.3823 -1.9084  2.8913
 7042SOL    HW223281   7.658   2.400   9.243  2.4776  1.1906 -2.3346
 7043SOL     OW23282   4.428   7.465   6.521  0.4887 -0.3513  0.2131
 7043SOL    HW123283   4.338   7.463   6.556  0.3830  0.9751  0.0695
 7043SOL    HW223284   4.470   7.538   6.567  1.1582 -0.2671 -0.5129
 7044SOL     OW23285   1.915   7.180   3.687 -0.1707  0.0901 -0.7899
 7044SOL    HW123286   1.916   7.220   3.774  0.3678 -1.9253  0.1964
 7044SOL    HW223287   1.824   7.154   3.673  0.0418 -1.1514 -0.0202
 7045SOL     OW23288   3.756   1.262   2.955  0.0380  0.1263  0.3984
 7045SOL    HW123289   3.762   1.327   3.025 -0.2763  1.6191 -0.9059
 7045SOL    HW223290   3.663   1.237   2.954  0.1498 -0.3264  0.8680
 7046SOL     OW23291   2.694   7.878   5.899  0.2800  0.3278 -0.3195
 7046SOL    HW123292   2.766   7.932   5.867  1.2899  1.2817  3.1907
 7046SOL    HW223293   2.626   7.940   5.926 -1.5769 -0.5286 -2.5989
 7047SOL     OW23294   6.573   4.635   2.279 -0.2419  0.2074 -0.5440
 7047SOL    HW123295   6.552   4.623   2.186 -1.7026  1.2389 -0.3794
 7047SOL    HW223296   6.620   4.719   2.282  1.4712 -0.7001 -0.5410
 7048SOL     OW23297   3.412   2.497   2.638 -0.3238 -0.3543  0.5271
 7048SOL    HW123298   3.362   2.433   2.689  0.7180  0.0384  2.1350
 7048SOL    HW223299   3.396   2.580   2.683 -0.4663  0.2688 -0.6374
 7049SOL     OW23300   9.247   7.415   0.396  0.2726  0.0187 -0.0199
 7049SOL    HW123301   9.326   7.468   0.395  0.4549 -0.0623  2.6640
 7049SOL    HW223302   9.273   7.333   0.438 -0.6791 -1.0623 -1.4305
 7050SOL     OW23303   5.170   5.733   9.118  0.0562 -1.0211 -0.0107
 7050SOL    HW123304   5.181   5.753   9.025 -2.7184 -1.2263 -0.4653
 7050SOL    HW223305   5.156   5.818   9.160 -0.6875 -1.0907 -0.1152
 7051SOL     OW23306   5.113   8.023   1.083  0.0085 -0.2194  0.1081
 7051SOL    HW123307   5.024   7.990   1.072  0.0791 -0.1644 -0.6627
 7051SOL    HW223308   5.113   8.106   1.036  0.2861  0.1056  0.6723
 7052SOL     OW23309   0.686   9.202   2.427  0.4999 -0.1802  0.7519
 7052SOL    HW123310   0.591   9.189   2.433  0.2558  1.1836  0.3584
 7052SOL    HW223311   0.723   9.116   2.441 -0.8584 -1.0619 -0.7571
 7053SOL     OW23312   5.380   0.433   9.196 -0.0068 -0.4544  0.3382
 7053SOL    HW123313   5.322   0.417   9.122 -0.1140 -0.5263  0.4377
 7053SOL    HW223314   5.383   0.350   9.243  0.7520 -0.6596 -0.0681
 7054SOL     OW23315   5.559   4.982   4.983 -1.2668 -0.1166 -0.1906
 7054SOL    HW123316   5.503   4.915   5.023 -1.0256  0.1591  0.6309
 7054SOL    HW223317   5.536   5.062   5.029  2.0073 -0.5009  2.5391
 7055SOL     OW23318   3.175   3.409   7.836  0.0263  0.0337 -0.6192
 7055SOL    HW123319   3.106   3.342   7.833 -1.5677  1.6054 -0.9124
 7055SOL    HW223320   3.176   3.438   7.927  1.1172 -0.7682 -0.3657
 7056SOL     OW23321   3.504   7.041   1.615 -0.1517  0.2308  0.0581
 7056SOL    HW123322   3.427   6.984   1.617 -1.2345  1.6256 -0.1708
 7056SOL    HW223323   3.468   7.130   1.620  1.3895  0.9725 -1.1686
 7057SOL     OW23324   9.496   1.730   3.517  0.4342  0.6949 -0.2468
 7057SOL    HW123325   9.462   1.767   3.435  0.9715  2.4885  0.2996
 7057SOL    HW223326   9.495   1.803   3.578  2.5863  0.0858  0.5870
 7058SOL     OW23327   3.382   1.502   8.837 -0.3845 -0.6929 -0.7596
 7058SOL    HW123328   3.472   1.529   8.857 -0.2813  0.9554 -3.0614
 7058SOL    HW223329   3.329   1.549   8.901  0.3153 -1.1480  0.1878
 7059SOL     OW23330   2.163   4.840   7.777 -0.1288 -0.0520  0.2786
 7059SOL    HW123331   2.199   4.784   7.846 -1.3554  1.0557  1.9010
 7059SOL    HW223332   2.201   4.927   7.795 -0.9885  0.3973 -0.0246
 7060SOL     OW23333   7.519   4.611   1.837  0.0973 -0.1420  0.4050
 7060SOL    HW123334   7.435   4.629   1.881  0.2819 -0.6500  0.9843
 7060SOL    HW223335   7.585   4.624   1.906  0.4135 -0.6944  0.2074
 7061SOL     OW23336   4.670   8.638   2.324  0.0185 -0.0112  0.0425
 7061SOL    HW123337   4.731   8.656   2.395 -0.2351 -0.4523  0.3766
 7061SOL    HW223338   4.682   8.545   2.306 -0.7872 -0.1731  0.3283
 7062SOL     OW23339   9.002   6.366   6.374 -0.4302  0.2820 -0.1755
 7062SOL    HW123340   8.959   6.304   6.315 -0.4455 -0.7580  0.8904
 7062SOL    HW223341   8.931   6.418   6.411 -0.7864 -1.2111  1.3314
 7063SOL     OW23342   3.235   0.050   8.935 -0.1424  0.0050  0.4655
 7063SOL    HW123343   3.246  -0.031   8.885  0.0751 -0.6292  1.5217
 7063SOL    HW223344   3.170   0.029   9.002 -2.2626  1.5488 -0.9764
 7064SOL     OW23345   2.386   7.676   5.882 -0.0727 -0.0311 -0.9136
 7064SOL    HW123346   2.457   7.612   5.889 -0.1933 -0.1080 -0.4016
 7064SOL    HW223347   2.396   7.712   5.794  0.0106 -0.7281 -1.1897
 7065SOL     OW23348   5.023   9.329   4.658 -0.0039  0.3266 -0.0429
 7065SOL    HW123349   5.099   9.386   4.650 -0.1871  0.9511  2.1331
 7065SOL    HW223350   5.056   9.251   4.702 -0.2406 -0.2885 -0.9162
 7066SOL     OW23351   5.822   4.287   5.929  0.8494  0.3929  0.2463
 7066SOL    HW123352   5.913   4.259   5.936  0.4352 -1.4299 -1.0199
 7066SOL    HW223353   5.809   4.305   5.836 -0.5029 -1.0719  0.1074
 7067SOL     OW23354   6.013   8.859   3.052 -0.1782  0.0650 -0.3563
 7067SOL    HW123355   5.931   8.902   3.028  0.5115  1.4145 -0.3544
 7067SOL    HW223356   5.994   8.765   3.043 -1.5238  0.3737 -0.9767
 7068SOL     OW23357   4.586   1.905   9.067 -0.7023  0.6794  0.0345
 7068SOL    HW123358   4.645   1.854   9.011  0.6230  1.1553  0.9637
 7068SOL    HW223359   4.613   1.884   9.156 -3.1912 -0.5447  0.5701
 7069SOL     OW23360   5.829   5.968   9.389  0.8450 -0.0061  0.4407
 7069SOL    HW123361   5.905   6.019   9.361 -0.6041  1.1165 -1.8343
 7069SOL    HW223362   5.847   5.879   9.357  1.1075  0.3105 -0.3232
 7070SOL     OW23363   1.067   0.329   2.710 -0.2795  0.0751 -0.5078
 7070SOL    HW123364   0.981   0.299   2.681 -0.1924 -0.0038 -0.6830
 7070SOL    HW223365   1.079   0.414   2.667 -0.5795  0.4258  0.0853
 7071SOL     OW23366   0.575   1.932   0.759 -0.5376  0.3877  0.4295
 7071SOL    HW123367   0.588   2.000   0.693 -0.3186  1.1772  1.2616
 7071SOL    HW223368   0.497   1.961   0.808 -0.8967 -0.3588  0.3079
 7072SOL     OW23369   7.090   4.435   8.358  0.2759  0.3534 -0.5392
 7072SOL    HW123370   7.077   4.427   8.263  0.3352  1.4755 -0.6597
 7072SOL    HW223371   7.183   4.455   8.367  1.0717 -3.0769  0.0153
 7073SOL     OW23372   3.681   7.072   5.559 -0.2970 -0.0631  0.4788
 7073SOL    HW123373   3.722   7.038   5.639 -0.6725 -1.3581  0.1415
 7073SOL    HW223374   3.717   7.160   5.550  0.9815 -0.4782  1.2088
 7074SOL     OW23375   0.622   3.949   8.567  0.1690 -0.1139  0.6090
 7074SOL    HW123376   0.592   4.039   8.582  3.3814  1.4053 -1.0810
 7074SOL    HW223377   0.665   3.924   8.648  1.2501  0.8054  0.3387
 7075SOL     OW23378   4.863   9.618   4.248 -0.3845  0.0925 -0.0771
 7075SOL    HW123379   4.838   9.563   4.322 -0.9717 -0.0569 -0.3782
 7075SOL    HW223380   4.780   9.638   4.204 -0.0030 -0.2450 -0.9852
 7076SOL     OW23381   8.854   1.486   0.884 -0.7364  0.0994  0.4622
 7076SOL    HW123382   8.872   1.423   0.814  0.0900 -2.5643  2.8575
 7076SOL    HW223383   8.759   1.485   0.894 -0.8008 -0.0841 -0.1277
 7077SOL     OW23384   6.863   1.756   3.686 -0.2290  0.4045  0.9110
 7077SOL    HW123385   6.917   1.793   3.755  0.6468 -1.2372  1.1424
 7077SOL    HW223386   6.828   1.675   3.723  0.4553 -0.6363 -0.6215
 7078SOL     OW23387   4.055   8.375   3.173  0.2975 -0.2692 -0.0594
 7078SOL    HW123388   4.015   8.437   3.112 -0.4106  0.7093  1.3205
 7078SOL    HW223389   3.984   8.315   3.196  0.7955 -1.1803 -0.8560
 7079SOL     OW23390   5.744   7.178   0.405 -0.2049 -0.9772  0.9265
 7079SOL    HW123391   5.798   7.235   0.459  2.0277 -2.0466 -0.0368
 7079SOL    HW223392   5.745   7.094   0.450  0.1946 -1.4031  0.1445
 7080SOL     OW23393   4.715   1.866   6.472 -0.0776 -0.2708  0.1681
 7080SOL    HW123394   4.758   1.781   6.467 -1.9621 -1.2121 -1.6840
 7080SOL    HW223395   4.735   1.909   6.389  0.3395  0.8530  0.8298
 7081SOL     OW23396   7.371   2.521   3.633  0.4229 -0.2580 -0.1750
 7081SOL    HW123397   7.398   2.444   3.683  0.2652 -1.4627 -1.8651
 7081SOL    HW223398   7.449   2.575   3.627  0.1450  0.5399  2.3711
 7082SOL     OW23399   9.593   5.721   9.335  0.1398 -0.4064  0.1916
 7082SOL    HW123400   9.624   5.641   9.292  0.1154  0.8464 -2.3305
 7082SOL    HW223401   9.526   5.755   9.276 -0.1459  1.2543  1.4238
 7083SOL     OW23402   4.677   6.925   8.966  0.0339 -0.0423  0.0088
 7083SOL    HW123403   4.621   6.870   9.021 -1.7015  1.4907 -0.1343
 7083SOL    HW223404   4.617   6.987   8.925  1.7345  1.0460 -0.9587
 7084SOL     OW23405   7.757   3.507   3.985  0.5361 -0.2479  0.3218
 7084SOL    HW123406   7.671   3.490   4.024  0.1692 -0.4860 -0.5641
 7084SOL    HW223407   7.811   3.433   4.013 -0.1200 -1.1652 -0.7596
 7085SOL     OW23408   5.862   3.994   0.815 -0.4479  0.3019 -0.3114
 7085SOL    HW123409   5.930   4.050   0.778  0.4887 -0.7625 -0.2259
 7085SOL    HW223410   5.862   4.015   0.908  0.6625 -0.6035 -0.0903
 7086SOL     OW23411   0.990   7.176   7.281 -0.1882 -0.1750  0.3393
 7086SOL    HW123412   1.030   7.096   7.316  0.9618  0.1694 -0.1604
 7086SOL    HW223413   0.996   7.166   7.186  0.5122  0.7770  0.2769
 7087SOL     OW23414   9.633   6.486   9.501 -0.7242  0.0791  0.2162
 7087SOL    HW123415   9.630   6.499   9.406  0.4721  2.3618  0.4179
 7087SOL    HW223416   9.638   6.391   9.512 -0.4538 -0.2246 -2.0101
 7088SOL     OW23417   0.440   7.425   7.754  0.0395 -0.5473  0.7444
 7088SOL    HW123418   0.369   7.392   7.699 -0.8077 -0.4682  1.7496
 7088SOL    HW223419   0.441   7.365   7.829 -0.2028  0.5249  1.6260
 7089SOL     OW23420   2.550   0.902   8.265 -1.2638 -0.2330  0.5221
 7089SOL    HW123421   2.568   0.821   8.218  0.7782  0.8414 -0.7080
 7089SOL    HW223422   2.551   0.878   8.357 -0.4569 -1.5641  0.1940
 7090SOL     OW23423   7.847   1.384   7.538 -0.5011 -0.2902 -0.2335
 7090SOL    HW123424   7.833   1.291   7.524 -0.8983 -0.3760  0.6427
 7090SOL    HW223425   7.942   1.395   7.538 -0.4640 -0.5951 -0.9088
 7091SOL     OW23426   4.011   5.512   3.731 -0.0978  0.5177  0.1030
 7091SOL    HW123427   3.982   5.430   3.771 -1.1323  0.6315 -0.3742
 7091SOL    HW223428   3.993   5.500   3.637  1.4033  0.6121 -0.2291
 7092SOL     OW23429   6.677   1.949   6.776  0.6132 -0.3323  0.1159
 7092SOL    HW123430   6.626   1.943   6.695  0.6454 -0.7758  0.1274
 7092SOL    HW223431   6.768   1.944   6.747  0.6272 -0.3764  0.1665
 7093SOL     OW23432   0.707   8.802   5.006 -0.1340  0.0071 -0.5677
 7093SOL    HW123433   0.651   8.762   4.939 -0.3631  0.8085 -0.8698
 7093SOL    HW223434   0.646   8.839   5.070  0.0511  0.6587 -0.7618
 7094SOL     OW23435   1.783   2.309   6.570  0.1605 -0.2608 -0.1185
 7094SOL    HW123436   1.859   2.260   6.600  0.5051  0.8043  0.8097
 7094SOL    HW223437   1.816   2.368   6.504  0.0147 -0.2540 -0.1869
 7095SOL     OW23438   7.706   5.489   7.918  0.1036 -0.1165  0.4416
 7095SOL    HW123439   7.735   5.515   7.830  0.4006 -0.5429  0.4122
 7095SOL    HW223440   7.613   5.509   7.919  0.0352 -0.3871 -0.0754
 7096SOL     OW23441   7.489   7.778   3.021 -0.1108  0.1915 -0.0854
 7096SOL    HW123442   7.481   7.827   3.103 -0.2718  1.5116 -0.8544
 7096SOL    HW223443   7.439   7.830   2.957 -0.8593 -1.3439 -0.7982
 7097SOL     OW23444   3.245   3.191   6.495 -0.4626  0.1389 -0.5109
 7097SOL    HW123445   3.202   3.216   6.577 -0.3078 -0.7242 -0.1567
 7097SOL    HW223446   3.268   3.274   6.454  1.4578  0.6021  1.3566
 7098SOL     OW23447   3.090   9.594   9.132  0.1197  0.5267 -0.3713
 7098SOL    HW123448   3.161   9.535   9.158  1.3075  0.8517 -2.5574
 7098SOL    HW223449   3.010   9.548   9.156  1.0425 -0.9622  0.0002
 7099SOL     OW23450   8.805   2.486   1.162  0.7505  0.3651 -0.1458
 7099SOL    HW123451   8.768   2.517   1.245  1.1002 -0.9583  0.5235
 7099SOL    HW223452   8.745   2.419   1.132  1.1736  0.1060 -0.4298
 7100SOL     OW23453   8.508   4.269   1.255 -0.2831  0.4915 -0.0844
 7100SOL    HW123454   8.603   4.269   1.245 -0.1801  1.8274  0.6006
 7100SOL    HW223455   8.493   4.313   1.339 -1.5369  1.5502 -0.8156
 7101SOL     OW23456   8.443   0.462   0.076  0.6468 -0.0079  0.3660
 7101SOL    HW123457   8.470   0.505   0.156 -0.5001 -0.3491  0.9591
 7101SOL    HW223458   8.437   0.369   0.099 -2.0448  0.1474  0.6285
 7102SOL     OW23459   4.577   3.057   1.889  0.3867  0.1537  0.0974
 7102SOL    HW123460   4.617   2.974   1.915  0.9135  0.4491  0.2491
 7102SOL    HW223461   4.648   3.106   1.848  0.0197  0.4330 -0.2113
 7103SOL     OW23462   5.274   1.696   3.393  0.0174 -0.6372  0.7502
 7103SOL    HW123463   5.350   1.638   3.392 -1.1035 -2.1622  0.7883
 7103SOL    HW223464   5.264   1.725   3.302  0.8076 -0.1835  0.8003
 7104SOL     OW23465   1.247   2.510   5.750  0.5013 -0.1661 -0.6108
 7104SOL    HW123466   1.200   2.439   5.707 -0.2438 -0.2055  0.2241
 7104SOL    HW223467   1.228   2.498   5.843  1.7747  0.1225 -0.2898
 7105SOL     OW23468   0.052   1.220   7.302  0.1774 -0.4180 -0.0653
 7105SOL    HW123469   0.036   1.225   7.208 -0.9458 -1.9760 -0.0016
 7105SOL    HW223470  -0.016   1.160   7.335  1.7634 -1.4975  1.4223
 7106SOL     OW23471   0.515   8.373   3.316  0.1080 -0.1932  0.4020
 7106SOL    HW123472   0.596   8.335   3.352 -0.0339 -1.0692 -0.1743
 7106SOL    HW223473   0.450   8.358   3.384  0.3948  0.4177  0.8233
 7107SOL     OW23474   4.730   3.480   0.118  0.2291  0.2827  0.1715
 7107SOL    HW123475   4.741   3.402   0.173 -1.9160  0.0866  0.3876
 7107SOL    HW223476   4.682   3.449   0.041  1.5965  0.9244 -0.9895
 7108SOL     OW23477   2.870   1.681   0.695  0.0534  0.2629  0.2178
 7108SOL    HW123478   2.802   1.675   0.761  0.2852  0.7396  0.5034
 7108SOL    HW223479   2.887   1.591   0.669  0.4521  0.0183  1.3067
 7109SOL     OW23480   3.850   7.420   8.355  0.0128 -0.4296  0.0064
 7109SOL    HW123481   3.941   7.448   8.357  0.0767 -0.3540 -1.8512
 7109SOL    HW223482   3.807   7.472   8.422  0.5643  2.6539 -1.8432
 7110SOL     OW23483   2.562   1.749   6.282  0.9824  0.2694  0.1505
 7110SOL    HW123484   2.605   1.799   6.213  0.7338 -0.8565 -0.8633
 7110SOL    HW223485   2.507   1.813   6.327  0.4163  0.8689 -1.3176
 7111SOL     OW23486   7.932   1.117   3.789  0.3027 -0.5506 -0.5802
 7111SOL    HW123487   8.000   1.127   3.722  0.3849  0.9745 -0.3030
 7111SOL    HW223488   7.979   1.083   3.865  1.3518  2.6994  0.4012
 7112SOL     OW23489   2.720   4.405   3.241  0.3124  0.8282 -0.0188
 7112SOL    HW123490   2.751   4.417   3.151 -0.5427 -1.2428 -0.6599
 7112SOL    HW223491   2.799   4.390   3.292  0.7377  0.8568 -0.6560
 7113SOL     OW23492   2.531   0.339   4.894  0.3839 -0.0259  0.6528
 7113SOL    HW123493   2.584   0.263   4.918 -1.4725 -0.7505  2.7579
 7113SOL    HW223494   2.460   0.303   4.840  1.2352  0.7400 -1.0428
 7114SOL     OW23495   5.263   1.768   0.635 -0.0944  0.0262  0.0722
 7114SOL    HW123496   5.299   1.817   0.561 -0.0776  0.3976  0.3247
 7114SOL    HW223497   5.307   1.804   0.711  0.0753 -0.5295  0.2425
 7115SOL     OW23498   8.059   3.216   4.778 -0.0453 -0.5655 -0.0722
 7115SOL    HW123499   8.027   3.250   4.861 -1.6872 -2.4698  0.1532
 7115SOL    HW223500   7.980   3.198   4.727  0.9075  0.9076 -2.2583
 7116SOL     OW23501   5.025   4.755   1.759  0.0201 -0.1248  0.5463
 7116SOL    HW123502   4.969   4.827   1.788  1.0419  1.4611 -1.2222
 7116SOL    HW223503   5.102   4.760   1.816 -0.1617 -0.2044  0.8031
 7117SOL     OW23504   3.977   5.072   3.019  0.0654 -0.1805 -0.2224
 7117SOL    HW123505   4.055   5.128   3.019 -0.2793  0.3190  0.2059
 7117SOL    HW223506   3.906   5.131   2.993 -0.3875 -0.2925  0.7212
 7118SOL     OW23507   5.574   7.742   1.595  0.2965 -0.6239 -0.0225
 7118SOL    HW123508   5.515   7.759   1.668 -1.3073 -0.4213 -1.2992
 7118SOL    HW223509   5.533   7.670   1.546  0.5201  0.2186 -1.5337
 7119SOL     OW23510   9.249   7.781   5.223  1.0174  0.8131 -0.1463
 7119SOL    HW123511   9.202   7.804   5.143 -0.1091  3.1042  1.0811
 7119SOL    HW223512   9.270   7.865   5.263  0.9493 -0.2698  2.3199
 7120SOL     OW23513   3.928   5.831   7.139  0.6493  0.0557  0.6367
 7120SOL    HW123514   3.984   5.763   7.176  0.1633 -0.5033  0.3589
 7120SOL    HW223515   3.839   5.799   7.151  0.4599 -0.1104 -0.9165
 7121SOL     OW23516   4.520   2.849   2.170 -0.1165  0.4725 -0.5151
 7121SOL    HW123517   4.528   2.825   2.263 -1.6917  1.6491 -0.0313
 7121SOL    HW223518   4.554   2.939   2.166  1.2959 -0.0742 -1.3843
 7122SOL     OW23519   5.872   6.777   5.953 -0.2775 -0.2208  0.0607
 7122SOL    HW123520   5.853   6.797   5.861  1.2465  1.0464 -0.0179
 7122SOL    HW223521   5.827   6.846   6.002  1.4806  0.9887  0.0466
 7123SOL     OW23522   8.420   7.020   9.629 -0.3250  0.1560 -0.0213
 7123SOL    HW123523   8.439   7.082   9.699 -0.3370 -0.4414  0.5158
 7123SOL    HW223524   8.491   6.957   9.632 -0.1774  0.2826 -0.7303
 7124SOL     OW23525   7.239   8.140   2.438  0.5772  0.0617  0.2856
 7124SOL    HW123526   7.151   8.122   2.470 -0.2844  1.4624 -1.1750
 7124SOL    HW223527   7.283   8.054   2.441 -0.8673 -0.6913  0.8943
 7125SOL     OW23528   7.393   6.255   9.533  0.5539  0.3644  0.4853
 7125SOL    HW123529   7.300   6.239   9.514  0.2056  0.4326  1.9635
 7125SOL    HW223530   7.429   6.288   9.451 -0.4430 -0.8045 -0.4634
 7126SOL     OW23531   8.978   0.243   4.544  0.3404  0.4519  0.0148
 7126SOL    HW123532   9.001   0.150   4.552  0.4568  0.5880  1.6114
 7126SOL    HW223533   8.981   0.260   4.450  2.9102 -0.5237 -0.1686
 7127SOL     OW23534   2.126   8.252   3.502 -0.0351 -0.0097 -0.3993
 7127SOL    HW123535   2.110   8.248   3.596  0.2994  0.1917 -0.3335
 7127SOL    HW223536   2.076   8.328   3.472  0.8530  0.6757 -0.1783
 7128SOL     OW23537   8.268   2.569   5.068  0.3538  0.5776 -0.3785
 7128SOL    HW123538   8.244   2.616   4.988 -1.5106 -0.7810 -0.6798
 7128SOL    HW223539   8.363   2.556   5.060  0.5723  2.3743 -1.2838
 7129SOL     OW23540   6.003   6.292   4.918  0.6944 -0.0253 -0.1871
 7129SOL    HW123541   5.950   6.301   4.997  0.7663  0.7920 -0.2180
 7129SOL    HW223542   6.013   6.198   4.905  0.3319 -0.1652  0.5404
 7130SOL     OW23543   3.685   7.837   0.420  0.2025 -0.1353 -0.4400
 7130SOL    HW123544   3.637   7.904   0.372 -0.9640 -0.9483 -0.4589
 7130SOL    HW223545   3.730   7.884   0.489 -1.8195  0.5278  0.5132
 7131SOL     OW23546   7.490   0.494   2.533  0.0169  0.2201  0.2643
 7131SOL    HW123547   7.583   0.479   2.549  0.3948  2.0238  0.0189
 7131SOL    HW223548   7.467   0.568   2.589 -0.7870  0.9685 -0.9828
 7132SOL     OW23549   1.713   6.259   6.481  0.4318  0.0374  0.1637
 7132SOL    HW123550   1.773   6.261   6.556  1.2354 -1.3100 -0.3993
 7132SOL    HW223551   1.677   6.170   6.483 -0.6372  0.4524 -0.2209
 7133SOL     OW23552   3.573   0.313   3.798 -0.6697 -0.3034  0.0859
 7133SOL    HW123553   3.608   0.234   3.758 -0.3336 -0.4358  0.6353
 7133SOL    HW223554   3.610   0.385   3.746 -0.7539 -0.4943 -0.2387
 7134SOL     OW23555   9.037   2.820   4.851  0.5098 -0.1335 -0.2975
 7134SOL    HW123556   8.994   2.825   4.766  0.8423 -2.0573 -0.6405
 7134SOL    HW223557   9.082   2.904   4.861 -1.4567  1.0569 -0.9256
 7135SOL     OW23558   8.772   4.374   8.225 -0.3394 -0.4825 -0.3155
 7135SOL    HW123559   8.811   4.365   8.312 -2.9307 -0.1926  0.9758
 7135SOL    HW223560   8.730   4.290   8.208 -1.7938  0.1892 -0.2167
 7136SOL     OW23561   9.167   3.174   4.073 -0.3712  0.6352  0.5858
 7136SOL    HW123562   9.225   3.100   4.054 -0.7842  0.1579  1.1419
 7136SOL    HW223563   9.172   3.228   3.995  0.0394  0.0848  0.2171
 7137SOL     OW23564   2.228   3.376   9.432 -0.3367  0.4754  0.4946
 7137SOL    HW123565   2.294   3.375   9.501 -1.0580  0.8442  1.2134
 7137SOL    HW223566   2.278   3.381   9.351  0.6182 -1.9343  0.8346
 7138SOL     OW23567   6.391   7.925   9.125  0.3797  0.1425  0.6878
 7138SOL    HW123568   6.316   7.915   9.184 -0.5731  1.3772 -0.2609
 7138SOL    HW223569   6.416   7.836   9.103 -0.2436 -0.3056  1.7231
 7139SOL     OW23570   5.491   0.587   2.396 -0.0922 -0.4391 -0.3073
 7139SOL    HW123571   5.455   0.504   2.366  0.0280 -0.2291 -1.0494
 7139SOL    HW223572   5.429   0.617   2.462 -0.2648 -0.9988 -0.2125
 7140SOL     OW23573   4.712   7.932   8.454  0.4859  0.3446  0.5560
 7140SOL    HW123574   4.769   7.986   8.400 -2.0486  3.5752  0.7667
 7140SOL    HW223575   4.688   7.989   8.528 -0.1740 -2.1158  2.3736
 7141SOL     OW23576   4.965   3.963   9.618  0.3744 -0.2472  0.3193
 7141SOL    HW123577   4.955   3.964   9.523 -0.5572  0.8400  0.4029
 7141SOL    HW223578   5.056   3.938   9.632  0.7636  0.3785 -0.8881
 7142SOL     OW23579   0.824   7.571   9.168 -0.0771 -0.1684 -0.3000
 7142SOL    HW123580   0.847   7.625   9.244 -2.2601 -2.0121  1.8519
 7142SOL    HW223581   0.729   7.577   9.163 -0.2378 -2.4261 -0.9997
 7143SOL     OW23582   1.410   3.252   9.397  0.4772  0.5656 -0.5030
 7143SOL    HW123583   1.422   3.336   9.441 -1.2469  0.1635  0.8243
 7143SOL    HW223584   1.487   3.243   9.341  1.7837  2.0198  0.9689
 7144SOL     OW23585   5.852   4.550   9.285  0.3097  0.3021 -0.4315
 7144SOL    HW123586   5.840   4.635   9.242 -2.8882  0.4592  0.4637
 7144SOL    HW223587   5.762   4.520   9.302  1.3550 -1.5412  2.5418
 7145SOL     OW23588   4.584   5.052   5.451 -0.0820  0.0918  0.7560
 7145SOL    HW123589   4.606   4.998   5.527  0.3989 -1.1287 -0.2287
 7145SOL    HW223590   4.628   5.136   5.468  2.9093 -1.2478  0.3067
 7146SOL     OW23591   9.452   1.349   6.836  0.2698  0.2131  0.0993
 7146SOL    HW123592   9.515   1.317   6.771  2.1577  0.7957  1.5408
 7146SOL    HW223593   9.379   1.381   6.784  1.6043  0.4830 -1.7395
 7147SOL     OW23594   3.950   3.939   6.599 -0.3598 -0.0487  0.4871
 7147SOL    HW123595   3.874   3.938   6.656 -1.4062 -1.4878 -0.8380
 7147SOL    HW223596   3.915   3.963   6.513  1.0499  1.3792  0.2696
 7148SOL     OW23597   0.364   3.269   2.141 -0.2067  0.5166  0.1662
 7148SOL    HW123598   0.377   3.241   2.231 -0.6096  2.3361  0.8395
 7148SOL    HW223599   0.304   3.344   2.148  0.4965  1.2868 -1.5161
 7149SOL     OW23600   4.188   7.788   8.956  0.2293 -0.1441  0.8204
 7149SOL    HW123601   4.139   7.735   9.018  1.3651 -2.5508 -0.2169
 7149SOL    HW223602   4.255   7.832   9.009 -0.9526  0.5720  1.7538
 7150SOL     OW23603   3.934   4.096   2.630 -0.1708  0.3013 -0.4898
 7150SOL    HW123604   3.867   4.154   2.667 -0.3309  0.2992 -0.7732
 7150SOL    HW223605   3.892   4.059   2.553  0.1152  0.1994 -0.5939
 7151SOL     OW23606   7.957   5.004   2.867  0.1919  0.7786  0.5561
 7151SOL    HW123607   7.998   4.926   2.829  0.1390  1.3440 -0.7268
 7151SOL    HW223608   8.030   5.063   2.885  0.0463  1.4813 -1.0117
 7152SOL     OW23609   5.217   2.952   1.524 -0.6143  0.3896  0.4703
 7152SOL    HW123610   5.200   2.971   1.431  0.0062  2.1948  0.6873
 7152SOL    HW223611   5.207   2.857   1.531 -0.1261  0.1451 -1.5610
 7153SOL     OW23612   1.624   8.450   3.955  0.7227  0.5180 -0.2041
 7153SOL    HW123613   1.563   8.378   3.939  2.0019 -0.1623 -2.4831
 7153SOL    HW223614   1.700   8.408   3.994  0.8114  0.9271  0.0726
 7154SOL     OW23615   9.203   4.649   3.864  0.1732  0.2171 -0.0328
 7154SOL    HW123616   9.205   4.558   3.833  0.3962 -0.0285  0.6975
 7154SOL    HW223617   9.215   4.642   3.959 -2.1306  0.8292  0.3760
 7155SOL     OW23618   4.339   6.826   6.005  0.2773 -0.2884 -0.0198
 7155SOL    HW123619   4.339   6.893   5.937  0.4531 -1.2298 -0.9908
 7155SOL    HW223620   4.287   6.755   5.968  1.1920 -1.2133  0.4025
 7156SOL     OW23621   3.946   6.189   4.199  0.5090 -0.0800 -0.1713
 7156SOL    HW123622   3.947   6.095   4.219 -1.5289  0.0532  0.7911
 7156SOL    HW223623   3.986   6.230   4.276 -2.6788  0.0732  1.5614
 7157SOL     OW23624   2.652   2.756   7.922 -0.0206  0.1377 -0.0363
 7157SOL    HW123625   2.632   2.849   7.929  2.2327  0.6039  1.1104
 7157SOL    HW223626   2.584   2.712   7.972 -1.8411  1.0117 -1.6320
 7158SOL     OW23627   8.210   0.291   6.767 -0.3114  0.0084  0.4717
 7158SOL    HW123628   8.152   0.354   6.725 -0.8416 -0.9882 -0.3501
 7158SOL    HW223629   8.155   0.245   6.830  0.3827  1.2088  2.0228
 7159SOL     OW23630   1.916   1.277   4.886  0.3244 -0.0381 -0.0002
 7159SOL    HW123631   1.844   1.274   4.949  0.7988 -0.8424  0.5196
 7159SOL    HW223632   1.990   1.312   4.935  1.2382 -2.4244  0.5042
 7160SOL     OW23633   0.530   8.454   6.331 -0.1807 -0.1837 -0.5039
 7160SOL    HW123634   0.587   8.420   6.400 -0.4275 -1.4594 -0.9066
 7160SOL    HW223635   0.584   8.517   6.284 -0.4697  1.9782  1.7866
 7161SOL     OW23636   3.391   7.460   4.018 -0.0530  0.5224  0.5004
 7161SOL    HW123637   3.393   7.377   4.065 -1.8896 -0.0320 -0.3116
 7161SOL    HW223638   3.385   7.437   3.926  2.6616  1.6041 -0.0268
 7162SOL     OW23639   0.451   0.421   5.274 -0.1867  0.2127 -0.0493
 7162SOL    HW123640   0.405   0.499   5.240  0.2590  1.0184  1.1276
 7162SOL    HW223641   0.544   0.440   5.259 -0.0389  0.1985  0.8007
 7163SOL     OW23642   7.880   7.330   4.430  0.0507  0.2623 -0.0769
 7163SOL    HW123643   7.888   7.357   4.338 -3.2513 -1.9468 -1.2088
 7163SOL    HW223644   7.943   7.259   4.439  2.5786  2.4252  0.3935
 7164SOL     OW23645   6.142   7.898   8.227 -0.8031 -0.4658 -0.6875
 7164SOL    HW123646   6.099   7.980   8.203 -1.4111  0.0251  1.8697
 7164SOL    HW223647   6.072   7.833   8.222 -1.2673 -0.1243  0.9588
 7165SOL     OW23648   7.156   5.874   9.337  0.4490 -0.4624 -0.3821
 7165SOL    HW123649   7.165   5.906   9.426  2.1464 -0.4781 -0.5041
 7165SOL    HW223650   7.193   5.944   9.283 -2.7290  0.6401 -1.3485
 7166SOL     OW23651   6.235   2.426   1.865 -0.2396 -0.6417  0.1817
 7166SOL    HW123652   6.301   2.471   1.917 -0.1500 -2.0624  1.3431
 7166SOL    HW223653   6.176   2.496   1.836  1.1955  0.5145 -0.0720
 7167SOL     OW23654   8.499   8.184   1.243  0.2720 -0.0645 -0.0750
 7167SOL    HW123655   8.517   8.100   1.287  0.3542  0.4274  0.8623
 7167SOL    HW223656   8.427   8.222   1.294  0.9333  0.9013  0.1536
 7168SOL     OW23657   4.600   7.789   7.963  0.3855  0.0589 -0.9692
 7168SOL    HW123658   4.542   7.743   7.902  1.6541  2.4161 -4.2269
 7168SOL    HW223659   4.545   7.856   8.002 -0.2115 -0.8503 -0.2197
 7169SOL     OW23660   4.410   5.482   9.581 -0.8669 -0.3461 -0.7949
 7169SOL    HW123661   4.359   5.432   9.517  0.5752 -2.1377 -0.6249
 7169SOL    HW223662   4.500   5.474   9.551 -0.2458 -0.5814  1.0538
 7170SOL     OW23663   5.548   1.562   8.117 -0.1739  0.1669  0.2269
 7170SOL    HW123664   5.537   1.468   8.105  0.5091  0.0630  0.3375
 7170SOL    HW223665   5.580   1.571   8.207 -1.4381  0.6162  0.6435
 7171SOL     OW23666   6.771   1.322   4.866 -0.0121  0.2415 -0.3549
 7171SOL    HW123667   6.699   1.261   4.881  0.8239 -0.5069  0.6885
 7171SOL    HW223668   6.850   1.272   4.885  0.7840  1.1725 -1.0893
 7172SOL     OW23669   8.511   6.927   3.382  0.3630  0.3465  0.0829
 7172SOL    HW123670   8.430   6.877   3.379  1.5028 -1.6063 -0.5354
 7172SOL    HW223671   8.540   6.921   3.473  1.3238 -1.6831 -0.2864
 7173SOL     OW23672   2.344   0.378   5.413 -0.8345 -0.2085 -0.0193
 7173SOL    HW123673   2.394   0.304   5.446  0.0115 -0.1242 -1.0498
 7173SOL    HW223674   2.263   0.378   5.465 -0.1644 -0.8917  1.0623
 7174SOL     OW23675   7.485   6.498   1.859 -0.1098  0.7466 -0.2567
 7174SOL    HW123676   7.444   6.544   1.933 -1.1737  0.0324 -0.3731
 7174SOL    HW223677   7.511   6.568   1.799 -1.3507  1.2425 -0.2549
 7175SOL     OW23678   7.968   2.615   5.812 -0.5533 -0.3032 -0.1982
 7175SOL    HW123679   7.926   2.648   5.892  1.4235  1.0447  0.3721
 7175SOL    HW223680   8.042   2.675   5.798  2.2075 -3.4415 -0.1641
 7176SOL     OW23681   2.318   0.452   1.922 -0.4715 -0.2290  0.1238
 7176SOL    HW123682   2.378   0.457   1.848  0.3704 -1.0538  0.7359
 7176SOL    HW223683   2.261   0.378   1.902 -1.7080  0.8878 -0.7254
 7177SOL     OW23684   6.189   9.140   0.868 -0.2117 -0.2599 -0.2280
 7177SOL    HW123685   6.179   9.145   0.773  0.3507  0.4201 -0.2599
 7177SOL    HW223686   6.253   9.069   0.882  0.5237  0.3460 -0.4268
 7178SOL     OW23687   0.839   2.227   8.270  0.1336 -0.3523  0.3105
 7178SOL    HW123688   0.845   2.313   8.311  0.3920  0.1376 -0.7108
 7178SOL    HW223689   0.904   2.174   8.315  0.0160  0.0079  0.9089
 7179SOL     OW23690   5.065   1.580   1.176 -0.2891 -0.5311 -0.1417
 7179SOL    HW123691   5.058   1.627   1.093  1.3771 -3.1779 -1.9171
 7179SOL    HW223692   5.154   1.596   1.206 -0.4419 -0.7112  0.4278
 7180SOL     OW23693   5.772   8.984   9.497 -0.0170  0.4129  0.0768
 7180SOL    HW123694   5.839   9.053   9.501  1.2717 -0.8053  0.2680
 7180SOL    HW223695   5.814   8.908   9.536 -1.1641 -0.6931 -0.7779
 7181SOL     OW23696   1.985   3.070   0.483 -0.1586  0.6335  0.2041
 7181SOL    HW123697   2.026   3.138   0.536 -0.1376  0.4342  0.4398
 7181SOL    HW223698   1.977   2.995   0.541 -1.9408  1.0413  0.5436
 7182SOL     OW23699   1.497   7.743   3.800  0.1874  0.1640 -0.1870
 7182SOL    HW123700   1.578   7.742   3.749  0.4635 -1.7448  0.2350
 7182SOL    HW223701   1.469   7.652   3.804 -1.1972  0.5927  0.9295
 7183SOL     OW23702   7.186   9.415   1.404  0.3694  0.1878 -0.3360
 7183SOL    HW123703   7.244   9.339   1.409 -2.1556 -1.9440 -0.4721
 7183SOL    HW223704   7.170   9.427   1.311  2.6251  2.5868 -0.5252
 7184SOL     OW23705   3.724   8.833   1.156 -0.0097 -0.0048 -0.4363
 7184SOL    HW123706   3.694   8.781   1.231 -0.8739  0.4822 -0.4303
 7184SOL    HW223707   3.672   8.800   1.082 -1.2073  1.3981 -0.2727
 7185SOL     OW23708   4.362   4.343   0.341 -0.2682  0.0892 -0.2457
 7185SOL    HW123709   4.419   4.346   0.417  0.5841 -1.6006 -0.7774
 7185SOL    HW223710   4.390   4.418   0.287  0.2213  0.3314  0.3353
 7186SOL     OW23711   0.498   5.547   7.444  0.1900  0.1544  0.2681
 7186SOL    HW123712   0.439   5.472   7.442  0.5196 -0.1174  0.4860
 7186SOL    HW223713   0.540   5.542   7.530  0.0718  0.7017  0.3615
 7187SOL     OW23714   9.472   5.016   8.033 -0.0305  0.4230  0.0969
 7187SOL    HW123715   9.419   4.937   8.026  3.2572 -1.9450 -0.7443
 7187SOL    HW223716   9.487   5.028   8.127  0.0791 -0.4473  0.1911
 7188SOL     OW23717   8.150   8.876   3.132 -0.1871 -0.3682 -0.0997
 7188SOL    HW123718   8.223   8.846   3.186 -0.1844  0.8104  0.5907
 7188SOL    HW223719   8.074   8.829   3.167  0.1776 -1.4544 -0.6988
 7189SOL     OW23720   5.117   5.876   6.473  0.1505 -0.5518 -0.2316
 7189SOL    HW123721   5.065   5.813   6.423 -1.1589 -1.5318  2.1592
 7189SOL    HW223722   5.062   5.896   6.549  1.2115  2.3009 -0.0922
 7190SOL     OW23723   5.902   4.773   0.022 -0.8630  0.6450 -0.0028
 7190SOL    HW123724   5.921   4.694  -0.029 -2.0258 -0.0127  0.5335
 7190SOL    HW223725   5.852   4.741   0.097 -1.9185  1.9471 -0.1078
 7191SOL     OW23726   7.083   2.762   8.039  0.0882  0.2021  0.3233
 7191SOL    HW123727   7.163   2.762   7.986  0.3261  0.0038  0.6779
 7191SOL    HW223728   7.095   2.835   8.100 -0.7235  1.2105 -0.6854
 7192SOL     OW23729   9.602   7.428   5.751  0.1381 -0.5320  0.4819
 7192SOL    HW123730   9.585   7.395   5.663 -0.8860  0.0983  0.4276
 7192SOL    HW223731   9.618   7.349   5.803  1.1481 -0.8891 -0.3323
 7193SOL     OW23732   0.959   1.344   6.671 -0.6449 -0.1143 -0.4543
 7193SOL    HW123733   0.867   1.331   6.647 -1.0046  0.3269  0.6192
 7193SOL    HW223734   1.005   1.347   6.587 -1.6065 -0.3474 -1.0130
 7194SOL     OW23735   0.397   3.043   6.359  1.0491 -0.3434  0.0700
 7194SOL    HW123736   0.489   3.032   6.333  1.3712  0.5082  0.7707
 7194SOL    HW223737   0.395   3.128   6.404  0.1355 -0.8425  1.0179
 7195SOL     OW23738   6.968   2.110   7.712  0.0445  0.0633 -0.1950
 7195SOL    HW123739   6.953   2.203   7.727 -0.0890  0.0178 -0.0396
 7195SOL    HW223740   7.020   2.082   7.788 -0.9516 -0.2507  0.3978
 7196SOL     OW23741   0.622   0.138   3.732 -0.1382  0.0194 -0.3780
 7196SOL    HW123742   0.701   0.163   3.684  1.0827  0.9502  1.9571
 7196SOL    HW223743   0.654   0.087   3.807 -1.8409 -0.3768  0.1224
 7197SOL     OW23744   3.101   8.633   6.712 -0.1288 -0.4100  0.3330
 7197SOL    HW123745   3.156   8.574   6.764  1.4326 -0.2300 -1.0277
 7197SOL    HW223746   3.061   8.577   6.646 -1.5211 -0.5115  1.2251
 7198SOL     OW23747   6.779   9.140   3.565  0.3324 -0.4280 -0.1847
 7198SOL    HW123748   6.766   9.229   3.600 -1.4689 -0.1704 -1.3864
 7198SOL    HW223749   6.832   9.153   3.486 -0.6051 -0.3170 -0.8021
 7199SOL     OW23750   8.054   6.838   7.383  0.1306  0.0239 -0.7883
 7199SOL    HW123751   8.079   6.887   7.461  2.2835  0.8465 -1.9402
 7199SOL    HW223752   8.066   6.746   7.408  4.0111  0.3258 -1.0594
 7200SOL     OW23753   4.666   4.419   8.595 -0.1951  0.3152  0.1436
 7200SOL    HW123754   4.661   4.513   8.614  0.9864  0.2694  0.7637
 7200SOL    HW223755   4.722   4.413   8.517  0.9306  0.0634  0.9424
 7201SOL     OW23756   7.415   7.418   6.761  0.6758 -0.3698  0.0417
 7201SOL    HW123757   7.406   7.443   6.669 -0.0389  1.7350  0.6231
 7201SOL    HW223758   7.502   7.378   6.767  1.0645  0.2135 -1.3856
 7202SOL     OW23759   3.302   3.349   8.682  0.1008 -0.1198 -0.8581
 7202SOL    HW123760   3.348   3.428   8.654 -0.0107  0.4638  0.5376
 7202SOL    HW223761   3.216   3.355   8.639  0.1489  0.4460 -0.8770
 7203SOL     OW23762   4.506   6.375   0.210 -0.0168  0.4952 -0.7213
 7203SOL    HW123763   4.567   6.448   0.207  1.5294 -0.7697 -1.1149
 7203SOL    HW223764   4.439   6.398   0.146 -0.1820  2.0545 -0.0494
 7204SOL     OW23765   4.612   3.126   2.167  0.4204 -0.3614 -0.2895
 7204SOL    HW123766   4.654   3.105   2.084 -0.0551 -1.5578 -0.2498
 7204SOL    HW223767   4.567   3.210   2.152  0.6588 -0.3837 -1.1158
 7205SOL     OW23768   3.938   0.668   0.515 -0.2074  0.1569  0.3580
 7205SOL    HW123769   3.929   0.573   0.519  1.4592 -0.0599 -0.0703
 7205SOL    HW223770   3.902   0.692   0.430  0.4470 -0.2655 -0.0523
 7206SOL     OW23771   8.645   7.992   0.275 -0.6952  0.0616 -0.3812
 7206SOL    HW123772   8.648   8.019   0.367  0.1596  0.4003 -0.4917
 7206SOL    HW223773   8.566   7.939   0.267 -1.3299  0.8857  0.3117
 7207SOL     OW23774   8.213   5.757   3.730 -0.2312  0.1074 -0.4875
 7207SOL    HW123775   8.268   5.693   3.775 -0.0647  0.0237 -0.8090
 7207SOL    HW223776   8.131   5.712   3.715  0.1929 -0.3373 -1.5172
 7208SOL     OW23777   0.846   5.372   4.603 -0.0674 -0.0814  0.5191
 7208SOL    HW123778   0.904   5.300   4.579 -0.7465 -0.2835 -0.6214
 7208SOL    HW223779   0.900   5.431   4.655  1.1510 -0.2979 -0.4522
 7209SOL     OW23780   7.625   2.694   0.326  0.0059  0.2631  0.6672
 7209SOL    HW123781   7.666   2.763   0.273  0.3674  0.1556  0.8016
 7209SOL    HW223782   7.644   2.719   0.417 -0.5335  0.3995  0.7459
 7210SOL     OW23783   4.656   5.409   5.222  0.5040  0.5864 -0.0439
 7210SOL    HW123784   4.655   5.414   5.126 -1.1825  0.7694 -0.0609
 7210SOL    HW223785   4.602   5.333   5.242 -1.3460  2.0147  0.7635
 7211SOL     OW23786   1.046   0.712   5.983 -0.6604  0.1535  0.0650
 7211SOL    HW123787   0.988   0.744   6.052 -1.2537 -0.8521  0.0552
 7211SOL    HW223788   1.134   0.721   6.018 -0.9373 -0.0190  0.8149
 7212SOL     OW23789   5.892   2.170   3.038 -0.5394  0.1302  0.6409
 7212SOL    HW123790   5.956   2.213   2.981 -2.0640  2.1397  0.3449
 7212SOL    HW223791   5.944   2.138   3.111  1.1062 -0.2818 -0.6353
 7213SOL     OW23792   6.331   5.209   1.925 -0.3094  0.0379  0.3772
 7213SOL    HW123793   6.403   5.160   1.885 -0.3979  2.1566 -2.6761
 7213SOL    HW223794   6.252   5.168   1.889 -0.4162  1.3937 -1.0040
 7214SOL     OW23795   7.494   8.948   8.104 -0.1371 -0.0049 -0.6392
 7214SOL    HW123796   7.470   8.988   8.020  0.2000  2.0027  0.1568
 7214SOL    HW223797   7.420   8.893   8.126  0.0622 -1.1528 -2.5725
 7215SOL     OW23798   1.358   2.658   7.990 -0.0680  0.1815  0.3634
 7215SOL    HW123799   1.292   2.680   8.056 -0.2920  1.0497 -0.1323
 7215SOL    HW223800   1.360   2.563   7.989 -1.2802  0.1399  0.4231
 7216SOL     OW23801   0.494   3.429   3.851 -0.2906  0.1361  0.0512
 7216SOL    HW123802   0.481   3.360   3.785  1.5391 -2.3782  2.1154
 7216SOL    HW223803   0.565   3.482   3.816 -1.2367  0.6157 -1.2369
 7217SOL     OW23804   6.048   1.198   8.634  0.0358 -0.2135  0.1878
 7217SOL    HW123805   5.968   1.223   8.587 -0.1068  1.3638  1.2036
 7217SOL    HW223806   6.030   1.109   8.667 -1.1733 -0.0032  0.1342
 7218SOL     OW23807   3.682   5.547   2.095 -0.5881  0.0080  0.4299
 7218SOL    HW123808   3.615   5.480   2.087 -1.8795  1.3551 -0.7112
 7218SOL    HW223809   3.686   5.587   2.008  0.5006  1.0727  0.9416
 7219SOL     OW23810   0.899   4.054   2.756  0.0464  0.1244 -0.3199
 7219SOL    HW123811   0.982   4.079   2.797  0.0288 -0.7632  0.2984
 7219SOL    HW223812   0.920   3.974   2.707 -0.6885 -0.8656  0.8991
 7220SOL     OW23813   3.511   9.439   3.525  0.2928  0.0300  0.4729
 7220SOL    HW123814   3.459   9.516   3.504 -0.0396 -0.1631  0.5652
 7220SOL    HW223815   3.599   9.472   3.541 -0.2507  0.6561  2.4623
 7221SOL     OW23816   9.200   7.764   2.708 -0.0711  0.2280  1.0232
 7221SOL    HW123817   9.289   7.732   2.695 -0.3480  0.0443 -0.5761
 7221SOL    HW223818   9.197   7.850   2.667 -0.5199  0.4474  1.4845
 7222SOL     OW23819   3.951   0.460   1.490  0.2982  0.0359 -0.0082
 7222SOL    HW123820   3.895   0.463   1.412  0.6726  1.9535 -0.2617
 7222SOL    HW223821   3.892   0.434   1.561 -0.7381  1.1487 -0.4271
 7223SOL     OW23822   4.484   0.193   0.538 -0.0042  0.1090  0.2027
 7223SOL    HW123823   4.488   0.283   0.504  1.5678  0.3647  0.9673
 7223SOL    HW223824   4.575   0.170   0.555 -0.3772 -1.6648 -0.0050
 7224SOL     OW23825   2.287   1.363   8.311 -0.0487  0.3372 -0.9733
 7224SOL    HW123826   2.224   1.297   8.337  1.2396 -0.1376  1.2443
 7224SOL    HW223827   2.332   1.326   8.235  1.1359 -1.7447  0.6435
 7225SOL     OW23828   2.738   7.151   3.957  0.2257 -0.2215  0.2351
 7225SOL    HW123829   2.743   7.237   3.915  2.2952  0.1230  1.0734
 7225SOL    HW223830   2.680   7.100   3.900 -0.1165  1.3708 -0.9098
 7226SOL     OW23831   2.125   3.260   0.629 -0.0240 -0.3139  0.1042
 7226SOL    HW123832   2.212   3.220   0.622  0.5432  1.1971 -4.2691
 7226SOL    HW223833   2.141   3.346   0.668  0.4771 -0.0320 -0.7044
 7227SOL     OW23834   9.052   7.302   1.244  0.2793 -0.0737 -0.5080
 7227SOL    HW123835   9.109   7.245   1.296  0.0622  0.2274  0.0699
 7227SOL    HW223836   8.967   7.297   1.287  0.4302  1.2664  0.0236
 7228SOL     OW23837   6.787   5.613   5.637  0.3042  0.1073  0.2861
 7228SOL    HW123838   6.820   5.577   5.555  0.5902  0.4355  0.2518
 7228SOL    HW223839   6.765   5.704   5.616  0.9289  0.3635  0.7063
 7229SOL     OW23840   1.530   6.471   0.506 -0.1172  0.0720  0.4947
 7229SOL    HW123841   1.563   6.447   0.419  0.1329 -0.4397  0.7195
 7229SOL    HW223842   1.502   6.562   0.497 -0.4540 -0.0907 -0.2197
 7230SOL     OW23843   7.677   8.718   5.149 -0.1748 -0.6538  0.2493
 7230SOL    HW123844   7.646   8.808   5.155  1.7868  0.2146 -1.5556
 7230SOL    HW223845   7.597   8.665   5.143 -1.3301  1.1064 -0.3795
 7231SOL     OW23846   9.364   7.365   7.794  0.0632 -0.3453  0.4823
 7231SOL    HW123847   9.410   7.377   7.877 -1.9684  2.2739  1.3582
 7231SOL    HW223848   9.409   7.423   7.733 -0.8774  0.7654  0.8335
 7232SOL     OW23849   7.770   8.548   5.644  0.4373  0.3421 -0.4552
 7232SOL    HW123850   7.774   8.462   5.685 -0.5414 -0.1460 -1.3252
 7232SOL    HW223851   7.811   8.607   5.707  0.0422 -0.5654  0.6875
 7233SOL     OW23852   9.369   9.397   0.189 -0.1404 -0.1253  0.3503
 7233SOL    HW123853   9.302   9.458   0.219 -0.1244 -0.5085  1.1779
 7233SOL    HW223854   9.325   9.312   0.187 -0.5041  0.0492 -1.9045
 7234SOL     OW23855   5.975   3.250   6.829 -0.3183 -0.4366  0.4271
 7234SOL    HW123856   5.969   3.201   6.911 -0.0414 -1.3571 -0.0944
 7234SOL    HW223857   5.911   3.321   6.839  0.3615  0.0067  1.7993
 7235SOL     OW23858   1.264   2.360   1.173 -0.1786 -0.6181  0.0175
 7235SOL    HW123859   1.271   2.455   1.159 -2.1152 -0.5149 -0.5227
 7235SOL    HW223860   1.341   2.324   1.130  0.6894  0.7112  0.3858
 7236SOL     OW23861   0.013   0.402   8.037  0.6333  0.1912 -0.2869
 7236SOL    HW123862  -0.045   0.375   7.966  0.8982 -0.4631 -0.2615
 7236SOL    HW223863  -0.042   0.398   8.115  0.8923 -1.1541 -0.1524
 7237SOL     OW23864   1.183   1.467   0.570  0.5427  0.0802 -0.1601
 7237SOL    HW123865   1.199   1.559   0.592 -0.6706  0.0386  1.1090
 7237SOL    HW223866   1.253   1.419   0.614 -0.5506  0.2026  1.8683
 7238SOL     OW23867   9.604   6.084   1.375  0.5435 -0.3146  0.2302
 7238SOL    HW123868   9.609   6.027   1.452 -2.6645  0.3103  1.0377
 7238SOL    HW223869   9.663   6.157   1.396  0.4344 -0.6074  1.6814
 7239SOL     OW23870   4.369   0.523   0.761  0.4292  0.2446 -0.1002
 7239SOL    HW123871   4.456   0.487   0.742  0.1729 -0.4008 -0.0654
 7239SOL    HW223872   4.386   0.612   0.793  0.9582  0.9170 -2.1190
 7240SOL     OW23873   8.110   7.685   6.593 -0.1629 -0.3539  0.2072
 7240SOL    HW123874   8.110   7.633   6.513  0.3401 -2.3339  1.4205
 7240SOL    HW223875   8.201   7.680   6.625 -0.9143 -2.2096  2.4046
 7241SOL     OW23876   7.772   4.029   8.308  0.2223  0.7633 -0.9958
 7241SOL    HW123877   7.817   3.961   8.259  1.4462  2.0053 -1.6501
 7241SOL    HW223878   7.680   4.004   8.306  0.3112  0.4724 -3.4554
 7242SOL     OW23879   3.908   0.030   3.046  0.2836  0.4106 -0.0656
 7242SOL    HW123880   3.868   0.055   2.963  1.4517  1.4647 -0.3328
 7242SOL    HW223881   3.834   0.003   3.101 -0.5132 -0.2814 -1.4114
 7243SOL     OW23882   0.418   2.949   4.230 -0.2852  0.6759  0.3626
 7243SOL    HW123883   0.365   3.026   4.208 -0.5489  0.7599  1.2422
 7243SOL    HW223884   0.465   2.928   4.150 -1.8186  0.4670 -0.5245
 7244SOL     OW23885   2.394   0.389   8.687  0.2918  0.0693  0.3032
 7244SOL    HW123886   2.419   0.457   8.749 -2.0873  1.1765  0.1844
 7244SOL    HW223887   2.399   0.307   8.736  2.0957  0.4239  0.7818
 7245SOL     OW23888   8.822   1.992   4.993  0.5131  0.2744 -0.2981
 7245SOL    HW123889   8.909   2.024   4.967  0.8071 -0.1869  0.1031
 7245SOL    HW223890   8.831   1.972   5.086  0.5451 -1.5825 -0.6614
 7246SOL     OW23891   5.793   6.559   8.940 -0.5980 -0.1553 -0.6314
 7246SOL    HW123892   5.848   6.603   9.005 -0.7511  0.5614 -0.9823
 7246SOL    HW223893   5.852   6.538   8.869  0.2957 -3.7146  0.9319
 7247SOL     OW23894   8.113   5.024   3.634  0.0262 -0.5014  0.3908
 7247SOL    HW123895   8.092   4.937   3.669  0.3264 -0.4955  0.5854
 7247SOL    HW223896   8.208   5.027   3.632  0.0160 -0.2019  0.3190
 7248SOL     OW23897   8.755   9.211   7.783 -0.3784  0.2684 -0.3581
 7248SOL    HW123898   8.824   9.147   7.802 -0.6888  0.3667  1.2356
 7248SOL    HW223899   8.768   9.280   7.849  0.0698  1.9842 -2.1473
 7249SOL     OW23900   6.572   8.723   9.351  0.2700 -0.3960 -0.8405
 7249SOL    HW123901   6.585   8.718   9.445 -0.1052 -0.1982 -0.7796
 7249SOL    HW223902   6.660   8.710   9.314  0.7391  1.3024 -0.4056
 7250SOL     OW23903   6.659   8.959   7.850 -0.1333 -0.4584  0.3524
 7250SOL    HW123904   6.642   8.868   7.826  0.7748 -0.3855 -0.6114
 7250SOL    HW223905   6.687   8.955   7.941  0.5991 -1.2198  0.1004
 7251SOL     OW23906   6.644   9.479   5.849  0.3367 -0.0822 -0.0821
 7251SOL    HW123907   6.731   9.448   5.822 -0.0892 -0.4014 -1.1185
 7251SOL    HW223908   6.635   9.564   5.806 -0.7462 -1.0296 -1.8158
 7252SOL     OW23909   0.818   5.649   1.250 -0.1453 -0.0234  0.2416
 7252SOL    HW123910   0.904   5.609   1.247 -0.3260 -0.3555 -0.8822
 7252SOL    HW223911   0.770   5.599   1.316 -0.1078 -1.1620 -0.5593
 7253SOL     OW23912   9.038   1.512   7.521 -0.5865  0.8470 -0.4800
 7253SOL    HW123913   8.953   1.483   7.488 -0.3086  0.0094 -0.4976
 7253SOL    HW223914   9.048   1.467   7.605  0.6188 -0.5247 -1.3120
 7254SOL     OW23915   3.112   5.517   7.066 -0.1948 -0.0205  0.4250
 7254SOL    HW123916   3.033   5.565   7.091 -0.9572 -1.6199  1.2338
 7254SOL    HW223917   3.082   5.451   7.004  0.5241 -0.5377  0.6026
 7255SOL     OW23918   5.205   0.011   5.006  0.5086  0.0780 -0.0814
 7255SOL    HW123919   5.169  -0.077   4.996 -0.1768  0.5090 -2.0629
 7255SOL    HW223920   5.298  -0.002   5.023  0.4151 -1.0457 -0.3512
 7256SOL     OW23921   7.260   5.863   2.843 -0.2518  0.1148  0.1880
 7256SOL    HW123922   7.291   5.946   2.807 -0.0506  0.2080  0.5681
 7256SOL    HW223923   7.319   5.797   2.806 -1.4697 -0.0908 -1.5000
 7257SOL     OW23924   4.000   5.666   8.650 -0.4964  0.6516  0.3905
 7257SOL    HW123925   3.936   5.738   8.650  2.3875  3.4384  0.2689
 7257SOL    HW223926   4.020   5.651   8.742 -0.2103  0.9008  0.3715
 7258SOL     OW23927   3.728   5.701   1.501 -0.3018 -0.0122 -0.0746
 7258SOL    HW123928   3.823   5.689   1.501 -0.6539 -3.8893 -0.2728
 7258SOL    HW223929   3.694   5.629   1.449 -3.4895 -0.0196  1.7186
 7259SOL     OW23930   7.962   9.525   3.532  0.1478  0.4330  0.3720
 7259SOL    HW123931   7.910   9.569   3.465 -0.4260  0.4069  0.8010
 7259SOL    HW223932   7.951   9.578   3.610  0.3402  0.1347  0.6053
 7260SOL     OW23933   0.487   5.826   0.545  0.0845 -0.2261  0.1444
 7260SOL    HW123934   0.543   5.754   0.573  0.2861 -0.4249 -0.7250
 7260SOL    HW223935   0.407   5.783   0.515 -0.5478  0.0558  1.3811
 7261SOL     OW23936   8.906   7.462   3.735 -0.2582  0.2914 -0.0459
 7261SOL    HW123937   8.967   7.403   3.779 -0.6732 -0.1873 -0.1037
 7261SOL    HW223938   8.899   7.537   3.794 -3.1855 -1.6179  2.3911
 7262SOL     OW23939   3.823   6.873   1.104  0.1622  0.6545  0.2500
 7262SOL    HW123940   3.749   6.919   1.143 -1.4908 -1.4449 -0.2164
 7262SOL    HW223941   3.787   6.832   1.025  2.3550  1.2537 -1.1659
 7263SOL     OW23942   8.059   0.128   4.163 -0.1005  0.3073 -0.1965
 7263SOL    HW123943   8.054   0.162   4.074 -0.3178  0.2149 -0.2200
 7263SOL    HW223944   7.983   0.166   4.208  0.5161  1.0893  0.2041
 7264SOL     OW23945   1.679   9.449   6.071  0.0698 -0.5779  0.4879
 7264SOL    HW123946   1.723   9.364   6.073 -1.1364 -1.3411 -1.7722
 7264SOL    HW223947   1.613   9.443   6.140  0.6850 -1.0659  1.0485
 7265SOL     OW23948   3.452   2.382   7.222  0.2644  0.6714 -0.9554
 7265SOL    HW123949   3.450   2.286   7.228  0.6985  0.5793 -2.1037
 7265SOL    HW223950   3.360   2.407   7.225  0.1967  0.3204  0.6196
 7266SOL     OW23951   4.386   7.412   3.514 -0.4588  0.1714 -0.3633
 7266SOL    HW123952   4.359   7.399   3.605 -1.0339  0.0824 -0.5420
 7266SOL    HW223953   4.356   7.500   3.492  0.2866  0.4510 -0.2532
 7267SOL     OW23954   8.049   2.842   2.672 -0.5072 -0.2413 -0.2940
 7267SOL    HW123955   8.063   2.773   2.737 -2.1608 -0.4346 -0.0980
 7267SOL    HW223956   8.055   2.797   2.588 -1.7739 -0.6977 -0.1620
 7268SOL     OW23957   4.536   9.038   3.042  0.0298 -0.0263  0.4067
 7268SOL    HW123958   4.549   9.107   3.107 -0.9385  0.2962  0.2654
 7268SOL    HW223959   4.456   9.062   2.996  0.1787 -0.7593 -0.2684
 7269SOL     OW23960   1.663   0.649   5.753  0.7453  0.8160 -0.1151
 7269SOL    HW123961   1.679   0.741   5.736  0.3739  0.7996 -0.5488
 7269SOL    HW223962   1.583   0.628   5.706  0.6972  0.3281  0.1694
 7270SOL     OW23963   5.052   3.359   4.119  0.2502  0.0379 -0.7892
 7270SOL    HW123964   4.965   3.357   4.080 -0.9283  2.0888  1.4329
 7270SOL    HW223965   5.112   3.363   4.044 -1.6835  0.8495 -2.4009
 7271SOL     OW23966   1.382   6.328   2.908  0.6951  0.0833  0.1394
 7271SOL    HW123967   1.435   6.249   2.895  0.9560  0.2140  0.3960
 7271SOL    HW223968   1.442   6.400   2.890 -0.1486  0.2274 -2.4474
 7272SOL     OW23969   8.956   5.778   0.459  0.0743 -0.1199  0.5686
 7272SOL    HW123970   8.990   5.789   0.548  1.7400 -0.6671  0.0406
 7272SOL    HW223971   8.919   5.690   0.458 -0.5804  0.1488  0.9072
 7273SOL     OW23972   1.847   1.026   5.494  0.4735 -0.0910  0.1803
 7273SOL    HW123973   1.932   1.067   5.513  1.4817 -1.9310 -0.0502
 7273SOL    HW223974   1.803   1.022   5.579  1.1158 -0.1561  0.5196
 7274SOL     OW23975   7.292   8.250   1.719 -0.0047  0.6438 -0.3897
 7274SOL    HW123976   7.229   8.230   1.650 -0.1351 -1.0082  0.1624
 7274SOL    HW223977   7.262   8.333   1.756 -0.8827  0.7170 -1.2219
 7275SOL     OW23978   3.160   7.854   9.262 -0.3373  0.0195 -0.1840
 7275SOL    HW123979   3.137   7.812   9.179  0.4074 -4.0421  1.4348
 7275SOL    HW223980   3.209   7.932   9.236 -0.3860 -0.9144 -3.5592
 7276SOL     OW23981   7.669   6.093   8.329  0.1155 -0.7732 -0.6305
 7276SOL    HW123982   7.686   6.173   8.377 -0.8730 -0.5224 -0.6724
 7276SOL    HW223983   7.755   6.064   8.298  0.6501 -0.4753  0.5453
 7277SOL     OW23984   8.071   4.117   4.014 -0.2012 -0.1137  0.3948
 7277SOL    HW123985   8.058   4.029   4.051 -1.6920 -0.3280 -0.5475
 7277SOL    HW223986   8.166   4.125   4.005  0.0851 -0.8809  2.2357
 7278SOL     OW23987   1.822   7.520   7.223  0.1002 -0.0149 -0.1778
 7278SOL    HW123988   1.740   7.570   7.226  0.4986  0.5986  1.3126
 7278SOL    HW223989   1.891   7.587   7.219  0.5563 -0.5171 -0.9327
 7279SOL     OW23990   3.301   1.001   4.010  0.1823  0.3596 -0.4304
 7279SOL    HW123991   3.264   1.078   3.967 -0.3449  0.1128 -0.4314
 7279SOL    HW223992   3.238   0.931   3.991 -0.4245  0.3927  1.2979
 7280SOL     OW23993   0.846   8.896   6.340 -0.0776 -0.2765 -0.5123
 7280SOL    HW123994   0.810   8.966   6.394 -2.5782 -0.7420 -1.4243
 7280SOL    HW223995   0.826   8.815   6.388 -1.0101 -0.5883 -1.3645
 7281SOL     OW23996   7.792   4.665   1.307 -0.2498 -0.6037  0.0690
 7281SOL    HW123997   7.774   4.624   1.392 -0.4277 -0.9948 -0.1525
 7281SOL    HW223998   7.861   4.611   1.269 -1.1745 -1.3237 -0.6561
 7282SOL     OW23999   6.897   7.251   2.353 -0.1541  0.0145  0.5366
 7282SOL    HW124000   6.944   7.183   2.303 -1.1883 -0.2177 -0.1338
 7282SOL    HW224001   6.816   7.264   2.305 -1.5901 -0.8331  2.5984
 7283SOL     OW24002   7.648   0.055   1.854 -0.0794 -0.2043  0.0039
 7283SOL    HW124003   7.619   0.143   1.833  0.2474 -0.1172 -0.0847
 7283SOL    HW224004   7.570   0.000   1.840 -0.7549  0.2787  1.6360
 7284SOL     OW24005   5.158   9.392   9.319  0.3174 -0.3879 -0.0457
 7284SOL    HW124006   5.132   9.319   9.375  1.1574 -0.0101  0.8674
 7284SOL    HW224007   5.076   9.435   9.295 -0.1853 -1.5883 -0.5467
 7285SOL     OW24008   7.984   4.370   5.332 -0.2712 -0.4399  0.8704
 7285SOL    HW124009   7.894   4.348   5.355 -0.5138 -0.5907 -0.2085
 7285SOL    HW224010   7.977   4.449   5.278  0.1311 -1.1676 -0.2759
 7286SOL     OW24011   6.348   8.018   5.656  0.6642  0.5314  0.2060
 7286SOL    HW124012   6.388   8.078   5.720  0.1752  0.0998  0.9298
 7286SOL    HW224013   6.310   7.949   5.709 -1.1613  0.9889 -0.4342
 7287SOL     OW24014   8.965   6.140   7.311  0.0320  0.5766  0.3254
 7287SOL    HW124015   9.004   6.091   7.239 -1.3231  1.3650 -1.0058
 7287SOL    HW224016   8.923   6.073   7.366  1.0410 -0.0261  0.3797
 7288SOL     OW24017   6.224   4.960   6.837  0.3083  0.0354 -0.3679
 7288SOL    HW124018   6.148   4.903   6.848  0.4713 -0.2341 -0.6197
 7288SOL    HW224019   6.223   5.018   6.913 -0.0825 -0.0454 -0.3139
 7289SOL     OW24020   8.987   3.222   6.727  0.1854  0.1417  0.7196
 7289SOL    HW124021   8.894   3.244   6.738  0.0142 -0.6959  1.0717
 7289SOL    HW224022   9.019   3.284   6.661  0.0014  2.0641  2.3403
 7290SOL     OW24023   9.181   1.517   1.611 -0.6638 -0.9165  0.5312
 7290SOL    HW124024   9.181   1.422   1.623  3.0249 -0.9657  1.4867
 7290SOL    HW224025   9.216   1.530   1.523  0.1272 -0.4802  0.9000
 7291SOL     OW24026   6.692   4.229   4.966 -0.3971 -0.7650 -0.2538
 7291SOL    HW124027   6.702   4.222   4.871 -0.4672  1.4717 -0.4797
 7291SOL    HW224028   6.760   4.291   4.993 -1.3753 -0.1643  0.9193
 7292SOL     OW24029   8.733   7.089   0.282 -0.1412  0.0819  0.4887
 7292SOL    HW124030   8.716   7.089   0.376 -0.1375 -0.4341  0.4918
 7292SOL    HW224031   8.828   7.076   0.275  0.0461  1.2956  0.4325
 7293SOL     OW24032   0.980   4.209   9.450 -0.1064 -0.2396 -0.1699
 7293SOL    HW124033   1.056   4.262   9.426  0.0409  0.7131  2.1075
 7293SOL    HW224034   1.017   4.123   9.471  0.0940 -0.2895 -0.6997
 7294SOL     OW24035   3.916   4.415   4.985  0.0570 -0.3843  0.0757
 7294SOL    HW124036   3.825   4.393   5.003  0.2461  0.2230  1.9844
 7294SOL    HW224037   3.913   4.505   4.951 -0.0222 -0.1717  0.6385
 7295SOL     OW24038   5.688   0.013   9.143  0.6313  0.2311 -0.1689
 7295SOL    HW124039   5.673   0.064   9.222  2.6560 -1.1723  1.2451
 7295SOL    HW224040   5.742  -0.060   9.173  2.2931  0.1647 -3.0388
 7296SOL     OW24041   6.205   5.351   6.175 -0.6421 -0.6502 -0.3117
 7296SOL    HW124042   6.220   5.419   6.110 -0.2094  0.4930  0.9364
 7296SOL    HW224043   6.142   5.292   6.134  0.4465 -0.5863 -2.1760
 7297SOL     OW24044   0.408   2.702   3.741 -0.4301  0.4925  0.2823
 7297SOL    HW124045   0.359   2.767   3.791  1.1390  1.2437  0.8983
 7297SOL    HW224046   0.398   2.620   3.790 -1.2494  0.5665  0.2573
 7298SOL     OW24047   7.467   6.758   4.380 -0.1059 -0.0440 -0.4410
 7298SOL    HW124048   7.556   6.721   4.382  0.4203  1.0532 -1.7731
 7298SOL    HW224049   7.437   6.753   4.471  1.0586 -1.0572 -0.0840
 7299SOL     OW24050   1.483   5.190   4.603 -0.0421 -0.2465 -0.1677
 7299SOL    HW124051   1.554   5.232   4.553 -0.0367 -1.1625 -0.9545
 7299SOL    HW224052   1.488   5.230   4.689  1.3928 -0.2371 -0.2296
 7300SOL     OW24053   7.326   7.395   8.143 -0.4333  0.1818  0.0551
 7300SOL    HW124054   7.331   7.305   8.176  1.0529  0.3601  0.4171
 7300SOL    HW224055   7.417   7.427   8.148 -1.1159  2.1115  1.0802
 7301SOL     OW24056   6.769   6.539   7.206  0.1793 -0.4173 -0.0039
 7301SOL    HW124057   6.831   6.603   7.241 -0.9980  0.7500  0.0242
 7301SOL    HW224058   6.683   6.572   7.233 -0.5256 -1.4049 -0.9776
 7302SOL     OW24059   6.674   0.575   1.335 -0.5836 -0.1975  0.1205
 7302SOL    HW124060   6.656   0.501   1.393 -2.3574  0.1913  0.1470
 7302SOL    HW224061   6.605   0.638   1.356  0.0553  0.8696 -0.8781
 7303SOL     OW24062   3.260   8.138   8.781 -0.1178 -0.5570  0.6471
 7303SOL    HW124063   3.257   8.053   8.735  1.7242  1.4209 -3.7150
 7303SOL    HW224064   3.325   8.125   8.850  0.4180 -2.6253 -0.1462
 7304SOL     OW24065   5.204   2.088   2.346  0.7165 -0.4114 -0.2334
 7304SOL    HW124066   5.240   2.046   2.268 -0.2308 -0.4454 -0.6793
 7304SOL    HW224067   5.239   2.177   2.344 -0.8793  0.2506 -1.8645
 7305SOL     OW24068   8.821   3.622   8.622 -0.4041  0.6258 -0.3332
 7305SOL    HW124069   8.804   3.667   8.704  0.8514  0.6942 -0.0921
 7305SOL    HW224070   8.750   3.650   8.564 -2.1874 -0.5940  1.1518
 7306SOL     OW24071   5.845   4.863   6.488  0.1841  0.5468  0.2278
 7306SOL    HW124072   5.782   4.850   6.418  0.0538  0.8247  0.2919
 7306SOL    HW224073   5.825   4.950   6.523 -0.0860  0.2151  0.9386
 7307SOL     OW24074   4.039   9.197   5.745  0.2040  0.5360 -0.3005
 7307SOL    HW124075   4.027   9.292   5.745  0.5860  0.6362 -2.1106
 7307SOL    HW224076   4.109   9.182   5.681  0.8093 -0.9088  0.6522
 7308SOL     OW24077   8.715   3.887   6.545  0.0216 -0.3986  0.3629
 7308SOL    HW124078   8.741   3.845   6.463  0.1559 -0.3181  0.3642
 7308SOL    HW224079   8.722   3.980   6.528  0.0589 -0.3821  0.4701
 7309SOL     OW24080   2.358   2.849   1.457 -0.0008 -0.2265 -0.5914
 7309SOL    HW124081   2.283   2.904   1.481 -0.3650 -0.7326 -0.5592
 7309SOL    HW224082   2.335   2.762   1.487  0.6995 -0.3525 -0.3948
 7310SOL     OW24083   0.573   5.071   4.243  0.1002  0.0502 -0.2247
 7310SOL    HW124084   0.520   5.011   4.296 -0.4223  0.8336  0.1493
 7310SOL    HW224085   0.607   5.135   4.305 -1.8403  1.9525 -1.0003
 7311SOL     OW24086   8.676   2.273   8.532  0.0403 -0.2418 -0.3580
 7311SOL    HW124087   8.755   2.218   8.533  0.2445 -0.1005 -3.1244
 7311SOL    HW224088   8.608   2.217   8.571  0.8533 -1.4447 -0.6125
 7312SOL     OW24089   1.017   6.626   0.771  0.4017 -0.1033  0.0413
 7312SOL    HW124090   0.974   6.680   0.837  0.2554 -2.5271  2.1155
 7312SOL    HW224091   1.079   6.684   0.728 -0.8076  2.0389  1.0646
 7313SOL     OW24092   0.298   5.416   1.157 -0.5288 -0.0390 -0.1420
 7313SOL    HW124093   0.354   5.420   1.079 -0.1652  0.8885  0.1481
 7313SOL    HW224094   0.345   5.469   1.223 -2.7859  2.8043 -0.5946
 7314SOL     OW24095   8.626   3.658   9.607  0.5010 -0.1250  0.0826
 7314SOL    HW124096   8.542   3.629   9.642  0.3862  0.7465  0.5483
 7314SOL    HW224097   8.672   3.576   9.585 -1.6826 -0.6262 -3.2601
 7315SOL     OW24098   5.253   0.756   8.041 -0.3354 -0.0346  0.2479
 7315SOL    HW124099   5.248   0.736   7.948  1.6074  0.3487  0.0308
 7315SOL    HW224100   5.300   0.681   8.079  0.6770  0.7433  0.5700
 7316SOL     OW24101   9.061   0.714   0.042  0.2136 -0.0364 -0.7926
 7316SOL    HW124102   9.120   0.711  -0.034 -0.6755  1.3501 -1.5839
 7316SOL    HW224103   9.056   0.623   0.072  2.3400 -0.2601 -1.0082
 7317SOL     OW24104   8.252   2.729   3.378 -0.2135  0.9104 -0.0130
 7317SOL    HW124105   8.173   2.777   3.401 -0.9949 -0.6013  0.6221
 7317SOL    HW224106   8.290   2.703   3.462  0.5519  0.9861 -0.3298
 7318SOL     OW24107   8.593   2.230   6.710  0.7154 -0.1171  0.1236
 7318SOL    HW124108   8.677   2.268   6.684  0.3769  1.2660  0.9381
 7318SOL    HW224109   8.552   2.203   6.628  1.7956 -0.4911 -0.3134
 7319SOL     OW24110   6.104   8.324   4.194  0.8126 -0.1645  0.0459
 7319SOL    HW124111   6.021   8.372   4.186  2.2557  2.2189 -2.0701
 7319SOL    HW224112   6.168   8.389   4.221  2.2305 -1.7126  0.6040
 7320SOL     OW24113   8.148   4.301   5.833  0.1823  1.2161 -0.2788
 7320SOL    HW124114   8.144   4.252   5.915  0.4736  3.4326  1.1572
 7320SOL    HW224115   8.146   4.234   5.764  0.6955 -0.7634  1.5284
 7321SOL     OW24116   2.468   8.968   9.289 -0.2805  0.0595  0.2861
 7321SOL    HW124117   2.482   8.955   9.195 -1.6465 -0.2007  0.1005
 7321SOL    HW224118   2.381   8.932   9.306  0.5831 -1.4112  1.9753
 7322SOL     OW24119   8.815   8.940   4.379 -0.2058 -0.3025 -0.2501
 7322SOL    HW124120   8.798   8.889   4.300  1.6481 -1.3360 -0.0312
 7322SOL    HW224121   8.756   8.902   4.445  0.8329 -1.9112 -0.2055
 7323SOL     OW24122   6.647   7.806   0.895 -0.3038 -0.3741 -0.1292
 7323SOL    HW124123   6.645   7.747   0.971  1.5839  0.3441  0.5353
 7323SOL    HW224124   6.557   7.808   0.865 -1.4174  0.2425  2.8385
 7324SOL     OW24125   0.417   3.013   5.745 -0.5357 -0.0884 -0.0760
 7324SOL    HW124126   0.466   2.973   5.817  0.0137  1.3041  0.3566
 7324SOL    HW224127   0.331   2.971   5.748 -0.1196 -0.9160  0.6153
 7325SOL     OW24128   3.839   3.590   7.589 -0.0951 -0.7091  0.3991
 7325SOL    HW124129   3.875   3.675   7.612 -0.5236 -0.5194  0.3812
 7325SOL    HW224130   3.913   3.530   7.594  0.6475  0.0022 -1.5492
 7326SOL     OW24131   5.362   9.046   7.247 -0.5409  0.2021 -0.5056
 7326SOL    HW124132   5.343   8.998   7.327 -1.9564 -0.2384 -1.0808
 7326SOL    HW224133   5.277   9.076   7.215 -0.1483 -0.5261 -2.4040
 7327SOL     OW24134   5.937   5.076   3.464  0.4622 -0.2281  0.4096
 7327SOL    HW124135   5.908   5.166   3.477 -1.5632 -0.9987  1.6924
 7327SOL    HW224136   5.890   5.046   3.386  0.9840 -0.2323  0.0947
 7328SOL     OW24137   4.093   6.715   8.377 -0.1658 -0.4935 -0.1681
 7328SOL    HW124138   4.148   6.793   8.379 -0.2685 -0.4166  2.2585
 7328SOL    HW224139   4.148   6.646   8.414 -1.0252 -0.8663  0.4503
 7329SOL     OW24140   0.269   4.926   1.016 -0.0698 -0.5156 -0.5903
 7329SOL    HW124141   0.290   4.979   1.093 -1.9488 -0.0141 -0.3974
 7329SOL    HW224142   0.293   4.837   1.042  1.7992 -0.0045 -0.4181
 7330SOL     OW24143   3.209   8.794   7.567 -0.1959 -0.3803  0.3683
 7330SOL    HW124144   3.250   8.759   7.647 -1.8492 -1.2519  0.8922
 7330SOL    HW224145   3.272   8.776   7.498  1.1647  0.1543  1.4249
 7331SOL     OW24146   6.425   4.932   3.326 -0.4033  0.0347 -0.1593
 7331SOL    HW124147   6.451   4.911   3.236 -0.9519  0.2087 -0.3645
 7331SOL    HW224148   6.331   4.913   3.328 -0.5388  0.7157  0.1708
 7332SOL     OW24149   7.657   1.896   4.202  0.2176  0.1237 -0.4899
 7332SOL    HW124150   7.699   1.863   4.123 -0.5079 -2.0649 -0.0223
 7332SOL    HW224151   7.568   1.863   4.197  0.1116  0.0955  1.1539
 7333SOL     OW24152   0.311   0.157   5.756 -0.4378 -0.2193  0.1797
 7333SOL    HW124153   0.325   0.140   5.849  0.1017 -1.7216 -0.1482
 7333SOL    HW224154   0.324   0.072   5.714  3.6759  1.1205 -1.7981
 7334SOL     OW24155   5.756   7.860   2.440 -0.3528  0.4801  0.0685
 7334SOL    HW124156   5.804   7.935   2.406  0.3499  0.0931  0.1774
 7334SOL    HW224157   5.819   7.814   2.496 -0.4985 -0.6460 -0.6502
 7335SOL     OW24158   5.551   5.962   5.053 -0.2313 -0.1451 -0.0059
 7335SOL    HW124159   5.517   5.922   4.973  0.4998 -0.4761 -0.1578
 7335SOL    HW224160   5.481   5.950   5.118  0.0158 -1.8142  0.0031
 7336SOL     OW24161   2.797   1.828   4.720 -0.3936 -0.4011  0.7106
 7336SOL    HW124162   2.712   1.785   4.724  0.4394 -2.4106 -1.0462
 7336SOL    HW224163   2.858   1.763   4.755  0.6483  0.2123  0.0982
 7337SOL     OW24164   3.858   7.114   8.228  0.1997  0.4405 -0.6504
 7337SOL    HW124165   3.787   7.060   8.262  0.9621  0.0077  0.3285
 7337SOL    HW224166   3.828   7.204   8.240  0.3900  0.3068  1.1449
 7338SOL     OW24167   6.475   6.844   5.541 -0.1064 -0.6743  0.0491
 7338SOL    HW124168   6.383   6.843   5.567 -0.0273  1.0939  0.5068
 7338SOL    HW224169   6.488   6.761   5.494 -2.6628  0.2157 -2.4976
 7339SOL     OW24170   2.902   0.678   1.531 -0.5977 -0.2410  0.3437
 7339SOL    HW124171   2.905   0.603   1.590  1.4398 -0.4566  0.0252
 7339SOL    HW224172   2.811   0.707   1.534 -1.3044 -2.3552  0.9285
 7340SOL     OW24173   0.966   5.913   6.706 -0.0517  0.6907 -0.2625
 7340SOL    HW124174   0.893   5.922   6.768  1.3409 -0.6977  1.6993
 7340SOL    HW224175   1.007   6.000   6.705  0.1566  0.6436  1.1708
 7341SOL     OW24176   1.527   1.528   8.540 -0.3166 -0.6073 -0.9247
 7341SOL    HW124177   1.466   1.479   8.485 -2.7668  1.4790 -0.2298
 7341SOL    HW224178   1.495   1.514   8.629  0.1702  0.6065 -0.5473
 7342SOL     OW24179   8.800   0.615   5.867  0.3779 -0.3735  0.1186
 7342SOL    HW124180   8.785   0.659   5.951  1.5028 -1.2344  0.7891
 7342SOL    HW224181   8.712   0.600   5.833 -0.0760  1.2256  0.4634
 7343SOL     OW24182   4.667   6.777   5.393 -0.2089 -0.6671 -0.3185
 7343SOL    HW124183   4.639   6.695   5.352  1.4612 -1.4440  0.0072
 7343SOL    HW224184   4.762   6.772   5.393 -0.1120  0.5438  1.2087
 7344SOL     OW24185   9.195   8.778   2.889 -0.4090 -0.2192 -0.2696
 7344SOL    HW124186   9.113   8.730   2.904 -0.0842 -0.8070 -0.3276
 7344SOL    HW224187   9.186   8.858   2.941 -1.5938  0.3929 -1.3571
 7345SOL     OW24188   1.626   2.276   3.319  0.0936  0.4926 -0.2733
 7345SOL    HW124189   1.569   2.330   3.264 -0.1693  0.5361  0.0362
 7345SOL    HW224190   1.677   2.338   3.370  0.3106  0.4518 -0.4393
 7346SOL     OW24191   3.488   7.990   8.310  0.1439 -0.2890 -0.0892
 7346SOL    HW124192   3.468   8.070   8.359  1.5593  1.4414 -2.1582
 7346SOL    HW224193   3.422   7.987   8.241  0.3931 -0.6267 -0.3172
 7347SOL     OW24194   5.704   5.793   1.424  0.4228  0.1375 -0.0438
 7347SOL    HW124195   5.668   5.750   1.347  1.4352 -1.8165  0.5187
 7347SOL    HW224196   5.719   5.884   1.396  0.9723 -0.5747 -2.2283
 7348SOL     OW24197   8.360   2.121   6.881 -0.3287  0.1203  0.3579
 7348SOL    HW124198   8.454   2.134   6.895 -0.1023 -0.2467 -0.7556
 7348SOL    HW224199   8.319   2.180   6.944  0.6341 -0.4770  1.5817
 7349SOL     OW24200   7.620   2.246   4.348  0.1260 -0.4700  0.1450
 7349SOL    HW124201   7.538   2.203   4.322 -0.4576  0.6549  0.0542
 7349SOL    HW224202   7.661   2.184   4.409 -0.5725 -1.2480 -0.1506
 7350SOL     OW24203   0.884   1.601   1.178 -0.3961 -0.5951  0.4387
 7350SOL    HW124204   0.824   1.545   1.227 -0.3936 -1.1227 -0.1413
 7350SOL    HW224205   0.895   1.679   1.232 -3.8092  0.8069 -0.6178
 7351SOL     OW24206   8.944   8.147   3.153 -0.0225 -0.2269 -0.1424
 7351SOL    HW124207   9.019   8.091   3.174 -0.4903  0.1985  3.4448
 7351SOL    HW224208   8.870   8.086   3.149  0.0642 -0.3151 -0.3725
 7352SOL     OW24209   2.301   0.061   1.619  0.4322 -0.1412  0.0687
 7352SOL    HW124210   2.284   0.155   1.619 -0.9306 -0.3691 -0.9990
 7352SOL    HW224211   2.235   0.025   1.678  1.0234 -0.4279  0.5612
 7353SOL     OW24212   5.360   9.452   0.674 -0.1144  0.4154  0.1822
 7353SOL    HW124213   5.325   9.535   0.707  1.0621  0.7047  0.7382
 7353SOL    HW224214   5.289   9.389   0.688 -0.4423  0.9910  1.2240
 7354SOL     OW24215   2.807   8.271   3.013  0.1341 -0.0661  0.3993
 7354SOL    HW124216   2.811   8.177   2.998 -0.8885 -0.0633  0.0317
 7354SOL    HW224217   2.868   8.287   3.085  2.9136 -0.5260 -1.6613
 7355SOL     OW24218   7.003   1.672   6.897 -0.4073 -0.2084  0.2399
 7355SOL    HW124219   7.073   1.641   6.839 -0.8910 -1.1487  0.1358
 7355SOL    HW224220   7.008   1.767   6.892  1.8527 -0.2025  1.4355
 7356SOL     OW24221   3.777   1.604   5.321 -0.2239 -0.1159  0.6191
 7356SOL    HW124222   3.771   1.590   5.226  1.2207  3.3083 -0.1067
 7356SOL    HW224223   3.866   1.577   5.344 -0.2447 -0.0109  0.8264
 7357SOL     OW24224   2.693   7.081   8.075  0.3004 -0.2630 -0.4822
 7357SOL    HW124225   2.647   7.015   8.024 -0.0973 -0.5799  0.2763
 7357SOL    HW224226   2.628   7.112   8.138  1.1673 -0.8264  0.7070
 7358SOL     OW24227   7.986   7.320   5.363  0.0395  0.0587  0.0294
 7358SOL    HW124228   8.037   7.239   5.356  0.6522  0.2532  1.8138
 7358SOL    HW224229   7.933   7.322   5.283  1.8055 -0.8589 -1.2189
 7359SOL     OW24230   9.051   8.136   3.911 -0.2605 -0.2703 -0.2867
 7359SOL    HW124231   9.045   8.135   3.815 -0.6600 -0.5668 -0.2604
 7359SOL    HW224232   9.106   8.061   3.933 -0.5778 -0.4962 -0.2590
 7360SOL     OW24233   0.832   2.397   1.757 -0.4956  0.3668  0.7259
 7360SOL    HW124234   0.924   2.416   1.771 -0.3157  1.5556 -1.5395
 7360SOL    HW224235   0.787   2.478   1.781 -0.7000  0.5441 -0.2197
 7361SOL     OW24236   0.174   8.774   6.164  0.6968  0.6317 -0.4609
 7361SOL    HW124237   0.169   8.684   6.197 -1.3032  0.0226 -2.1773
 7361SOL    HW224238   0.265   8.784   6.138  1.0766 -0.7276  0.1935
 7362SOL     OW24239   4.280   0.492   5.512  0.6083 -0.1949  0.3374
 7362SOL    HW124240   4.224   0.440   5.569 -0.6838 -0.9144 -1.4698
 7362SOL    HW224241   4.233   0.493   5.428 -0.6758  5.8150  0.7145
 7363SOL     OW24242   4.809   5.367   5.974 -0.0478  0.6620  0.6394
 7363SOL    HW124243   4.800   5.457   5.945 -0.9575  0.9825  1.8408
 7363SOL    HW224244   4.757   5.316   5.912  0.6352  0.9225 -0.1612
 7364SOL     OW24245   9.500   3.415   4.932 -0.1175  0.5855  0.3366
 7364SOL    HW124246   9.578   3.371   4.900 -0.5372 -0.3007  0.4964
 7364SOL    HW224247   9.477   3.477   4.863  0.5839  0.6772  0.1812
 7365SOL     OW24248   8.577   8.204   8.456 -0.0786  0.2773 -0.1903
 7365SOL    HW124249   8.482   8.198   8.458 -0.0299 -0.5488  0.1613
 7365SOL    HW224250   8.596   8.297   8.461 -0.8753  0.4605 -0.5128
 7366SOL     OW24251   5.460   5.124   5.484  0.6669  0.2600  0.2678
 7366SOL    HW124252   5.437   5.150   5.394  3.1748 -0.7701 -0.7550
 7366SOL    HW224253   5.484   5.207   5.526  0.9458  0.5748 -0.4829
 7367SOL     OW24254   2.411   2.833   9.530  0.1006 -0.1676 -0.7590
 7367SOL    HW124255   2.366   2.811   9.448 -0.8123  1.0261 -0.6131
 7367SOL    HW224256   2.499   2.799   9.519 -0.1049 -0.3182 -2.1188
 7368SOL     OW24257   3.043   2.771   0.517  0.1878  0.0418  0.1912
 7368SOL    HW124258   3.011   2.695   0.566  0.0336 -0.2541 -0.3602
 7368SOL    HW224259   3.138   2.761   0.518  0.1394 -0.6682 -0.6538
 7369SOL     OW24260   2.780   4.058   3.905  0.1545  0.7152 -0.2436
 7369SOL    HW124261   2.740   4.130   3.952 -2.5703 -0.6734 -0.2660
 7369SOL    HW224262   2.720   3.984   3.916  2.8452 -1.6405 -0.1240
 7370SOL     OW24263   2.317   0.462   6.928 -0.0211  0.1990  0.4391
 7370SOL    HW124264   2.238   0.451   6.875  1.3521 -3.7768 -1.0830
 7370SOL    HW224265   2.367   0.530   6.882 -1.5399  1.2099  0.2034
 7371SOL     OW24266   5.279   8.921   6.881  0.3410  0.2372 -0.1183
 7371SOL    HW124267   5.312   8.952   6.797  1.2397 -3.5114 -1.3253
 7371SOL    HW224268   5.334   8.846   6.902 -1.4145 -0.4284  2.6579
 7372SOL     OW24269   6.090   1.578   4.031  0.3439 -0.1815  0.2609
 7372SOL    HW124270   6.175   1.573   4.075  0.7307  1.3515 -0.2846
 7372SOL    HW224271   6.030   1.607   4.099  0.3290 -0.8434  0.5387
 7373SOL     OW24272   0.516   1.162   7.450  0.1612  0.1527  0.0320
 7373SOL    HW124273   0.445   1.101   7.429  0.6012 -0.0253 -0.9821
 7373SOL    HW224274   0.475   1.230   7.503 -0.3043 -1.1429  1.4320
 7374SOL     OW24275   6.400   2.480   3.478 -0.4742  0.6015  0.1646
 7374SOL    HW124276   6.403   2.408   3.541  1.1052 -1.9654 -2.6125
 7374SOL    HW224277   6.314   2.472   3.436  0.2009 -0.5795 -1.0496
 7375SOL     OW24278   3.569   5.037   9.342  0.3631 -0.2727  0.0293
 7375SOL    HW124279   3.566   5.128   9.372 -0.7994 -0.5544  0.8430
 7375SOL    HW224280   3.581   5.043   9.247  0.1190  0.7411  0.0555
 7376SOL     OW24281   6.147   3.047   0.653  0.1531 -0.1898 -0.3448
 7376SOL    HW124282   6.177   2.969   0.606 -1.8896 -1.9841  1.1389
 7376SOL    HW224283   6.217   3.065   0.716  1.9141  0.9503 -2.4628
 7377SOL     OW24284   4.874   2.021   2.702  0.5499  0.3668 -0.3806
 7377SOL    HW124285   4.819   1.993   2.776  0.5122 -0.2185 -0.6221
 7377SOL    HW224286   4.824   1.994   2.625  1.4499 -0.7176 -0.5998
 7378SOL     OW24287   3.189   4.204   6.485 -0.3728  0.0737  0.4258
 7378SOL    HW124288   3.116   4.153   6.518 -0.3005 -0.1790  0.1951
 7378SOL    HW224289   3.262   4.142   6.480 -1.1138 -0.7027 -3.0493
 7379SOL     OW24290   0.017   2.649   1.070  0.6765 -0.3715 -0.3113
 7379SOL    HW124291  -0.042   2.591   1.022 -0.4329 -0.0488  0.6316
 7379SOL    HW224292   0.067   2.590   1.127 -2.1268 -0.3087  2.4460
 7380SOL     OW24293   8.759   3.141   2.325 -0.4143  0.0793 -0.4596
 7380SOL    HW124294   8.668   3.168   2.341 -0.0929  1.0461 -0.1735
 7380SOL    HW224295   8.805   3.223   2.305  0.3158 -0.4538 -1.0064
 7381SOL     OW24296   1.607   4.663   8.532  0.0959  0.2268  0.2684
 7381SOL    HW124297   1.687   4.664   8.480 -0.3102 -0.1484 -0.3873
 7381SOL    HW224298   1.537   4.683   8.469 -0.3191  0.5880  0.8363
 7382SOL     OW24299   9.577   9.170   2.240  0.2530  0.5055 -0.3969
 7382SOL    HW124300   9.489   9.140   2.218  0.1452  0.2288  0.3694
 7382SOL    HW224301   9.575   9.265   2.226 -0.5769  0.7001  0.8631
 7383SOL     OW24302   3.623   2.648   7.535  0.2923 -0.3879  0.5784
 7383SOL    HW124303   3.545   2.702   7.526  0.8161  0.4938  1.1741
 7383SOL    HW224304   3.636   2.610   7.448 -0.3650  0.0493  0.2843
 7384SOL     OW24305   9.525   5.389   4.533  0.1015 -0.3142  0.6877
 7384SOL    HW124306   9.547   5.472   4.489  1.2680  0.1887  2.1509
 7384SOL    HW224307   9.448   5.410   4.585  2.1306  0.8149  3.4774
 7385SOL     OW24308   3.143   4.120   0.950  0.3932  0.2314  0.4081
 7385SOL    HW124309   3.055   4.091   0.976  1.1535 -0.1966  2.6341
 7385SOL    HW224310   3.127   4.199   0.897 -1.3540 -0.4032 -0.0826
 7386SOL     OW24311   7.374   3.196   7.730  1.0207 -0.4081 -0.1101
 7386SOL    HW124312   7.315   3.256   7.776  2.3782 -0.5253  1.8747
 7386SOL    HW224313   7.316   3.126   7.699 -0.2284  0.7122 -0.4184
 7387SOL     OW24314   0.185   4.878   2.965  0.2737 -0.2521  0.0277
 7387SOL    HW124315   0.126   4.880   3.040 -0.5102 -2.5957 -0.4404
 7387SOL    HW224316   0.193   4.785   2.944  3.5485  0.0441 -0.4230
 7388SOL     OW24317   2.267   1.357   2.521  0.2861  0.0972  0.8387
 7388SOL    HW124318   2.228   1.285   2.472 -0.0028  0.9025 -0.1476
 7388SOL    HW224319   2.361   1.349   2.506  0.2843 -0.3090  1.0556
 7389SOL     OW24320   8.878   1.836   3.542  0.2870  0.4408  0.1095
 7389SOL    HW124321   8.919   1.749   3.537  0.2225  0.3583  0.8821
 7389SOL    HW224322   8.929   1.890   3.482  1.0419  0.1430  0.4652
 7390SOL     OW24323   2.040   0.831   3.601  0.3159 -0.3297 -0.4994
 7390SOL    HW124324   2.111   0.823   3.537 -0.8853 -1.1084 -1.7972
 7390SOL    HW224325   1.978   0.892   3.560  0.3993  0.6796  0.8053
 7391SOL     OW24326   7.263   9.223   6.332  0.3260  0.2522 -0.0319
 7391SOL    HW124327   7.280   9.146   6.388  0.4631 -1.8519 -2.7556
 7391SOL    HW224328   7.177   9.254   6.359  0.3533 -0.7206  1.2836
 7392SOL     OW24329   1.734   5.153   5.731 -0.2912  0.1214 -0.7355
 7392SOL    HW124330   1.774   5.224   5.681  2.1618  0.4776  1.4861
 7392SOL    HW224331   1.672   5.112   5.670  0.5540  2.1230 -3.1111
 7393SOL     OW24332   7.537   0.012   1.497  0.5553  0.2762  0.1336
 7393SOL    HW124333   7.470  -0.029   1.553  0.3083 -0.7164 -0.8482
 7393SOL    HW224334   7.616  -0.038   1.516  0.8058  0.8304  0.5857
 7394SOL     OW24335   1.797   2.797   9.536  0.1344 -0.2785  0.4294
 7394SOL    HW124336   1.816   2.716   9.583 -0.3598  0.6943  2.3871
 7394SOL    HW224337   1.702   2.802   9.534  0.1482 -0.1136 -0.4010
 7395SOL     OW24338   5.946   5.542   8.403 -0.3890 -0.4432  0.1332
 7395SOL    HW124339   5.872   5.489   8.432 -1.5244  1.6127  1.2122
 7395SOL    HW224340   5.910   5.630   8.394  1.6812  0.3939 -0.4679
 7396SOL     OW24341   8.374   2.634   1.825  0.4004 -0.1253  0.3668
 7396SOL    HW124342   8.325   2.554   1.807  0.5601 -0.0271 -0.5733
 7396SOL    HW224343   8.453   2.605   1.869  0.5302 -0.5135 -0.1123
 7397SOL     OW24344   1.081   4.250   8.772 -0.0312  0.2281 -0.3620
 7397SOL    HW124345   1.078   4.196   8.693  0.0347  0.6277 -0.6376
 7397SOL    HW224346   1.170   4.285   8.774  0.0105  0.1092 -0.0333
 7398SOL     OW24347   1.371   6.752   2.998 -0.1848 -0.1144 -0.3339
 7398SOL    HW124348   1.362   6.842   3.030  0.3370 -0.0047 -0.4812
 7398SOL    HW224349   1.465   6.737   2.998 -0.2664 -0.6210 -0.4321
 7399SOL     OW24350   5.488   4.674   2.912  0.3744  0.1368 -0.5067
 7399SOL    HW124351   5.529   4.642   2.832  1.5066  1.7173 -0.5927
 7399SOL    HW224352   5.551   4.736   2.949 -0.2909 -0.2693  1.4174
 7400SOL     OW24353   2.055   1.933   0.703 -0.0140  0.1338  0.1519
 7400SOL    HW124354   2.074   1.946   0.610  0.5830  1.2701  0.4153
 7400SOL    HW224355   1.968   1.971   0.716 -0.1085 -0.0484  0.0558
 7401SOL     OW24356   0.751   6.616   6.353 -0.7356  0.0734 -0.3227
 7401SOL    HW124357   0.707   6.679   6.297 -2.1484 -0.6779 -0.1227
 7401SOL    HW224358   0.802   6.669   6.415 -3.2309  1.1474  0.9519
 7402SOL     OW24359   1.646   3.523   0.240  0.4892  0.1984  0.4956
 7402SOL    HW124360   1.695   3.451   0.200  2.1267  1.9990 -0.9484
 7402SOL    HW224361   1.686   3.535   0.326  1.0180  0.1343  0.2614
 7403SOL     OW24362   0.480   3.254   1.078 -0.0279  0.3307 -0.4472
 7403SOL    HW124363   0.512   3.219   1.161  0.6550 -0.2753 -0.9560
 7403SOL    HW224364   0.401   3.203   1.060 -0.3131  0.6311 -0.0498
 7404SOL     OW24365   4.252   2.464   3.495  0.0247  0.1657 -0.3779
 7404SOL    HW124366   4.195   2.406   3.545 -0.7405  0.5353 -0.7907
 7404SOL    HW224367   4.336   2.419   3.492 -0.4667 -0.7776 -0.4343
 7405SOL     OW24368   5.299   7.892   6.021 -0.3830  1.0281 -0.5215
 7405SOL    HW124369   5.343   7.867   6.102  0.6952  2.1030 -0.7486
 7405SOL    HW224370   5.347   7.846   5.953 -0.2238  1.4359 -0.6875
 7406SOL     OW24371   3.000   6.661   7.149  0.0483  0.3098  0.0931
 7406SOL    HW124372   2.993   6.662   7.245 -0.0372 -1.4548  0.1440
 7406SOL    HW224373   3.046   6.579   7.130 -0.8091  0.1501 -1.4274
 7407SOL     OW24374   1.611   5.191   7.426  0.3795  0.1941  0.1706
 7407SOL    HW124375   1.706   5.191   7.435  0.2893  0.2208  1.1829
 7407SOL    HW224376   1.581   5.249   7.496 -0.5425 -1.9270  1.6003
 7408SOL     OW24377   9.013   8.240   6.404 -0.1149 -0.5652 -0.1008
 7408SOL    HW124378   8.926   8.275   6.423  0.6087  1.2078  0.1181
 7408SOL    HW224379   9.004   8.198   6.318 -1.4500 -1.4807  0.4450
 7409SOL     OW24380   9.068   2.100   8.766  0.0174 -0.1793  0.1945
 7409SOL    HW124381   9.009   2.071   8.836 -0.7051  0.4725 -0.1240
 7409SOL    HW224382   9.099   2.186   8.795 -1.3171  0.6943 -0.8574
 7410SOL     OW24383   3.853   4.883   5.052 -0.5436 -0.3684  0.8851
 7410SOL    HW124384   3.771   4.927   5.035 -0.8914 -0.9441  1.0377
 7410SOL    HW224385   3.901   4.943   5.110 -1.2059 -0.4001  1.4846
 7411SOL     OW24386   6.259   0.540   8.118 -0.3206  0.1109  0.2840
 7411SOL    HW124387   6.209   0.599   8.061  1.1884  0.6665 -0.5273
 7411SOL    HW224388   6.226   0.558   8.206 -1.4657  0.5259 -0.2216
 7412SOL     OW24389   9.330   4.796   8.025 -0.0509  0.2517 -0.1090
 7412SOL    HW124390   9.237   4.778   8.041  0.0277  0.0396  0.1125
 7412SOL    HW224391   9.376   4.722   8.064  0.1758 -0.0154 -0.8752
 7413SOL     OW24392   7.655   3.192   9.212 -0.4748  0.5785 -0.0581
 7413SOL    HW124393   7.678   3.140   9.289 -0.8766  0.9170  0.2972
 7413SOL    HW224394   7.577   3.240   9.239 -0.6820  0.6162 -0.7172
 7414SOL     OW24395   3.816   2.026   7.324 -0.1152  0.1616  0.3039
 7414SOL    HW124396   3.764   1.995   7.249 -0.8787 -0.6573  1.1455
 7414SOL    HW224397   3.863   1.949   7.354 -0.7153  0.2051  1.3826
 7415SOL     OW24398   7.746   5.010   3.043  0.5882 -0.5430 -0.0809
 7415SOL    HW124399   7.684   5.021   2.971  0.8997  1.5210 -0.0931
 7415SOL    HW224400   7.830   4.992   3.000  0.5436 -0.5033 -0.1832
 7416SOL     OW24401   2.756   9.181   9.194 -0.6295  0.0367  0.6183
 7416SOL    HW124402   2.737   9.128   9.272 -1.5276 -0.4692  0.0862
 7416SOL    HW224403   2.765   9.116   9.124  0.3634  0.4729  0.3323
 7417SOL     OW24404   4.927   1.666   7.732 -0.1596  0.0608 -0.7809
 7417SOL    HW124405   4.902   1.647   7.642 -1.0625 -2.2124 -0.1293
 7417SOL    HW224406   4.998   1.605   7.750 -0.5269 -0.0740  0.2757
 7418SOL     OW24407   2.997   7.455   5.905  0.0458 -0.0135  0.2642
 7418SOL    HW124408   2.987   7.540   5.948  0.8236  1.2210 -1.8314
 7418SOL    HW224409   2.911   7.436   5.868 -0.2888 -0.4525  1.2532
 7419SOL     OW24410   6.831   9.479   0.863 -0.4271 -0.1970  0.5858
 7419SOL    HW124411   6.760   9.414   0.855 -0.8005  0.2018  0.6356
 7419SOL    HW224412   6.794   9.547   0.919  0.5670 -0.7625  1.9739
 7420SOL     OW24413   4.682   3.862   3.801  0.0060 -0.0637  0.2558
 7420SOL    HW124414   4.613   3.850   3.866  0.3326  0.2030  0.6537
 7420SOL    HW224415   4.703   3.955   3.805  1.1588 -0.3435  0.9258
 7421SOL     OW24416   2.082   7.475   7.959 -0.3023 -0.4084 -0.7853
 7421SOL    HW124417   2.061   7.563   7.928 -0.2163 -0.0241  0.2138
 7421SOL    HW224418   2.061   7.418   7.885 -1.9082  0.2730 -0.8908
 7422SOL     OW24419   1.891   8.138   4.441 -0.1750 -0.2079 -0.0690
 7422SOL    HW124420   1.987   8.139   4.444 -0.1989  0.2167  2.5067
 7422SOL    HW224421   1.866   8.228   4.462 -1.1348 -0.4777 -0.0397
 7423SOL     OW24422   8.580   6.679   1.727  0.0925 -0.8283  0.3507
 7423SOL    HW124423   8.522   6.734   1.780 -0.8262 -0.2880 -1.1348
 7423SOL    HW224424   8.664   6.680   1.774  0.1156  1.8172  0.4233
 7424SOL     OW24425   7.822   0.377   1.400 -0.2057 -0.0197  0.0572
 7424SOL    HW124426   7.872   0.351   1.478 -1.0734 -1.2752  0.2286
 7424SOL    HW224427   7.738   0.406   1.435 -1.1925 -2.0512 -0.4432
 7425SOL     OW24428   2.051   0.659   4.402  0.1128 -0.2035  0.7768
 7425SOL    HW124429   2.099   0.698   4.329  0.7378  0.4257  1.5057
 7425SOL    HW224430   2.119   0.617   4.456 -0.3931 -1.0696  0.7574
 7426SOL     OW24431   2.191   9.013   5.472 -0.2716  0.3703 -0.0540
 7426SOL    HW124432   2.267   9.070   5.481  0.9726 -1.5191  3.1301
 7426SOL    HW224433   2.225   8.933   5.431 -0.8178  0.0103  0.1791
 7427SOL     OW24434   8.493   4.933   2.512  0.3458  0.1853 -0.3629
 7427SOL    HW124435   8.525   4.898   2.595 -1.7787 -1.2885 -0.0936
 7427SOL    HW224436   8.491   4.858   2.453 -0.7807  0.6195 -0.8991
 7428SOL     OW24437   6.128   4.003   7.247 -0.2946 -0.0825 -0.4401
 7428SOL    HW124438   6.184   3.946   7.300 -1.0696 -0.4150  0.0366
 7428SOL    HW224439   6.053   3.948   7.224 -0.7842  0.5826 -0.4448
 7429SOL     OW24440   5.219   9.102   3.031  0.3375 -0.1118 -0.3758
 7429SOL    HW124441   5.274   9.068   3.101 -0.7883 -1.9916 -0.3476
 7429SOL    HW224442   5.132   9.068   3.050 -0.3430  0.7633 -1.7612
 7430SOL     OW24443   4.229   6.008   3.642  0.5763 -0.0892 -0.1744
 7430SOL    HW124444   4.300   6.071   3.655 -0.6401  0.9954  1.5834
 7430SOL    HW224445   4.153   6.062   3.619 -0.5754 -0.8371  1.6866
 7431SOL     OW24446   7.189   3.661   8.953  0.4663  0.1574  0.3592
 7431SOL    HW124447   7.114   3.716   8.932 -0.7186 -1.4989  0.1057
 7431SOL    HW224448   7.151   3.577   8.978  2.2117 -0.4607  1.0869
 7432SOL     OW24449   4.576   1.722   5.260  0.2750  0.5379  0.2065
 7432SOL    HW124450   4.606   1.742   5.349 -0.8865  0.3206  0.6567
 7432SOL    HW224451   4.482   1.710   5.268  0.3810 -1.2751 -0.7303
 7433SOL     OW24452   9.536   6.831   5.663 -0.3618  0.7034 -0.2649
 7433SOL    HW124453   9.462   6.803   5.717 -0.4395 -0.3806 -0.9010
 7433SOL    HW224454   9.613   6.795   5.708 -0.1440  2.2512  0.6681
 7434SOL     OW24455   9.429   5.860   4.662 -0.1521  0.1686  0.4703
 7434SOL    HW124456   9.422   5.866   4.757  2.1972  0.1007  0.6914
 7434SOL    HW224457   9.428   5.951   4.632 -1.0290  0.1852  0.5295
 7435SOL     OW24458   5.437   4.186   2.626 -0.0297  0.2067 -0.6539
 7435SOL    HW124459   5.382   4.199   2.704 -2.2377  0.4162 -2.1633
 7435SOL    HW224460   5.380   4.207   2.553  2.3726  1.3978 -2.3357
 7436SOL     OW24461   8.518   5.780   3.051  0.5577 -0.2234 -0.3608
 7436SOL    HW124462   8.569   5.852   3.087 -0.3550 -0.3911  1.3415
 7436SOL    HW224463   8.459   5.821   2.988  1.2166  0.2721 -0.6643
 7437SOL     OW24464   6.353   1.604   1.757  0.5436 -0.7747  0.2140
 7437SOL    HW124465   6.317   1.522   1.723  0.6948 -0.6513 -0.2446
 7437SOL    HW224466   6.438   1.612   1.713  1.1705 -1.0953  1.3186
 7438SOL     OW24467   5.879   7.257   9.596  0.1193  0.2821  0.2430
 7438SOL    HW124468   5.803   7.215   9.636  0.0296  0.2830  0.0742
 7438SOL    HW224469   5.943   7.263   9.667  0.2869 -0.5169  0.1684
 7439SOL     OW24470   3.439   0.565   2.284  0.2165 -0.2842 -0.6869
 7439SOL    HW124471   3.383   0.640   2.263  0.2025  0.0179  0.3725
 7439SOL    HW224472   3.489   0.549   2.203 -0.1200  0.5666 -1.0772
 7440SOL     OW24473   1.241   7.215   5.641  0.0867  0.6271 -0.1584
 7440SOL    HW124474   1.217   7.296   5.687 -3.0766 -0.6314  0.6856
 7440SOL    HW224475   1.196   7.146   5.690 -0.8658 -1.1586 -3.2718
 7441SOL     OW24476   7.281   5.960   9.550 -0.6971 -0.0486 -0.1667
 7441SOL    HW124477   7.224   6.007   9.610 -0.1038  0.7965 -0.2416
 7441SOL    HW224478   7.320   5.890   9.603  0.0068  0.8353  0.5085
 7442SOL     OW24479   6.710   5.561   8.332 -0.0521  0.4509 -0.1803
 7442SOL    HW124480   6.622   5.527   8.317 -0.2218  0.1184  1.3523
 7442SOL    HW224481   6.697   5.633   8.394  0.5990  1.5312 -1.2616
 7443SOL     OW24482   5.247   6.595   5.655  0.6886 -0.3570  1.0255
 7443SOL    HW124483   5.245   6.619   5.748 -2.1487 -1.3121  1.3002
 7443SOL    HW224484   5.256   6.500   5.654  0.0940 -0.4150  0.3424
 7444SOL     OW24485   1.690   5.487   1.318 -0.2259 -0.3785  0.0788
 7444SOL    HW124486   1.721   5.396   1.316  0.7791 -0.0547 -0.0902
 7444SOL    HW224487   1.601   5.483   1.284  0.0892 -1.2018 -0.6977
 7445SOL     OW24488   5.314   4.634   3.858 -0.0672  0.1587 -0.3965
 7445SOL    HW124489   5.286   4.714   3.815 -1.3049  0.2482  0.5398
 7445SOL    HW224490   5.350   4.662   3.942  2.3633 -0.0130 -1.2725
 7446SOL     OW24491   1.749   7.311   2.618  0.1854  0.5681 -0.2351
 7446SOL    HW124492   1.705   7.286   2.537  0.0103 -0.4529  0.1475
 7446SOL    HW224493   1.708   7.255   2.685 -0.0690  1.7811  0.6585
 7447SOL     OW24494   7.731   3.676   5.153  0.2416  0.3944 -0.2198
 7447SOL    HW124495   7.762   3.761   5.121  0.3384  1.0652  1.5020
 7447SOL    HW224496   7.799   3.647   5.214 -0.4241 -0.2671  0.2316
 7448SOL     OW24497   4.605   7.351   2.311 -0.2293  0.1920 -0.1733
 7448SOL    HW124498   4.609   7.446   2.325  1.0145  0.2623 -0.8391
 7448SOL    HW224499   4.522   7.324   2.350  0.9085  1.0133  3.0915
 7449SOL     OW24500   7.835   5.077   2.369  0.5207  0.4369 -0.2502
 7449SOL    HW124501   7.920   5.036   2.388 -0.0492 -1.0952 -0.8355
 7449SOL    HW224502   7.771   5.010   2.390 -0.4394  0.8425 -1.7312
 7450SOL     OW24503   1.178   6.213   7.159  0.0127  0.1017 -0.5287
 7450SOL    HW124504   1.208   6.124   7.138 -1.6138 -0.4731 -0.6156
 7450SOL    HW224505   1.207   6.228   7.249  0.3763 -0.4938 -0.5405
 7451SOL     OW24506   4.755   1.323   3.672 -0.2534  0.3890  0.2769
 7451SOL    HW124507   4.771   1.415   3.651  2.2447 -0.2011 -0.6901
 7451SOL    HW224508   4.839   1.290   3.703 -1.1785 -1.5085  0.9440
 7452SOL     OW24509   3.960   5.046   8.715  0.0101 -0.0924  0.1602
 7452SOL    HW124510   3.992   5.036   8.625  0.1955  0.5017  0.1569
 7452SOL    HW224511   4.011   5.119   8.750 -1.0763  0.6246  0.2831
 7453SOL     OW24512   2.248   8.407   5.434  0.6036  0.0321  0.0897
 7453SOL    HW124513   2.269   8.324   5.478  0.3343  0.9309  2.0426
 7453SOL    HW224514   2.154   8.403   5.418  0.7087 -0.3157 -0.4505
 7454SOL     OW24515   8.267   3.323   6.882  0.3024  0.7087 -0.4902
 7454SOL    HW124516   8.288   3.291   6.970  1.1359 -0.2960 -1.0352
 7454SOL    HW224517   8.203   3.394   6.897  1.5379  1.5721  1.0166
 7455SOL     OW24518   3.775   1.420   3.166  0.0116  0.3184 -0.0289
 7455SOL    HW124519   3.857   1.467   3.151 -0.9793  2.0414 -0.3256
 7455SOL    HW224520   3.786   1.379   3.252  1.6887 -0.6519 -0.6728
 7456SOL     OW24521   2.183   6.534   6.393  0.4528  0.2189  0.0476
 7456SOL    HW124522   2.200   6.448   6.353 -0.5575  0.4322 -0.8964
 7456SOL    HW224523   2.157   6.514   6.483  4.0245 -0.1978  1.1197
 7457SOL     OW24524   8.023   6.066   4.538  0.0614 -0.0053 -0.3040
 7457SOL    HW124525   8.055   5.989   4.585  1.3186  0.4744 -0.3443
 7457SOL    HW224526   8.068   6.063   4.454  0.8283  1.2432  0.0311
 7458SOL     OW24527   0.465   1.170   5.544 -0.1776  1.5280  0.0862
 7458SOL    HW124528   0.491   1.244   5.489  1.6553  0.4772 -0.5658
 7458SOL    HW224529   0.540   1.157   5.602 -0.9747  0.9162  0.9917
 7459SOL     OW24530   9.027   3.584   2.381  0.7371  0.8364 -0.2990
 7459SOL    HW124531   9.061   3.660   2.335  0.4419  0.4836 -1.1126
 7459SOL    HW224532   8.985   3.620   2.459 -0.9279  1.7042 -1.5277
 7460SOL     OW24533   2.091   8.865   3.996 -0.4439  0.4931 -0.4151
 7460SOL    HW124534   1.999   8.889   4.002 -0.3855  0.6435 -0.0769
 7460SOL    HW224535   2.096   8.778   4.036 -0.6992 -0.2139 -1.8813
 7461SOL     OW24536   1.051   8.965   1.097 -0.4669 -0.3132  0.3766
 7461SOL    HW124537   1.027   8.874   1.113  0.9631 -0.8818 -0.4592
 7461SOL    HW224538   1.094   8.993   1.178 -1.9711  0.0540  1.0959
 7462SOL     OW24539   5.947   6.346   8.519  0.4029  0.2830 -0.2702
 7462SOL    HW124540   5.867   6.381   8.480  0.1693 -0.1260 -0.1683
 7462SOL    HW224541   5.968   6.406   8.590 -0.4613 -0.2176  0.4374
 7463SOL     OW24542   5.590   6.276   0.015  0.5296  0.5784  0.0129
 7463SOL    HW124543   5.515   6.296  -0.041 -0.6109 -0.1154  1.2271
 7463SOL    HW224544   5.619   6.190  -0.014  2.8880  2.0689 -2.5142
 7464SOL     OW24545   9.159   3.153   6.943 -0.4318  0.1658  0.2260
 7464SOL    HW124546   9.137   3.071   6.988  3.0761 -0.6377  0.8158
 7464SOL    HW224547   9.109   3.150   6.862 -2.0809 -1.4756  1.2255
 7465SOL     OW24548   4.201   7.436   0.971 -0.2672 -0.0978  0.4668
 7465SOL    HW124549   4.169   7.501   1.033 -1.8856  0.9088 -1.2854
 7465SOL    HW224550   4.200   7.481   0.886  1.2690 -1.5770 -0.4038
 7466SOL     OW24551   7.143   8.559   2.577  0.7015  0.7869  0.3240
 7466SOL    HW124552   7.218   8.517   2.536 -0.0101  1.3005 -1.5738
 7466SOL    HW224553   7.124   8.635   2.523 -1.4396  0.4534  0.4923
 7467SOL     OW24554   9.389   8.897   3.662  0.4273 -0.1720  0.7657
 7467SOL    HW124555   9.415   8.819   3.613  0.8401  0.8567 -0.7305
 7467SOL    HW224556   9.301   8.878   3.693 -0.8413 -0.0487 -2.4018
 7468SOL     OW24557   8.985   1.390   0.551 -0.0361 -0.1537  0.6518
 7468SOL    HW124558   9.053   1.335   0.590  0.2310 -1.1523 -1.0890
 7468SOL    HW224559   8.988   1.368   0.457 -1.8955  0.7250  0.3464
 7469SOL     OW24560   5.824   6.130   7.319 -0.0071  0.6114 -0.0045
 7469SOL    HW124561   5.855   6.134   7.410 -0.9326  0.5808  0.3206
 7469SOL    HW224562   5.800   6.039   7.305 -0.7295  0.7932  0.0196
 7470SOL     OW24563   8.228   9.240   2.594  0.2226  0.2435  0.3302
 7470SOL    HW124564   8.266   9.172   2.650  1.0054 -0.9289 -1.5239
 7470SOL    HW224565   8.278   9.319   2.614 -0.7129  0.3438  2.5392
 7471SOL     OW24566   0.810   6.975   4.747  0.1124  0.1231 -0.1500
 7471SOL    HW124567   0.771   7.051   4.705 -0.1821  0.1832  0.2354
 7471SOL    HW224568   0.841   6.921   4.674  2.4666  1.6891 -0.4366
 7472SOL     OW24569   3.929   2.017   3.013 -0.2482  0.0762  0.0778
 7472SOL    HW124570   3.931   1.963   2.934 -1.9089  0.2857 -0.1404
 7472SOL    HW224571   3.856   1.983   3.064 -0.2508  1.0170  0.7387
 7473SOL     OW24572   7.875   8.341   4.668 -0.0349  0.4723  0.2963
 7473SOL    HW124573   7.852   8.318   4.758 -1.0421 -0.9522 -0.3003
 7473SOL    HW224574   7.965   8.373   4.674  0.2264 -0.4489  1.6801
 7474SOL     OW24575   7.772   2.949   0.266  0.0156  0.5470  0.0523
 7474SOL    HW124576   7.865   2.925   0.258 -0.5629 -2.1340  0.6615
 7474SOL    HW224577   7.771   3.015   0.335  1.5681  1.4193 -0.6936
 7475SOL     OW24578   8.870   9.512   9.535 -0.6578  0.3853  0.1640
 7475SOL    HW124579   8.919   9.440   9.575  0.2748  1.1346  0.3917
 7475SOL    HW224580   8.807   9.468   9.478 -1.1022 -0.6675  1.3980
 7476SOL     OW24581   8.136   3.825   0.525  0.3710 -0.1764 -0.0305
 7476SOL    HW124582   8.136   3.755   0.461 -1.4910 -0.1237 -0.1406
 7476SOL    HW224583   8.110   3.783   0.607  3.9399 -0.4969  1.1002
 7477SOL     OW24584   4.290   9.358   2.357 -0.1842  0.2668 -0.2050
 7477SOL    HW124585   4.287   9.447   2.391 -1.3474 -0.1473  0.8143
 7477SOL    HW224586   4.366   9.319   2.401 -1.1377  0.0124  1.2663
 7478SOL     OW24587   7.463   7.051   3.527  0.5437  0.3962  0.3389
 7478SOL    HW124588   7.381   7.013   3.557  0.7681  0.3128  0.8522
 7478SOL    HW224589   7.513   6.977   3.492  0.5050  0.4084  0.2566
 7479SOL     OW24590   3.256   4.955   4.112  0.6926  0.1100  0.1269
 7479SOL    HW124591   3.175   4.947   4.162  0.6948  0.0445  0.1194
 7479SOL    HW224592   3.229   4.944   4.021  1.0765 -2.6081  0.2677
 7480SOL     OW24593   3.635   2.228   1.412  0.0874  0.1788  0.3599
 7480SOL    HW124594   3.683   2.223   1.329 -0.1639 -1.4979  0.2738
 7480SOL    HW224595   3.566   2.293   1.397  0.4196  0.3277 -0.5492
 7481SOL     OW24596   6.460   3.173   0.329  0.5159  0.5117 -0.2276
 7481SOL    HW124597   6.402   3.109   0.288 -1.0998  2.2654 -0.8264
 7481SOL    HW224598   6.406   3.213   0.397  1.8306  0.5638  0.8311
 7482SOL     OW24599   4.215   0.843   6.608 -0.2625 -0.5221 -0.2803
 7482SOL    HW124600   4.277   0.776   6.635  0.4645  0.3797  0.3500
 7482SOL    HW224601   4.266   0.903   6.554 -0.5737  0.2105  0.2206
 7483SOL     OW24602   5.091   8.521   8.135 -0.0897  0.0264  0.1454
 7483SOL    HW124603   5.004   8.562   8.141 -0.8005 -1.5772  1.2406
 7483SOL    HW224604   5.134   8.544   8.217  1.0374  1.8152 -0.8750
 7484SOL     OW24605   6.427   9.342   6.415  0.8111  0.0678  0.0265
 7484SOL    HW124606   6.363   9.395   6.462 -0.9856 -0.0780 -2.0800
 7484SOL    HW224607   6.478   9.405   6.364  2.1820  0.1527  1.4409
 7485SOL     OW24608   3.752   7.341   4.943  0.4139 -0.4625 -0.0235
 7485SOL    HW124609   3.767   7.337   4.849  1.5637  1.0980  0.0579
 7485SOL    HW224610   3.657   7.327   4.953 -0.2051  2.0012 -1.6471
 7486SOL     OW24611   9.314   6.880   3.481  0.4690 -0.2966 -0.4010
 7486SOL    HW124612   9.227   6.849   3.457  0.1700 -0.0706  0.3685
 7486SOL    HW224613   9.323   6.962   3.432  0.9181 -1.1192 -1.7587
 7487SOL     OW24614   0.018   8.876   8.133 -0.4745  0.1341 -0.0436
 7487SOL    HW124615   0.113   8.871   8.146 -0.3773  0.4727 -0.6158
 7487SOL    HW224616  -0.002   8.800   8.078 -0.4507  0.3944 -0.4115
 7488SOL     OW24617   4.765   4.296   4.123  0.2193  0.2001 -0.0768
 7488SOL    HW124618   4.767   4.241   4.201  1.5283  0.4696  0.0952
 7488SOL    HW224619   4.707   4.368   4.146 -0.5611 -0.4736  0.1132
 7489SOL     OW24620   5.999   2.528   6.812  0.8251  0.3173  0.1367
 7489SOL    HW124621   6.067   2.580   6.855 -0.1209 -0.1695  2.3499
 7489SOL    HW224622   6.030   2.438   6.818  2.0065  0.4125 -2.8473
 7490SOL     OW24623   3.839   2.233   6.121  0.6263 -0.2479 -0.0877
 7490SOL    HW124624   3.883   2.149   6.106  0.7505 -0.1323 -0.3836
 7490SOL    HW224625   3.781   2.217   6.196  0.3607 -0.7037 -0.3887
 7491SOL     OW24626   9.535   5.973   7.476 -0.2196 -0.4860  0.3224
 7491SOL    HW124627   9.562   5.893   7.430  0.1180 -0.5481  0.6261
 7491SOL    HW224628   9.469   6.012   7.419  1.4151  0.3466 -1.0691
 7492SOL     OW24629   9.132   8.538   9.532  0.0051 -0.1257 -0.0110
 7492SOL    HW124630   9.179   8.473   9.479  0.0886 -0.1797  0.1264
 7492SOL    HW224631   9.079   8.485   9.592 -0.1881 -0.0637 -0.1288
 7493SOL     OW24632   7.455   6.706   1.197  0.6133  0.2214 -0.2439
 7493SOL    HW124633   7.536   6.659   1.220  0.9962  0.7245 -0.5322
 7493SOL    HW224634   7.396   6.688   1.270  0.6029 -1.0419 -0.5469
 7494SOL     OW24635   8.834   6.114   6.402  0.1508 -0.1371  0.1681
 7494SOL    HW124636   8.759   6.167   6.374  0.6947  0.9543  0.7313
 7494SOL    HW224637   8.861   6.067   6.323 -0.0697  0.7766 -0.4611
 7495SOL     OW24638   6.885   1.706   5.151  0.2567 -0.2143  0.3696
 7495SOL    HW124639   6.972   1.666   5.150  0.4809  0.2705 -0.0648
 7495SOL    HW224640   6.824   1.632   5.151  0.6394 -0.5992 -1.8809
 7496SOL     OW24641   9.109   8.911   3.265  0.1308 -0.6436  0.0733
 7496SOL    HW124642   9.013   8.913   3.268  0.1462  0.9699  0.7974
 7496SOL    HW224643   9.130   8.933   3.174 -0.2194  1.5838  0.4719
 7497SOL     OW24644   0.589   7.872   3.425  0.3864  0.4556  0.3368
 7497SOL    HW124645   0.640   7.792   3.441  1.0786 -0.1271 -3.6241
 7497SOL    HW224646   0.506   7.857   3.470  1.6245 -1.0916  2.2629
 7498SOL     OW24647   0.902   0.179   7.718  0.0932 -0.4787 -0.5683
 7498SOL    HW124648   0.881   0.087   7.699  1.0746 -0.7847 -0.1889
 7498SOL    HW224649   0.926   0.216   7.633  0.7517 -0.8577 -0.5513
 7499SOL     OW24650   2.584   4.343   2.152 -0.2260 -0.0764  0.1714
 7499SOL    HW124651   2.540   4.297   2.224 -1.5015 -0.8006 -1.0136
 7499SOL    HW224652   2.513   4.379   2.099  0.6929  0.8210 -0.4932
 7500SOL     OW24653   5.862   5.359   8.120  0.5262 -0.5132 -0.0816
 7500SOL    HW124654   5.806   5.436   8.130  1.0101 -0.0494 -0.8080
 7500SOL    HW224655   5.937   5.391   8.070  1.1266 -1.2736  0.3110
 7501SOL     OW24656   6.646   0.652   0.011 -0.3130  0.1870  0.1597
 7501SOL    HW124657   6.732   0.671   0.050 -0.1329 -0.0088 -0.1439
 7501SOL    HW224658   6.656   0.567  -0.031 -0.0254  1.0856 -1.7056
 7502SOL     OW24659   8.683   0.812   4.701  0.2592 -0.7353  0.0865
 7502SOL    HW124660   8.718   0.899   4.684 -2.6430  0.5354  0.1145
 7502SOL    HW224661   8.658   0.779   4.615 -0.9547 -0.4589  0.3211
 7503SOL     OW24662   6.328   2.157   1.747  0.3341 -0.3548  0.2139
 7503SOL    HW124663   6.307   2.250   1.758 -2.4871 -0.7531 -0.9534
 7503SOL    HW224664   6.309   2.118   1.833  1.0319  0.0619  0.5605
 7504SOL     OW24665   6.051   2.353   2.889 -0.1484  0.3333  0.5824
 7504SOL    HW124666   6.091   2.335   2.975  1.1165  0.5364  0.0559
 7504SOL    HW224667   6.113   2.410   2.845  0.8859 -2.3418 -1.7237
 7505SOL     OW24668   8.638   8.339   6.381 -0.0661 -0.2459  0.7875
 7505SOL    HW124669   8.715   8.308   6.427  0.7965  1.9162  0.9468
 7505SOL    HW224670   8.668   8.417   6.333 -1.6065 -0.7244 -1.0898
 7506SOL     OW24671   3.749   0.549   7.004 -0.0090  0.3074 -0.1576
 7506SOL    HW124672   3.660   0.535   6.971 -0.0866  0.8309 -0.1796
 7506SOL    HW224673   3.736   0.592   7.089  0.1040 -2.8960  1.6549
 7507SOL     OW24674   1.962   1.803   2.922 -0.0963 -0.4729 -0.2049
 7507SOL    HW124675   2.046   1.821   2.965  0.1419 -0.1335 -0.8039
 7507SOL    HW224676   1.897   1.837   2.983  0.2094 -0.4937  0.1423
 7508SOL     OW24677   8.964   5.019   1.343 -0.2142  0.2905  0.2389
 7508SOL    HW124678   9.002   5.050   1.261 -0.1099  1.7485  0.7910
 7508SOL    HW224679   8.871   5.007   1.324 -0.1144  0.2047 -0.1970
 7509SOL     OW24680   1.091   2.745   0.694 -0.0246  0.3906 -0.2113
 7509SOL    HW124681   1.002   2.713   0.680 -0.0160  0.5814 -0.7149
 7509SOL    HW224682   1.082   2.815   0.759 -0.0459 -0.6116  0.9115
 7510SOL     OW24683   4.685   5.664   1.073 -0.1938 -0.4542  0.4285
 7510SOL    HW124684   4.637   5.730   1.024 -0.4445 -0.9720 -0.0379
 7510SOL    HW224685   4.777   5.684   1.058 -0.2705 -0.5634 -0.1985
 7511SOL     OW24686   4.942   6.443   7.103  0.6390  0.3755 -0.4101
 7511SOL    HW124687   5.034   6.437   7.126  0.6994 -0.1762 -0.7741
 7511SOL    HW224688   4.942   6.481   7.015  0.5272  0.2235 -0.4758
 7512SOL     OW24689   9.125   7.411   7.401 -0.4263 -0.5024  0.8041
 7512SOL    HW124690   9.094   7.419   7.311 -2.8325 -1.8502  1.4344
 7512SOL    HW224691   9.046   7.408   7.455  0.9115  2.2069  3.2545
 7513SOL     OW24692   9.264   3.052   1.729 -0.5027 -0.2422 -0.1387
 7513SOL    HW124693   9.318   2.987   1.774 -0.7862  0.0231  0.5863
 7513SOL    HW224694   9.314   3.134   1.737  0.2206 -0.4779 -1.6879
 7514SOL     OW24695   8.025   2.824   0.256 -0.2966 -0.4799 -0.2992
 7514SOL    HW124696   8.048   2.900   0.309  0.1006 -0.9711  0.2565
 7514SOL    HW224697   8.051   2.749   0.310 -0.3494 -1.0023 -0.9845
 7515SOL     OW24698   5.950   0.507   2.217  0.7307 -0.3772  0.1106
 7515SOL    HW124699   6.039   0.543   2.223  0.4443  0.8310 -1.7737
 7515SOL    HW224700   5.953   0.446   2.143 -0.2394  0.6004 -0.7849
 7516SOL     OW24701   2.939   1.216   3.298  0.2013 -0.0859 -0.8564
 7516SOL    HW124702   2.961   1.304   3.329  0.7999  0.3402 -2.4069
 7516SOL    HW224703   3.022   1.181   3.265 -0.3709 -0.5358 -1.8662
 7517SOL     OW24704   7.248   5.634   7.954 -0.5612  0.4505  0.2807
 7517SOL    HW124705   7.156   5.640   7.926 -0.3612  1.2795 -0.2305
 7517SOL    HW224706   7.286   5.567   7.896 -0.2591  1.8424 -1.2035
 7518SOL     OW24707   8.478   0.672   7.139 -0.0875 -0.2694  0.0198
 7518SOL    HW124708   8.555   0.699   7.189 -0.2154  2.6427 -1.1222
 7518SOL    HW224709   8.514   0.626   7.063  0.2028 -2.8883  1.6458
 7519SOL     OW24710   5.860   6.634   6.882 -0.2317  0.0142  0.1121
 7519SOL    HW124711   5.890   6.569   6.819  2.0848  0.5814  0.5438
 7519SOL    HW224712   5.923   6.629   6.954 -0.4260  2.2211  0.5125
 7520SOL     OW24713   4.046   2.597   8.499  0.6385 -0.1012  0.2967
 7520SOL    HW124714   4.114   2.600   8.567  0.5133 -1.3996  0.5158
 7520SOL    HW224715   4.034   2.503   8.482 -0.6235  0.1402 -0.2231
 7521SOL     OW24716   7.010   9.581   1.907 -0.5676 -0.7089  0.5045
 7521SOL    HW124717   7.022   9.511   1.844  0.4314 -1.7958  1.8303
 7521SOL    HW224718   7.089   9.578   1.962 -0.2812  1.7454  0.3465
 7522SOL     OW24719   8.272   4.463   5.107  0.4726 -0.3750  0.5431
 7522SOL    HW124720   8.320   4.454   5.025  0.1374 -1.1273  0.4137
 7522SOL    HW224721   8.192   4.412   5.093  0.0149  0.1912  1.0356
 7523SOL     OW24722   8.789   0.798   1.249 -0.8071 -0.2784  0.4808
 7523SOL    HW124723   8.851   0.841   1.306  0.8709  0.0063 -1.4516
 7523SOL    HW224724   8.784   0.854   1.171  0.2063 -2.6152 -1.4225
 7524SOL     OW24725   3.105   3.929   3.252 -0.2274  0.2092  0.0834
 7524SOL    HW124726   3.040   3.980   3.205 -1.6440 -0.8581  0.7865
 7524SOL    HW224727   3.172   3.908   3.187  0.9199  3.6411 -0.0351
 7525SOL     OW24728   4.710   6.221   4.138 -0.6191 -0.1244 -0.0757
 7525SOL    HW124729   4.759   6.277   4.078  0.1458  0.2917  0.9111
 7525SOL    HW224730   4.749   6.238   4.224 -1.2509 -1.1931  0.4429
 7526SOL     OW24731   9.543   7.504   5.340 -0.1192  0.3658  0.3693
 7526SOL    HW124732   9.482   7.540   5.405 -1.2727  1.5823 -1.2827
 7526SOL    HW224733   9.581   7.581   5.298  1.0342 -0.3923 -0.0118
 7527SOL     OW24734   0.614   6.548   0.106  0.7278 -0.3915 -0.0358
 7527SOL    HW124735   0.638   6.588   0.189 -0.7641 -2.4252  1.4771
 7527SOL    HW224736   0.651   6.606   0.040  0.6714  2.1352  1.9937
 7528SOL     OW24737   8.726   1.456   0.039 -0.1161 -0.1667  0.5810
 7528SOL    HW124738   8.635   1.485   0.030  0.8177  2.5181 -1.6247
 7528SOL    HW224739   8.755   1.496   0.121 -0.6147 -0.0556  0.7097
 7529SOL     OW24740   1.648   3.693   2.223 -0.1988  0.8694 -0.6813
 7529SOL    HW124741   1.656   3.637   2.145  0.7991  1.1742 -0.8037
 7529SOL    HW224742   1.678   3.779   2.194 -1.7826  1.5205 -0.5035
 7530SOL     OW24743   1.210   8.529   5.904 -0.3865 -0.0093  0.1673
 7530SOL    HW124744   1.302   8.508   5.923  0.1237  0.4627 -1.5883
 7530SOL    HW224745   1.184   8.588   5.974  0.2317 -1.1552  1.4090
 7531SOL     OW24746   5.752   4.113   7.831  1.0043  0.2331 -1.2099
 7531SOL    HW124747   5.811   4.185   7.808  0.5390  0.2479 -2.4262
 7531SOL    HW224748   5.810   4.046   7.869  1.3687  1.4256  0.4274
 7532SOL     OW24749   7.620   8.223   8.133  0.0634  0.4134 -0.0823
 7532SOL    HW124750   7.693   8.167   8.159 -0.1759 -0.3242 -0.9422
 7532SOL    HW224751   7.562   8.224   8.209  0.0817 -0.5051 -0.0465
 7533SOL     OW24752   3.510   6.482   8.254 -0.1140  0.2030 -0.5011
 7533SOL    HW124753   3.603   6.472   8.272 -0.5787 -1.1352  1.4500
 7533SOL    HW224754   3.500   6.455   8.162  1.1601 -1.6080 -0.1560
 7534SOL     OW24755   8.334   0.354   2.774 -0.3324 -0.3967  0.0227
 7534SOL    HW124756   8.364   0.351   2.864 -0.5801 -0.0338  0.1233
 7534SOL    HW224757   8.268   0.424   2.774 -0.3986 -0.4582 -0.4164
 7535SOL     OW24758   3.031   5.480   0.504  0.0374  0.4266 -0.2650
 7535SOL    HW124759   3.094   5.538   0.546 -0.3249 -0.8798  2.2911
 7535SOL    HW224760   2.974   5.451   0.576 -2.5461  0.3731 -2.2049
 7536SOL     OW24761   2.909   4.129   3.069  0.1656  0.0227 -0.1658
 7536SOL    HW124762   2.916   4.209   3.121 -1.0980 -0.7861  1.3094
 7536SOL    HW224763   2.897   4.161   2.979  0.3798  1.4624  0.2813
 7537SOL     OW24764   2.935   0.314   6.347 -0.0815 -0.1358 -0.2943
 7537SOL    HW124765   2.841   0.327   6.360 -0.2685 -0.8881 -0.8063
 7537SOL    HW224766   2.969   0.401   6.327 -0.7238  0.0959 -0.4088
 7538SOL     OW24767   3.257   6.357   4.833  0.2778  0.6073  0.0631
 7538SOL    HW124768   3.213   6.324   4.755  0.2168 -1.0857  0.7697
 7538SOL    HW224769   3.187   6.372   4.897  0.4697  0.3979  0.3291
 7539SOL     OW24770   0.908   1.675   3.482  0.4055 -0.5438 -0.0496
 7539SOL    HW124771   0.972   1.611   3.513 -1.2633 -2.1418  0.1992
 7539SOL    HW224772   0.856   1.628   3.417 -2.2065 -0.1510  1.6203
 7540SOL     OW24773   1.249   0.347   0.837 -0.3297  0.1961  0.7252
 7540SOL    HW124774   1.155   0.326   0.835 -0.5045  1.0177 -0.2596
 7540SOL    HW224775   1.292   0.261   0.832 -1.0289 -0.1648  0.7139
 7541SOL     OW24776   4.639   5.335   5.747  0.1512 -0.0573 -0.4283
 7541SOL    HW124777   4.683   5.304   5.667 -0.6610 -0.6371 -0.6576
 7541SOL    HW224778   4.582   5.263   5.773  0.9794 -0.1965  1.1324
 7542SOL     OW24779   8.885   2.968   8.485 -0.3233  0.4710 -0.1741
 7542SOL    HW124780   8.899   3.016   8.404 -1.4147  0.7307 -0.2347
 7542SOL    HW224781   8.836   2.889   8.459 -2.4704  1.5191  0.4020
 7543SOL     OW24782   8.044   3.891   3.427  0.6838 -0.2354  0.0520
 7543SOL    HW124783   8.066   3.982   3.446 -1.0873  0.7958 -2.2846
 7543SOL    HW224784   7.963   3.875   3.475 -0.1436  0.1605 -1.1650
 7544SOL     OW24785   1.470   9.460   1.875 -0.0440  0.1504  0.0534
 7544SOL    HW124786   1.381   9.428   1.892 -0.7491  1.4773 -0.9571
 7544SOL    HW224787   1.478   9.537   1.931 -0.5538  1.6078 -1.7764
 7545SOL     OW24788   2.793   8.456   8.445 -0.0351 -0.0683 -0.2366
 7545SOL    HW124789   2.799   8.545   8.412  3.3010 -1.0663 -2.9185
 7545SOL    HW224790   2.728   8.414   8.389 -2.0448  0.7072  1.4064
 7546SOL     OW24791   1.663   8.447   1.678  0.0113 -0.4030 -0.0003
 7546SOL    HW124792   1.676   8.507   1.605  0.4471 -0.9764 -0.3997
 7546SOL    HW224793   1.728   8.378   1.664 -2.2372 -2.4303 -1.0697
 7547SOL     OW24794   9.404   8.072   7.132  0.0305  0.2603 -0.0265
 7547SOL    HW124795   9.402   8.024   7.215  1.0559 -0.8477 -0.6183
 7547SOL    HW224796   9.338   8.028   7.078 -0.5900  0.9403  0.1603
 7548SOL     OW24797   1.820   5.178   6.592 -0.1406 -0.0744  1.0099
 7548SOL    HW124798   1.801   5.164   6.685  1.9311 -1.8929  1.2606
 7548SOL    HW224799   1.771   5.109   6.547 -0.3091  0.1383  0.8680
 7549SOL     OW24800   1.084   6.830   1.448 -0.2584 -0.0407 -0.1119
 7549SOL    HW124801   1.056   6.739   1.453  0.6298 -0.3048  0.2253
 7549SOL    HW224802   1.045   6.863   1.367 -0.3062 -0.8161 -0.4121
 7550SOL     OW24803   4.662   7.578   3.826  0.4094  0.1709  0.0979
 7550SOL    HW124804   4.707   7.538   3.751 -2.1026  0.4243 -1.6324
 7550SOL    HW224805   4.629   7.661   3.793 -0.3716  0.5025  1.6320
 7551SOL     OW24806   9.395   7.418   4.600 -0.1089 -0.1736  0.5947
 7551SOL    HW124807   9.402   7.415   4.505 -0.3346  1.2934  0.5079
 7551SOL    HW224808   9.310   7.379   4.620  0.0995 -0.8206  0.2287
 7552SOL     OW24809   8.930   3.254   8.491  0.3179  0.0603  0.3399
 7552SOL    HW124810   8.953   3.217   8.406  0.9747  0.0799  0.5029
 7552SOL    HW224811   8.840   3.226   8.506  0.7599 -1.4224  0.4116
 7553SOL     OW24812   1.581   6.136   3.308  0.2041  0.3826  0.2146
 7553SOL    HW124813   1.606   6.055   3.263 -1.4462 -0.5242  0.8574
 7553SOL    HW224814   1.592   6.205   3.241  0.6323 -0.4958 -0.6521
 7554SOL     OW24815   2.248   8.708   5.953 -0.7369  0.3294  0.3908
 7554SOL    HW124816   2.324   8.759   5.979  0.0296  0.3186 -1.6462
 7554SOL    HW224817   2.173   8.763   5.975  0.0367  2.0430 -1.0436
 7555SOL     OW24818   1.068   0.164   9.198  0.1563 -0.3769  0.3687
 7555SOL    HW124819   0.989   0.201   9.157  0.3349 -1.1191 -0.6933
 7555SOL    HW224820   1.102   0.235   9.252 -1.4708 -0.1782  1.1975
 7556SOL     OW24821   1.423   5.614   2.471 -0.4908  0.1064  0.2003
 7556SOL    HW124822   1.504   5.585   2.428  0.6284  2.4623  0.5544
 7556SOL    HW224823   1.442   5.606   2.565 -2.1976 -3.1016  0.3981
 7557SOL     OW24824   8.391   8.305   9.578 -0.1739  0.6123 -0.2418
 7557SOL    HW124825   8.390   8.262   9.664  0.7993  1.2252  0.0885
 7557SOL    HW224826   8.333   8.381   9.589  0.1674  0.8477 -0.0312
 7558SOL     OW24827   3.857   5.913   8.628  0.2507  0.2409 -0.0914
 7558SOL    HW124828   3.934   5.960   8.597 -0.4967  0.4519 -1.7492
 7558SOL    HW224829   3.806   5.896   8.549 -1.6644  0.5761  1.0172
 7559SOL     OW24830   0.928   1.618   7.714 -0.2922 -0.1108 -0.4525
 7559SOL    HW124831   0.953   1.629   7.806  0.1179 -1.6657 -0.3488
 7559SOL    HW224832   0.879   1.697   7.693  1.6245  1.3689  0.4044
 7560SOL     OW24833   6.953   7.366   9.550  0.5691  0.1710  0.5492
 7560SOL    HW124834   6.941   7.324   9.635  1.8521 -0.0307  0.6509
 7560SOL    HW224835   7.017   7.311   9.504 -1.5873 -0.8754 -1.3748
 7561SOL     OW24836   3.781   4.678   4.042 -0.2424  0.1817  0.7075
 7561SOL    HW124837   3.744   4.594   4.013 -0.1322  0.1550  0.6439
 7561SOL    HW224838   3.754   4.686   4.133 -3.1103  1.6459 -0.1549
 7562SOL     OW24839   4.924   0.675   2.667 -0.5425 -0.1395 -0.3720
 7562SOL    HW124840   4.849   0.705   2.616 -2.4379 -0.3689  2.0716
 7562SOL    HW224841   4.966   0.610   2.612 -0.3444  2.0743 -3.0191
 7563SOL     OW24842   0.573   1.516   6.145  0.1517 -0.4642  0.1216
 7563SOL    HW124843   0.502   1.553   6.093 -0.5188 -0.9965  0.6527
 7563SOL    HW224844   0.531   1.453   6.204  0.9615 -0.2877  0.9204
 7564SOL     OW24845   3.293   9.508   5.985 -0.1867  0.4254 -0.8691
 7564SOL    HW124846   3.377   9.468   5.962 -0.0176  0.3659 -0.1658
 7564SOL    HW224847   3.315   9.576   6.048 -0.6358  0.6288 -0.9250
 7565SOL     OW24848   5.479   3.870   2.005  0.4359 -1.0390 -0.7070
 7565SOL    HW124849   5.531   3.830   1.936  1.9019 -0.8900  0.2738
 7565SOL    HW224850   5.450   3.797   2.059 -0.0799 -1.0880 -1.0420
 7566SOL     OW24851   0.041   1.801   8.848 -0.7948  0.1260 -0.4641
 7566SOL    HW124852  -0.023   1.749   8.800  0.4189 -1.1256 -0.7844
 7566SOL    HW224853   0.037   1.766   8.938 -1.1556  0.6232 -0.2854
 7567SOL     OW24854   6.153   4.105   5.636  0.5404  0.0914  0.2796
 7567SOL    HW124855   6.189   4.018   5.621  1.1364  0.4164 -0.2040
 7567SOL    HW224856   6.059   4.091   5.646  0.7156 -0.6911  0.9372
 7568SOL     OW24857   8.308   4.175   9.279 -0.0787  0.3145 -0.2031
 7568SOL    HW124858   8.260   4.095   9.301 -1.8261  1.4466  0.3433
 7568SOL    HW224859   8.279   4.196   9.190 -0.5369  0.9355  0.0832
 7569SOL     OW24860   4.803   8.360   4.075 -0.4918 -0.3893  0.3410
 7569SOL    HW124861   4.855   8.280   4.061  1.7264  1.1095 -0.5905
 7569SOL    HW224862   4.868   8.429   4.087 -2.3267  1.4210  0.4467
 7570SOL     OW24863   2.192   3.382   1.909 -0.4400 -0.4076 -0.5292
 7570SOL    HW124864   2.184   3.325   1.832 -0.9222  0.1547 -0.9048
 7570SOL    HW224865   2.105   3.421   1.919 -0.4601 -0.6798  0.4721
 7571SOL     OW24866   2.080   0.219   4.546  0.5708  0.3952 -0.1607
 7571SOL    HW124867   2.063   0.211   4.452 -2.5542 -0.3586  0.3819
 7571SOL    HW224868   2.096   0.130   4.575 -2.0546  0.0763  0.5352
 7572SOL     OW24869   8.998   9.338   0.395  0.3655  0.8261  0.0874
 7572SOL    HW124870   9.051   9.289   0.332 -0.6407  0.3869 -0.4426
 7572SOL    HW224871   8.908   9.310   0.377 -0.0485  1.5511  0.9683
 7573SOL     OW24872   5.020   0.083   8.219  0.2735  0.2121 -0.2104
 7573SOL    HW124873   5.114   0.096   8.230  0.3857  0.9103 -1.7097
 7573SOL    HW224874   5.002   0.112   8.129 -1.2558 -0.5530 -0.1922
 7574SOL     OW24875   5.348   6.075   9.205 -0.5639  0.1617 -0.1831
 7574SOL    HW124876   5.404   6.015   9.254 -0.2231  0.5536 -0.0888
 7574SOL    HW224877   5.401   6.102   9.131  0.3418  2.4453  1.1791
 7575SOL     OW24878   3.071   5.721   3.162  0.2641  0.2215  0.1090
 7575SOL    HW124879   2.996   5.668   3.188  0.9683 -0.4815  0.7633
 7575SOL    HW224880   3.051   5.749   3.073 -2.0772  2.4268  1.2149
 7576SOL     OW24881   9.291   8.830   4.812 -0.6888  0.2133  0.2711
 7576SOL    HW124882   9.282   8.738   4.835  0.9996  0.5691  2.7255
 7576SOL    HW224883   9.343   8.830   4.732  0.2408 -0.9696  0.8481
 7577SOL     OW24884   9.028   6.176   1.238  0.4924 -0.6081 -0.5007
 7577SOL    HW124885   9.002   6.225   1.316 -0.0175  0.4094 -1.2847
 7577SOL    HW224886   8.995   6.088   1.253  0.8951 -0.5719  0.6809
 7578SOL     OW24887   4.995   4.441   3.039  0.2535 -0.3425 -0.2706
 7578SOL    HW124888   5.003   4.398   3.124  0.9245 -1.1021 -0.7021
 7578SOL    HW224889   5.045   4.522   3.048 -0.9803  0.3639  0.5358
 7579SOL     OW24890   2.437   6.154   4.694  0.4753  0.0674  0.0206
 7579SOL    HW124891   2.347   6.170   4.664  0.6994  0.7351 -0.3290
 7579SOL    HW224892   2.453   6.223   4.758  2.3758  3.1761 -3.4326
 7580SOL     OW24893   2.806   9.227   4.033 -0.5109 -0.4674 -0.0142
 7580SOL    HW124894   2.733   9.285   4.014 -0.3396 -1.1235 -3.1780
 7580SOL    HW224895   2.843   9.206   3.948  2.8477 -0.8993  1.3862
 7581SOL     OW24896   3.452   7.216   6.535 -0.0151  0.5300 -0.2940
 7581SOL    HW124897   3.488   7.149   6.594 -1.3811 -1.2095 -1.3194
 7581SOL    HW224898   3.505   7.294   6.552  3.2360 -1.3888 -0.6649
 7582SOL     OW24899   3.562   5.667   4.312 -0.0053  0.8627  0.2674
 7582SOL    HW124900   3.595   5.752   4.343  1.9884  0.6440 -1.0587
 7582SOL    HW224901   3.611   5.651   4.232  0.2670 -1.9363  0.9118
 7583SOL     OW24902   1.772   3.334   2.026 -0.6420  0.4137  0.2515
 7583SOL    HW124903   1.770   3.259   2.084 -1.1791 -0.6695 -1.1164
 7583SOL    HW224904   1.822   3.305   1.950 -1.5575  1.1502 -0.6649
 7584SOL     OW24905   6.300   5.232   8.242  0.2311 -0.0456  0.1590
 7584SOL    HW124906   6.250   5.312   8.224 -0.6804 -0.8107 -0.8724
 7584SOL    HW224907   6.372   5.260   8.297  1.0818  1.8807 -1.7842
 7585SOL     OW24908   8.523   1.870   3.107  0.0485 -0.5776  0.2416
 7585SOL    HW124909   8.530   1.922   3.027  0.5305 -0.6359  0.2400
 7585SOL    HW224910   8.599   1.897   3.159 -0.0238 -0.8544  0.4910
 7586SOL     OW24911   6.703   3.127   3.237  0.1765 -0.7347 -0.4516
 7586SOL    HW124912   6.727   3.056   3.297  0.8883  0.1336  0.3266
 7586SOL    HW224913   6.626   3.168   3.279  1.8831  1.1662  1.0367
 7587SOL     OW24914   3.251   0.317   6.630 -0.2858  0.0233  0.2965
 7587SOL    HW124915   3.208   0.303   6.715 -0.2136 -0.6724  0.2269
 7587SOL    HW224916   3.297   0.400   6.639  1.9407 -1.2644  1.8896
 7588SOL     OW24917   2.815   1.495   6.468 -0.0026  0.5899 -0.0559
 7588SOL    HW124918   2.749   1.432   6.440 -1.2451  0.9566  1.8490
 7588SOL    HW224919   2.894   1.469   6.423 -1.1298 -0.6897 -1.3875
 7589SOL     OW24920   0.681   0.007   1.305 -0.1018 -0.3221  0.4536
 7589SOL    HW124921   0.642  -0.080   1.298  1.8516 -1.4069  2.0958
 7589SOL    HW224922   0.775  -0.009   1.303  0.3184  1.9669 -1.0458
 7590SOL     OW24923   4.391   4.465   7.939 -0.1515 -0.0154  0.1473
 7590SOL    HW124924   4.420   4.412   8.013  0.9918  0.6520  0.1920
 7590SOL    HW224925   4.338   4.534   7.979 -2.7858 -1.7790 -0.0115
 7591SOL     OW24926   5.064   4.498   5.518  0.5197  0.0799 -0.0704
 7591SOL    HW124927   5.090   4.583   5.484  2.2905  0.7159  2.5660
 7591SOL    HW224928   5.128   4.436   5.482  1.1466  0.4061  0.4675
 7592SOL     OW24929   8.890   5.152   9.351 -0.2248 -0.4547  0.0350
 7592SOL    HW124930   8.861   5.234   9.390 -1.2019 -0.9928  0.4591
 7592SOL    HW224931   8.981   5.169   9.325  0.1946  0.1846  1.7708
 7593SOL     OW24932   9.054   2.776   5.573 -0.1367 -0.3390  0.1071
 7593SOL    HW124933   9.131   2.789   5.629 -1.6438  1.6504  1.8707
 7593SOL    HW224934   9.038   2.862   5.535 -1.7050 -0.5998  0.1089
 7594SOL     OW24935   2.318   6.427   5.181  0.7602  0.9029 -0.3635
 7594SOL    HW124936   2.311   6.364   5.109  2.0024 -0.3711  0.5614
 7594SOL    HW224937   2.231   6.428   5.221  0.0218  1.7216 -1.9265
 7595SOL     OW24938   7.894   1.815   7.825  0.0062  0.0621  0.2032
 7595SOL    HW124939   7.801   1.792   7.831  0.5205 -1.8914  1.4807
 7595SOL    HW224940   7.937   1.736   7.793  1.3529  0.6100  0.5951
 7596SOL     OW24941   6.908   3.050   7.899  0.1699  0.0918  0.2470
 7596SOL    HW124942   6.826   3.083   7.862  0.8468  0.1979 -1.2137
 7596SOL    HW224943   6.944   2.993   7.831  0.3475 -1.5627  1.6481
 7597SOL     OW24944   0.654   5.170   1.924  0.3489 -0.5312 -0.2245
 7597SOL    HW124945   0.703   5.200   1.847 -0.8987  0.3206 -0.7108
 7597SOL    HW224946   0.710   5.102   1.962  0.9148 -1.1318 -1.9904
 7598SOL     OW24947   5.828   8.340   4.525 -0.5586  0.0249 -0.0833
 7598SOL    HW124948   5.857   8.271   4.465  2.2512  0.7043  0.3690
 7598SOL    HW224949   5.822   8.297   4.610 -2.1279 -0.3712 -0.3620
 7599SOL     OW24950   4.468   0.910   1.353 -0.3064 -0.1431 -0.1653
 7599SOL    HW124951   4.413   0.982   1.383 -1.1340 -0.6172 -0.5199
 7599SOL    HW224952   4.486   0.931   1.261 -0.1251 -0.1358 -0.1287
 7600SOL     OW24953   0.217   9.529   6.632  0.0537  0.0084  0.5379
 7600SOL    HW124954   0.150   9.549   6.567  0.6121  0.9441  0.2429
 7600SOL    HW224955   0.212   9.433   6.642 -1.3737  0.0601  0.5930
 7601SOL     OW24956   1.082   7.498   8.960  0.2728 -0.0739 -0.2441
 7601SOL    HW124957   1.168   7.523   8.993  0.6339 -1.5915  0.0183
 7601SOL    HW224958   1.026   7.572   8.982  1.1145  0.1541  1.2506
 7602SOL     OW24959   4.124   2.993   8.741  0.0499  0.0532  0.2540
 7602SOL    HW124960   4.180   2.972   8.816  2.1927  0.0628 -1.2433
 7602SOL    HW224961   4.126   3.089   8.736 -2.3729  0.2822  1.7325
 7603SOL     OW24962   8.287   8.717   3.570 -0.1199 -0.0882  0.3468
 7603SOL    HW124963   8.258   8.805   3.592  2.8156  1.0195  0.1754
 7603SOL    HW224964   8.368   8.704   3.620  0.5410 -1.9389 -1.0596
 7604SOL     OW24965   0.821   5.301   4.187  0.2898 -0.3696  0.0815
 7604SOL    HW124966   0.790   5.391   4.200 -0.4279 -0.4593 -0.8821
 7604SOL    HW224967   0.796   5.255   4.267 -0.6957 -0.0631 -0.0333
 7605SOL     OW24968   9.124   2.705   8.161 -0.3016 -0.3534  0.0613
 7605SOL    HW124969   9.171   2.738   8.237  0.9755  0.8347 -1.1848
 7605SOL    HW224970   9.191   2.694   8.094 -1.4219 -1.1863 -0.9769
 7606SOL     OW24971   3.982   5.516   5.970 -0.6774 -0.6755  0.7708
 7606SOL    HW124972   3.997   5.455   6.042 -0.8140  0.3135  1.6673
 7606SOL    HW224973   3.981   5.602   6.012  0.2670  0.0124 -0.5641
 7607SOL     OW24974   6.649   0.767   8.344 -0.2638 -0.3182 -0.8663
 7607SOL    HW124975   6.594   0.722   8.279  1.0487 -2.0717 -0.8315
 7607SOL    HW224976   6.619   0.733   8.428 -0.2092 -0.0167 -0.7225
 7608SOL     OW24977   8.912   3.853   5.553 -0.6097 -0.1128 -0.1848
 7608SOL    HW124978   8.864   3.778   5.587 -0.8629 -0.2991 -0.9369
 7608SOL    HW224979   8.995   3.853   5.601 -0.2417 -1.3750 -0.7734
 7609SOL     OW24980   2.540   6.649   0.763 -0.3072  0.2084 -0.3284
 7609SOL    HW124981   2.541   6.553   0.756 -0.3394  0.3090 -1.9362
 7609SOL    HW224982   2.578   6.667   0.849  1.0123 -1.1957 -0.5780
 7610SOL     OW24983   8.614   1.176   3.363  0.0950 -0.1734  0.2484
 7610SOL    HW124984   8.695   1.142   3.401 -0.2008 -1.1571  0.0193
 7610SOL    HW224985   8.545   1.119   3.396 -0.3231 -0.2674 -0.7446
 7611SOL     OW24986   5.930   1.573   6.865  0.2346 -0.3702  0.2589
 7611SOL    HW124987   5.888   1.631   6.928  0.5362  0.0400  0.0966
 7611SOL    HW224988   5.880   1.492   6.868 -0.7018  0.1809 -0.0915
 7612SOL     OW24989   9.254   7.514   6.363  0.6469  0.2753  0.7145
 7612SOL    HW124990   9.311   7.587   6.338  1.7555 -0.1361  1.9235
 7612SOL    HW224991   9.277   7.496   6.454 -0.4730 -0.8066  0.8082
 7613SOL     OW24992   5.904   6.154   9.630 -0.8847 -0.3014 -0.2400
 7613SOL    HW124993   5.885   6.226   9.691 -1.6383  0.0819 -0.9080
 7613SOL    HW224994   5.922   6.079   9.687 -2.7730 -0.2680  0.4787
 7614SOL     OW24995   7.690   1.065   6.428 -0.8811  0.0460 -0.2883
 7614SOL    HW124996   7.612   1.008   6.430  0.1756 -1.4960  2.0701
 7614SOL    HW224997   7.715   1.068   6.336 -1.8495 -2.1645 -0.6955
 7615SOL     OW24998   4.194   3.544   0.555 -0.1169  0.1885  0.5962
 7615SOL    HW124999   4.135   3.575   0.624 -0.5949  2.2643 -0.6710
 7615SOL    HW225000   4.156   3.461   0.526 -1.0611  0.3240  1.4151
 7616SOL     OW25001   8.551   5.440   3.070 -0.0431  0.2913  0.9057
 7616SOL    HW125002   8.625   5.467   3.016 -0.2945 -1.4491 -0.3595
 7616SOL    HW225003   8.587   5.439   3.159  1.2610  0.1553  0.4067
 7617SOL     OW25004   7.366   8.195   5.219 -0.2227 -0.1985  0.3951
 7617SOL    HW125005   7.340   8.151   5.139 -1.1904 -0.7689  1.0069
 7617SOL    HW225006   7.303   8.166   5.285 -1.1158  2.3002  0.7782
 7618SOL     OW25007   9.496   5.124   1.381 -0.3706 -0.3253  0.1304
 7618SOL    HW125008   9.456   5.041   1.355 -1.4223  0.3423 -0.4546
 7618SOL    HW225009   9.557   5.145   1.310 -2.1107  0.7222 -1.1654
 7619SOL     OW25010   7.922   8.534   8.271  0.4075  0.4630  0.3312
 7619SOL    HW125011   7.999   8.486   8.242  0.3550  1.2332 -1.1919
 7619SOL    HW225012   7.860   8.467   8.299  0.9126 -0.2693 -0.2762
 7620SOL     OW25013   9.385   1.932   9.510  0.0191 -0.3156  0.5364
 7620SOL    HW125014   9.446   1.912   9.440 -0.5306  1.8412 -0.6373
 7620SOL    HW225015   9.309   1.971   9.466 -1.3911 -1.1037  2.1219
 7621SOL     OW25016   8.160   4.713   2.393  0.0132  0.0176  0.5864
 7621SOL    HW125017   8.106   4.683   2.320 -1.1207 -1.8122  2.0704
 7621SOL    HW225018   8.152   4.808   2.392 -1.5834 -0.0885 -0.4737
 7622SOL     OW25019   5.972   1.143   7.306 -0.1937 -0.4261 -0.7610
 7622SOL    HW125020   6.044   1.182   7.257 -0.9868  0.4940 -1.2321
 7622SOL    HW225021   5.986   1.171   7.396 -0.0915 -0.0228 -0.8980
 7623SOL     OW25022   3.682   9.149   9.098 -0.2866  0.5115 -0.3130
 7623SOL    HW125023   3.595   9.181   9.074  0.1868  2.4777  0.3694
 7623SOL    HW225024   3.689   9.169   9.192  1.1458  1.0763 -0.5177
 7624SOL     OW25025   5.055   5.904   4.312  0.4931  0.0181  1.1062
 7624SOL    HW125026   5.051   5.810   4.328  2.4838 -0.2085  0.5182
 7624SOL    HW225027   5.004   5.917   4.232  0.5006 -0.6094  0.9973
 7625SOL     OW25028   6.362   3.595   6.530 -0.1096  0.1665  0.6095
 7625SOL    HW125029   6.270   3.619   6.521 -1.3052 -3.9083 -0.5289
 7625SOL    HW225030   6.401   3.618   6.445 -0.7863 -0.4524  0.1202
 7626SOL     OW25031   2.552   1.001   1.530  0.2961 -0.4880  0.0888
 7626SOL    HW125032   2.520   0.978   1.617 -1.6308 -1.2139 -0.7560
 7626SOL    HW225033   2.473   1.021   1.480  1.4721  4.3374 -0.3872
 7627SOL     OW25034   7.751   3.679   1.938 -0.1394 -0.0548 -0.2409
 7627SOL    HW125035   7.727   3.605   1.993  1.2973  0.1673  0.7536
 7627SOL    HW225036   7.836   3.707   1.972  0.8413  0.0735 -2.6125
 7628SOL     OW25037   7.369   5.679   3.839 -0.6654 -0.2595  0.0190
 7628SOL    HW125038   7.423   5.603   3.818 -0.7912 -1.2204  2.7003
 7628SOL    HW225039   7.388   5.743   3.771  0.1432 -2.3469 -1.8153
 7629SOL     OW25040   7.110   1.775   1.301 -0.0261  0.3898 -0.0538
 7629SOL    HW125041   7.129   1.740   1.388  1.2599 -0.8401 -0.7702
 7629SOL    HW225042   7.154   1.860   1.299 -0.0656  0.4243  0.5118
 7630SOL     OW25043   1.057   2.206   3.019  0.1504  0.0203  0.1553
 7630SOL    HW125044   1.146   2.173   3.035  0.0154  0.2996  1.6442
 7630SOL    HW225045   1.069   2.297   2.993  0.3161 -0.0033  0.1475
 7631SOL     OW25046   8.486   5.448   3.986 -0.3794  0.0361 -0.1571
 7631SOL    HW125047   8.399   5.486   4.000 -1.0085 -0.8088 -1.5661
 7631SOL    HW225048   8.469   5.364   3.943  1.1624  0.3386 -1.4367
 7632SOL     OW25049   3.712   4.529   7.152 -0.2927  0.3405  0.4096
 7632SOL    HW125050   3.710   4.434   7.151 -0.6999  0.3474  0.3737
 7632SOL    HW225051   3.686   4.552   7.242 -0.2725  0.4171  0.3958
 7633SOL     OW25052   4.377   7.203   4.098  0.5092  0.3487  0.2384
 7633SOL    HW125053   4.471   7.190   4.103  0.2749 -2.6771 -1.1849
 7633SOL    HW225054   4.342   7.119   4.067 -2.5200  1.8095 -0.7309
 7634SOL     OW25055   8.279   7.537   5.990  0.2194  0.3432 -1.0101
 7634SOL    HW125056   8.331   7.465   5.956  0.5701  0.0967 -0.0022
 7634SOL    HW225057   8.189   7.513   5.969  0.4262  0.2083 -1.7523
 7635SOL     OW25058   5.670   8.596   8.720 -0.0734  0.0158 -0.5712
 7635SOL    HW125059   5.736   8.625   8.657 -0.7371  0.6797 -0.9831
 7635SOL    HW225060   5.596   8.655   8.705 -0.8470 -0.8638 -0.2761
 7636SOL     OW25061   1.906   1.306   0.862  0.3975 -0.3932  0.0304
 7636SOL    HW125062   1.827   1.352   0.836  1.4150  1.1671 -0.4294
 7636SOL    HW225063   1.883   1.265   0.946 -1.0872 -0.5604 -0.4271
 7637SOL     OW25064   6.337   7.345   1.538 -0.1921 -0.0080  0.3951
 7637SOL    HW125065   6.283   7.283   1.489  0.5923  0.4041 -1.0555
 7637SOL    HW225066   6.306   7.431   1.511  1.1255  0.2318 -0.4307
 7638SOL     OW25067   4.002   2.159   9.393  0.4845 -0.4674  0.0586
 7638SOL    HW125068   4.080   2.205   9.363  1.4928 -1.8165  0.5303
 7638SOL    HW225069   4.030   2.069   9.405 -1.2268 -1.0505 -0.0253
 7639SOL     OW25070   8.939   4.313   0.949  0.3073  0.3333 -0.0071
 7639SOL    HW125071   9.007   4.350   1.006 -0.4964  2.0057 -0.0646
 7639SOL    HW225072   8.927   4.379   0.880  0.1294 -0.9256 -1.2208
 7640SOL     OW25073   5.787   0.840   0.451  0.1481 -0.2803  0.0892
 7640SOL    HW125074   5.788   0.816   0.544 -2.2463  1.1219  0.5846
 7640SOL    HW225075   5.773   0.934   0.451  0.2565 -0.2336 -1.6971
 7641SOL     OW25076   6.889   0.358   1.155  0.2392  0.6472 -0.1067
 7641SOL    HW125077   6.869   0.452   1.152 -0.7244  0.4446 -0.3961
 7641SOL    HW225078   6.823   0.321   1.214 -0.2041 -0.0334 -0.9995
 7642SOL     OW25079   0.937   6.401   5.555  0.6071  0.1278 -0.0873
 7642SOL    HW125080   0.938   6.310   5.526  1.0381  0.3899 -0.9571
 7642SOL    HW225081   0.855   6.436   5.520  0.4783  0.0950  0.1804
 7643SOL     OW25082   8.542   2.547   7.218 -0.1299 -0.1718 -0.2199
 7643SOL    HW125083   8.534   2.481   7.288  0.9992  2.1311  2.2718
 7643SOL    HW225084   8.454   2.583   7.209 -0.6679 -1.6548 -1.3100
 7644SOL     OW25085   5.593   6.785   6.670  0.4713 -0.5267  0.0315
 7644SOL    HW125086   5.613   6.740   6.752 -0.6685 -0.8649  0.1409
 7644SOL    HW225087   5.527   6.850   6.695  1.2922  0.4663 -0.3314
 7645SOL     OW25088   3.430   2.604   4.963  1.0436  0.0488  0.6143
 7645SOL    HW125089   3.520   2.615   4.991  1.4772 -0.4969 -0.4990
 7645SOL    HW225090   3.403   2.691   4.932  1.5591 -0.0311 -0.0729
 7646SOL     OW25091   6.792   2.670   2.233 -0.0310 -0.1365  0.5587
 7646SOL    HW125092   6.816   2.580   2.254  1.0074  0.2801  1.2552
 7646SOL    HW225093   6.867   2.722   2.261 -1.0332  1.0492  1.1663
 7647SOL     OW25094   4.888   3.131   6.735 -0.1138 -0.0098 -0.5124
 7647SOL    HW125095   4.792   3.134   6.742 -0.4520 -1.5574 -3.0636
 7647SOL    HW225096   4.916   3.080   6.811 -1.3211  0.1567  0.0770
 7648SOL     OW25097   3.143   1.140   5.921  0.0130 -0.3309  1.0286
 7648SOL    HW125098   3.116   1.052   5.892  0.7098  0.0998 -1.1125
 7648SOL    HW225099   3.105   1.199   5.856  1.7842  0.7248  0.9017
 7649SOL     OW25100   7.382   6.036   2.671  0.3989  0.3223  0.2552
 7649SOL    HW125101   7.447   6.105   2.684  1.6439 -0.5741 -0.8845
 7649SOL    HW225102   7.400   6.003   2.582 -0.7994 -0.7948  0.4013
 7650SOL     OW25103   7.066   2.596   1.572  0.0465 -0.3678  0.6534
 7650SOL    HW125104   7.082   2.636   1.657 -1.4568 -2.0096  1.7808
 7650SOL    HW225105   6.986   2.639   1.541  0.6580  0.3155 -0.0273
 7651SOL     OW25106   2.943   0.276   4.526  0.2442  0.5550 -0.3854
 7651SOL    HW125107   2.980   0.265   4.613 -0.1390  0.0726 -0.2869
 7651SOL    HW225108   2.960   0.193   4.481  2.4792  1.5378 -1.5439
 7652SOL     OW25109   2.647   4.852   0.370 -0.0527  0.9601 -0.1676
 7652SOL    HW125110   2.678   4.786   0.431 -1.5375  1.0220  0.6886
 7652SOL    HW225111   2.715   4.919   0.370  0.8571  0.0548 -0.0627
 7653SOL     OW25112   4.141   4.976   6.223  0.0474 -0.2337 -0.2330
 7653SOL    HW125113   4.203   4.926   6.277 -0.9214 -1.3650 -0.1421
 7653SOL    HW225114   4.060   4.977   6.274 -0.2368  0.6182 -0.6747
 7654SOL     OW25115   4.449   7.703   8.228  0.2809  0.3771  0.3067
 7654SOL    HW125116   4.542   7.707   8.208  0.4353 -0.8310  0.6883
 7654SOL    HW225117   4.416   7.629   8.177 -0.6071  1.1339 -0.2691
 7655SOL     OW25118   4.613   4.968   3.985 -0.4026 -0.3814 -0.8695
 7655SOL    HW125119   4.699   4.981   3.946  0.0532 -1.1145 -0.1333
 7655SOL    HW225120   4.607   5.035   4.054  0.0627 -1.0648 -0.1502
 7656SOL     OW25121   4.874   0.451   4.150 -0.3714  0.0796  0.5840
 7656SOL    HW125122   4.913   0.382   4.203 -0.5710 -0.3040  0.2362
 7656SOL    HW225123   4.781   0.432   4.149 -0.1696 -1.1627 -1.6154
 7657SOL     OW25124   5.033   2.955   7.308 -0.3882 -0.2521 -0.4073
 7657SOL    HW125125   4.937   2.951   7.300 -0.3294 -0.2333 -1.1238
 7657SOL    HW225126   5.048   3.005   7.388 -0.9697  0.7838 -0.9209
 7658SOL     OW25127   6.043   5.002   0.958 -0.0374  0.3084  0.6160
 7658SOL    HW125128   5.952   4.993   0.986 -0.0147  1.5948  1.1884
 7658SOL    HW225129   6.049   5.091   0.922  1.0869  0.4217  1.0283
 7659SOL     OW25130   1.906   1.880   4.131  0.4637  0.0968 -0.5804
 7659SOL    HW125131   1.896   1.788   4.158  1.2635  0.0034 -0.5757
 7659SOL    HW225132   1.907   1.928   4.214 -2.0756  0.3666 -0.6339
 7660SOL     OW25133   3.430   4.288   1.260  0.1279 -0.8195  0.7495
 7660SOL    HW125134   3.451   4.309   1.169  1.0812 -2.3316  0.5871
 7660SOL    HW225135   3.336   4.304   1.267  0.5155  2.0054  0.3083
 7661SOL     OW25136   2.042   5.832   1.677  0.1301  0.1139  0.0124
 7661SOL    HW125137   2.097   5.801   1.749 -0.6910  0.4248  0.7817
 7661SOL    HW225138   2.105   5.862   1.611  0.9681 -2.5473 -0.5386
 7662SOL     OW25139   7.909   0.339   2.592 -0.4500 -0.1271  0.3162
 7662SOL    HW125140   7.905   0.420   2.643 -0.9231  0.4840 -0.6516
 7662SOL    HW225141   8.002   0.322   2.582 -0.3269  0.6985 -0.0748
 7663SOL     OW25142   3.012   4.928   4.273  0.1586 -0.1561 -0.0495
 7663SOL    HW125143   2.930   4.890   4.304  1.1407 -1.2587  1.3233
 7663SOL    HW225144   2.993   5.021   4.262 -1.7429 -0.6391 -1.4785
 7664SOL     OW25145   8.732   8.096   9.431  0.1584 -0.7440  0.7431
 7664SOL    HW125146   8.785   8.047   9.368  0.5114  0.0891  0.3753
 7664SOL    HW225147   8.643   8.063   9.418  0.3924 -1.3031  0.5273
 7665SOL     OW25148   7.671   8.367   9.307  0.0431 -0.3427  0.5583
 7665SOL    HW125149   7.686   8.353   9.401  0.7622 -1.4480  0.3114
 7665SOL    HW225150   7.596   8.312   9.286  0.3034 -0.6355  0.3701
 7666SOL     OW25151   7.439   8.518   5.332  0.2561 -0.3569  0.5398
 7666SOL    HW125152   7.358   8.471   5.353 -0.2172  0.8184  1.5046
 7666SOL    HW225153   7.421   8.561   5.248  0.2230 -0.8366  0.2983
 7667SOL     OW25154   5.271   6.455   2.541 -0.5226 -0.2106  0.2606
 7667SOL    HW125155   5.332   6.500   2.483  0.1338  1.4608  2.1163
 7667SOL    HW225156   5.279   6.362   2.518  1.0401  0.2033 -1.0524
 7668SOL     OW25157   3.976   4.955   8.177 -0.3940  0.0719 -0.0585
 7668SOL    HW125158   4.021   4.871   8.191 -0.3083 -0.1854 -1.6602
 7668SOL    HW225159   4.029   5.000   8.111 -0.8121  1.1061  0.2941
 7669SOL     OW25160   0.912   2.298   7.368  0.6205  0.1706 -0.1266
 7669SOL    HW125161   0.896   2.235   7.298 -0.6049  0.5062 -0.1682
 7669SOL    HW225162   0.834   2.353   7.369  0.4228 -0.0729  1.7584
 7670SOL     OW25163   5.137   2.861   4.909  0.0563 -0.4049 -0.4348
 7670SOL    HW125164   5.187   2.882   4.830 -2.3228  0.1583 -1.8867
 7670SOL    HW225165   5.111   2.945   4.945  0.0133 -0.6833  0.2029
 7671SOL     OW25166   5.207   2.625   1.847 -0.1163  0.2648  0.5750
 7671SOL    HW125167   5.149   2.606   1.921  2.0312 -1.5097  1.9336
 7671SOL    HW225168   5.245   2.710   1.868 -0.7331  0.5326  0.6463
 7672SOL     OW25169   7.262   2.682   7.536  0.3446 -1.0793 -0.5824
 7672SOL    HW125170   7.331   2.615   7.538 -0.4180 -1.8682 -0.2639
 7672SOL    HW225171   7.272   2.724   7.450  2.0091 -0.3229 -0.0559
 7673SOL     OW25172   9.270   2.755   8.803  0.1197  0.2327  0.2633
 7673SOL    HW125173   9.177   2.737   8.788  0.4307  0.2178 -1.9015
 7673SOL    HW225174   9.275   2.851   8.808 -0.1988  0.1928  2.0715
 7674SOL     OW25175   6.490   2.912   7.621  0.4377  0.2551  0.2545
 7674SOL    HW125176   6.413   2.856   7.620  1.6027 -1.4289 -0.4995
 7674SOL    HW225177   6.469   2.984   7.562 -1.2650  0.9117  1.5763
 7675SOL     OW25178   0.996   1.213   5.164  0.4691 -0.1509  0.5905
 7675SOL    HW125179   0.998   1.200   5.069  1.5809 -0.7314  0.6773
 7675SOL    HW225180   0.929   1.280   5.177  1.7842  1.5293 -0.7930
 7676SOL     OW25181   2.231   5.567   3.801 -0.8083 -0.0285  0.9869
 7676SOL    HW125182   2.299   5.545   3.737 -0.3622 -2.5904  2.1855
 7676SOL    HW225183   2.149   5.561   3.751 -0.3840 -0.8020  0.3480
 7677SOL     OW25184   1.132   8.738   6.108 -0.0113  0.0750  0.0983
 7677SOL    HW125185   1.115   8.805   6.174 -1.0260 -1.1263  1.1206
 7677SOL    HW225186   1.098   8.775   6.027  1.5739  1.7217  0.1360
 7678SOL     OW25187   3.175   2.253   1.748 -0.7504  0.2229  0.5092
 7678SOL    HW125188   3.238   2.201   1.797 -0.4103 -1.2143 -1.3347
 7678SOL    HW225189   3.091   2.238   1.792 -0.3361 -0.4088  1.0959
 7679SOL     OW25190   0.036   0.986   5.823  0.3894  0.4376 -0.2583
 7679SOL    HW125191   0.030   1.071   5.867 -0.3346  1.2892 -1.8810
 7679SOL    HW225192   0.130   0.971   5.814  0.5283  0.8721  0.4291
 7680SOL     OW25193   1.357   9.174   6.979  0.4051  0.0604 -0.1096
 7680SOL    HW125194   1.436   9.178   7.032  0.7505 -1.9715 -0.3950
 7680SOL    HW225195   1.296   9.122   7.031 -0.4899  0.9546 -0.2309
 7681SOL     OW25196   4.345   3.769   0.496  0.3490  0.3526  0.0167
 7681SOL    HW125197   4.371   3.834   0.430  2.6525 -1.3862 -0.9143
 7681SOL    HW225198   4.249   3.771   0.494  0.3015  0.6695 -3.1201
 7682SOL     OW25199   0.346   8.308   2.659 -0.2522 -0.0301 -0.7859
 7682SOL    HW125200   0.418   8.251   2.632 -0.0113  0.6949 -1.7292
 7682SOL    HW225201   0.344   8.377   2.593 -1.4718  0.2589 -0.4675
 7683SOL     OW25202   8.298   3.347   0.622 -0.9597 -0.0184 -0.1312
 7683SOL    HW125203   8.371   3.293   0.592 -0.3920  0.3138  0.6267
 7683SOL    HW225204   8.251   3.292   0.684 -1.2697 -0.1794 -0.5069
 7684SOL     OW25205   8.283   3.888   9.608 -0.3185 -0.1710  0.0789
 7684SOL    HW125206   8.280   3.819   9.542 -0.6018 -0.6133  0.5491
 7684SOL    HW225207   8.197   3.930   9.603 -0.5722 -0.6221  0.6057
 7685SOL     OW25208   3.465   3.218   2.140  0.0582 -0.7641  0.1203
 7685SOL    HW125209   3.517   3.149   2.180  0.6940 -0.4331 -0.1129
 7685SOL    HW225210   3.521   3.252   2.069 -0.7465 -0.8602 -0.5824
 7686SOL     OW25211   6.991   1.051   8.787 -0.1261 -0.0231 -0.1012
 7686SOL    HW125212   7.049   0.996   8.839  1.2265  1.8465  0.4902
 7686SOL    HW225213   7.026   1.140   8.798 -2.0392  0.9368 -1.2113
 7687SOL     OW25214   7.971   7.811   5.061 -0.1057 -0.3282  0.1147
 7687SOL    HW125215   8.049   7.773   5.100 -0.2002  0.7283  1.3981
 7687SOL    HW225216   7.989   7.905   5.057 -0.7256 -0.2356 -0.9636
 7688SOL     OW25217   3.305   2.017   8.212  0.5716 -0.2516  0.0880
 7688SOL    HW125218   3.355   1.946   8.172 -0.5541 -1.7155  1.1476
 7688SOL    HW225219   3.248   2.048   8.142  1.4904  0.0312 -0.5510
 7689SOL     OW25220   7.632   1.257   4.921  0.5458  0.3046 -0.3299
 7689SOL    HW125221   7.636   1.345   4.884  0.3135 -0.0206 -1.1587
 7689SOL    HW225222   7.722   1.237   4.945  0.5359  0.9195  0.2434
 7690SOL     OW25223   9.317   2.312   3.203  0.3896  0.5272  0.2223
 7690SOL    HW125224   9.386   2.352   3.256  1.0095  2.0956 -1.6648
 7690SOL    HW225225   9.248   2.379   3.198 -0.0566  0.0468 -0.2208
 7691SOL     OW25226   1.059   1.810   5.984  0.2769 -0.1974  0.2958
 7691SOL    HW125227   1.144   1.852   5.998  0.4895 -0.5231  0.0044
 7691SOL    HW225228   1.016   1.815   6.069  1.2209 -1.4337  0.8858
 7692SOL     OW25229   1.956   0.296   4.910 -0.3236  0.2314 -0.2007
 7692SOL    HW125230   1.994   0.316   4.996 -1.1704  0.7408  0.0711
 7692SOL    HW225231   2.011   0.344   4.848 -1.2676  2.0525  0.2983
 7693SOL     OW25232   6.243   2.053   4.285 -0.0281  0.1038  0.1714
 7693SOL    HW125233   6.247   2.132   4.339 -0.9575  0.2909 -0.0186
 7693SOL    HW225234   6.197   2.081   4.206  0.6058 -0.3646 -0.3664
 7694SOL     OW25235   1.870   8.665   6.845  0.2607  0.0289  0.2701
 7694SOL    HW125236   1.888   8.590   6.787 -0.8784  1.0513 -1.5230
 7694SOL    HW225237   1.794   8.637   6.896  0.7632 -0.5784  0.7039
 7695SOL     OW25238   5.795   5.316   4.122  0.5811  0.4642 -0.0725
 7695SOL    HW125239   5.841   5.363   4.053  1.9310 -1.7341 -0.7877
 7695SOL    HW225240   5.742   5.251   4.076 -1.2509  1.2338  0.8644
 7696SOL     OW25241   2.094   5.716   7.843 -0.2078  0.6482  0.0470
 7696SOL    HW125242   2.179   5.679   7.819 -0.4870  0.9236 -1.4381
 7696SOL    HW225243   2.068   5.769   7.768 -2.2051 -0.2900  0.0238
 7697SOL     OW25244   0.004   4.190   6.700 -0.3786  0.4144 -0.1200
 7697SOL    HW125245   0.014   4.238   6.618  0.1435  0.9926  0.2820
 7697SOL    HW225246   0.085   4.140   6.709 -0.3148  0.5709  0.1881
 7698SOL     OW25247   2.641   8.564   3.131 -0.0192  0.0195  0.1750
 7698SOL    HW125248   2.594   8.494   3.176 -0.5468 -0.7867 -1.5903
 7698SOL    HW225249   2.658   8.629   3.200  1.1439 -2.1185  2.0507
 7699SOL     OW25250   4.713   9.544   2.869 -0.9603 -0.3856  0.1016
 7699SOL    HW125251   4.703   9.564   2.962 -0.2177  0.3760  0.0314
 7699SOL    HW225252   4.655   9.606   2.824  0.2868  0.7261 -0.0400
 7700SOL     OW25253   7.355   5.229   7.480  0.6853  0.3535 -0.1424
 7700SOL    HW125254   7.308   5.310   7.462 -0.2802 -0.0633  0.4300
 7700SOL    HW225255   7.297   5.179   7.536  1.4113 -0.5992 -0.2022
 7701SOL     OW25256   8.085   3.591   2.293 -1.0563  0.6790  0.0564
 7701SOL    HW125257   8.156   3.540   2.255  0.1020  2.1688  0.1167
 7701SOL    HW225258   8.123   3.631   2.371 -1.4418  2.7054 -0.7185
 7702SOL     OW25259   6.952   0.009   7.681 -0.7760  0.0893  0.0031
 7702SOL    HW125260   6.892   0.058   7.624  0.3767 -1.1966 -2.4892
 7702SOL    HW225261   6.906  -0.073   7.698 -0.5613 -0.0764 -0.2152
 7703SOL     OW25262   1.091   3.196   1.671 -0.0494  0.4498  0.6976
 7703SOL    HW125263   1.142   3.272   1.645 -1.7790  0.6984 -2.4539
 7703SOL    HW225264   1.008   3.232   1.704 -0.4917 -0.0197  0.1282
 7704SOL     OW25265   9.489   4.276   3.105 -0.2868  0.1225  0.1707
 7704SOL    HW125266   9.540   4.197   3.121  0.2089  0.5075  0.5558
 7704SOL    HW225267   9.450   4.297   3.190 -1.4344 -0.3979 -0.2151
 7705SOL     OW25268   4.044   8.094   3.662 -0.1619  0.5218  0.0050
 7705SOL    HW125269   4.024   8.162   3.598 -1.8941  0.4941  0.4652
 7705SOL    HW225270   4.038   8.138   3.747  0.0064  0.0796  0.2510
 7706SOL     OW25271   7.278   5.899   7.365  0.2918  0.2605 -0.4941
 7706SOL    HW125272   7.248   5.955   7.438  0.5501 -0.7196  0.3840
 7706SOL    HW225273   7.304   5.961   7.297  0.2443  1.2126  0.3239
 7707SOL     OW25274   8.657   4.835   0.841  0.1944  0.0335  0.1519
 7707SOL    HW125275   8.744   4.852   0.806 -0.2912 -2.4656 -2.6596
 7707SOL    HW225276   8.659   4.743   0.868 -1.8920 -0.4968 -1.2785
 7708SOL     OW25277   5.480   0.454   6.364 -0.1957 -0.1374  0.5682
 7708SOL    HW125278   5.461   0.536   6.318 -1.0265  0.0116  1.1496
 7708SOL    HW225279   5.461   0.385   6.299  1.1792  0.1260 -0.1505
 7709SOL     OW25280   2.964   8.063   0.453  0.7766  0.3821  0.1979
 7709SOL    HW125281   2.978   7.969   0.442  1.9539  0.4025  1.2871
 7709SOL    HW225282   2.978   8.078   0.546  3.0309  1.9995 -0.3218
 7710SOL     OW25283   7.205   9.253   0.041  0.4038 -0.0114 -0.1406
 7710SOL    HW125284   7.162   9.205  -0.030  0.4625 -0.2815  0.0048
 7710SOL    HW225285   7.274   9.194   0.072  1.5864  0.8327 -1.0610
 7711SOL     OW25286   5.097   6.477   7.993 -0.1539 -0.1595  0.2654
 7711SOL    HW125287   5.016   6.427   8.001 -0.6435  0.3763 -1.0765
 7711SOL    HW225288   5.069   6.569   7.994  0.3551  0.0221 -0.8548
 7712SOL     OW25289   0.374   4.006   3.420 -0.8072 -0.4025  0.3833
 7712SOL    HW125290   0.325   4.074   3.374  0.0253 -0.2942 -0.3661
 7712SOL    HW225291   0.396   3.942   3.352  1.6565  0.4443  0.2889
 7713SOL     OW25292   8.491   9.540   9.520  0.1037 -0.0414 -0.3262
 7713SOL    HW125293   8.428   9.577   9.458 -2.2495  2.7727  3.3132
 7713SOL    HW225294   8.437   9.509   9.593  2.7793 -1.6206  1.1635
 7714SOL     OW25295   5.541   3.532   8.369  0.6619 -0.2379  0.3229
 7714SOL    HW125296   5.474   3.558   8.432 -0.2563 -1.2700 -0.1871
 7714SOL    HW225297   5.570   3.614   8.329 -0.8707  0.1790 -0.0031
 7715SOL     OW25298   4.755   5.625   5.745 -0.3923  0.3173  0.4670
 7715SOL    HW125299   4.845   5.605   5.720 -0.8244 -2.0822  0.6219
 7715SOL    HW225300   4.705   5.548   5.717 -2.0555  0.7109  2.2163
 7716SOL     OW25301   5.067   4.760   5.377  0.1029 -0.4603 -0.2364
 7716SOL    HW125302   5.004   4.793   5.313  0.7826 -0.1743 -0.7656
 7716SOL    HW225303   5.039   4.798   5.460 -0.6821 -0.6962 -0.3890
 7717SOL     OW25304   4.210   1.123   3.766  0.0305  0.0928  0.0493
 7717SOL    HW125305   4.286   1.065   3.763 -1.3553 -1.9624  1.5407
 7717SOL    HW225306   4.241   1.201   3.813  1.3393 -0.4409  0.1199
 7718SOL     OW25307   0.679   1.062   6.892  0.3593  0.2854 -0.1781
 7718SOL    HW125308   0.773   1.057   6.908  0.6294 -0.0542 -1.6862
 7718SOL    HW225309   0.664   0.998   6.822 -1.1296 -0.2365  0.5746
 7719SOL     OW25310   3.949   4.329   7.103 -0.1188  0.0391 -0.1053
 7719SOL    HW125311   4.018   4.270   7.073 -1.0206 -1.0510 -0.1238
 7719SOL    HW225312   3.964   4.410   7.055  0.3617 -0.6220 -1.1174
 7720SOL     OW25313   2.036   5.617   5.000  0.0073 -0.3206 -0.1981
 7720SOL    HW125314   2.128   5.593   5.010  1.1093  2.9082 -1.0439
 7720SOL    HW225315   2.012   5.586   4.913  0.0738 -1.6626  0.2408
 7721SOL     OW25316   0.063   1.308   7.970  0.0117 -0.6551 -0.4946
 7721SOL    HW125317  -0.005   1.357   7.923  1.0511  0.0260 -1.3340
 7721SOL    HW225318   0.048   1.217   7.944  0.2528 -0.3508 -1.8172
 7722SOL     OW25319   8.127   5.752   9.209  0.3823 -0.3164 -0.1530
 7722SOL    HW125320   8.171   5.712   9.134 -0.3721 -0.9864 -0.2519
 7722SOL    HW225321   8.133   5.846   9.193  0.6178 -0.4411 -0.8197
 7723SOL     OW25322   6.415   0.110   4.924  0.4792  0.1955  0.2439
 7723SOL    HW125323   6.432   0.194   4.880  0.2399 -0.0777 -0.3781
 7723SOL    HW225324   6.502   0.073   4.939  0.6153  0.7922  1.0011
 7724SOL     OW25325   5.045   6.177   4.331 -0.5919  0.0268  0.0579
 7724SOL    HW125326   4.954   6.181   4.359 -0.5750 -1.1807  0.3264
 7724SOL    HW225327   5.059   6.086   4.304  1.2774 -0.5441  2.5996
 7725SOL     OW25328   7.711   5.843   4.357 -0.0471  0.3828  0.0200
 7725SOL    HW125329   7.631   5.862   4.406 -0.4952 -1.3031  0.0192
 7725SOL    HW225330   7.758   5.779   4.410  1.5203  1.5970  0.1840
 7726SOL     OW25331   8.659   1.603   9.034  0.9433  0.0236  1.0800
 7726SOL    HW125332   8.719   1.677   9.027  1.1360 -0.2272 -0.0788
 7726SOL    HW225333   8.697   1.536   8.977 -1.4790  0.5865 -1.4169
 7727SOL     OW25334   8.985   2.000   2.377 -0.2085 -0.1515  0.3981
 7727SOL    HW125335   8.991   1.905   2.377  0.4911 -0.1409  2.0890
 7727SOL    HW225336   8.929   2.021   2.452 -0.4208  0.7690  0.0034
 7728SOL     OW25337   6.823   9.254   1.571  0.1688 -0.2708  0.3991
 7728SOL    HW125338   6.753   9.292   1.518  0.2772 -0.6318 -0.0068
 7728SOL    HW225339   6.786   9.246   1.658 -0.8612 -1.9515 -0.1526
 7729SOL     OW25340   0.538   0.222   3.122  0.0653 -0.3156  0.1636
 7729SOL    HW125341   0.557   0.149   3.180 -1.5620  0.1390  1.3667
 7729SOL    HW225342   0.553   0.300   3.175  1.6188  0.2578 -1.0466
 7730SOL     OW25343   3.075   6.024   4.145 -0.4386  0.2712  0.4508
 7730SOL    HW125344   3.087   6.010   4.051 -1.1514  0.0808  0.3819
 7730SOL    HW225345   2.980   6.034   4.156 -0.2343  2.0559  0.9074
 7731SOL     OW25346   1.712   3.651   0.460 -0.5169  0.1307 -0.3560
 7731SOL    HW125347   1.627   3.660   0.503  0.1417  2.4137  0.6369
 7731SOL    HW225348   1.715   3.725   0.399  0.7842  0.1488 -0.2858
 7732SOL     OW25349   3.468   5.524   5.263  0.2888  0.0068 -0.1817
 7732SOL    HW125350   3.414   5.601   5.245  0.3349  0.3930  1.1989
 7732SOL    HW225351   3.422   5.479   5.334  1.0385 -0.4212  0.0422
 7733SOL     OW25352   6.153   1.265   7.770 -0.0040 -0.4479 -0.1046
 7733SOL    HW125353   6.085   1.278   7.837  0.6401 -1.8270  0.8600
 7733SOL    HW225354   6.233   1.251   7.820  0.5400 -1.2761 -1.1846
 7734SOL     OW25355   1.584   2.096   0.215 -0.2226  0.5647 -0.2296
 7734SOL    HW125356   1.532   2.061   0.288 -1.0174  1.0334 -0.5554
 7734SOL    HW225357   1.664   2.043   0.215 -0.4849  0.1466  0.5895
 7735SOL     OW25358   0.785   1.741   1.448 -0.2110  0.7106  0.3956
 7735SOL    HW125359   0.868   1.728   1.402  0.3693  1.1072  1.3150
 7735SOL    HW225360   0.728   1.671   1.414  0.8269 -0.2265  0.5309
 7736SOL     OW25361   2.756   6.794   1.360  0.1484  0.0715 -0.4786
 7736SOL    HW125362   2.811   6.729   1.403 -0.5606 -1.2081 -1.4220
 7736SOL    HW225363   2.789   6.798   1.270 -1.0475 -0.4761 -0.9666
 7737SOL     OW25364   1.614   6.449   7.396  0.6674 -0.3275  1.0427
 7737SOL    HW125365   1.554   6.517   7.427  0.2497 -0.6382  0.9096
 7737SOL    HW225366   1.605   6.379   7.460 -2.1159 -2.0856 -1.0478
 7738SOL     OW25367   5.708   0.068   9.445 -0.2750  0.4616 -0.2101
 7738SOL    HW125368   5.675  -0.019   9.423  0.8627 -0.0942  0.1715
 7738SOL    HW225369   5.728   0.062   9.539  2.3056  0.2408 -0.6921
 7739SOL     OW25370   1.769   0.894   2.432 -0.3541 -0.3279  0.1368
 7739SOL    HW125371   1.712   0.820   2.412  0.1721 -0.3901 -1.2617
 7739SOL    HW225372   1.740   0.963   2.372  1.3931 -0.5633 -1.0664
 7740SOL     OW25373   2.434   0.479   3.513  0.2784 -0.6289  0.3760
 7740SOL    HW125374   2.511   0.533   3.528 -0.8603  0.7816  1.4087
 7740SOL    HW225375   2.390   0.475   3.598 -2.0993  0.7300 -0.6955
 7741SOL     OW25376   3.770   8.679   3.620  0.0244 -0.4013  0.3793
 7741SOL    HW125377   3.778   8.730   3.539  2.1101 -1.0926  0.1003
 7741SOL    HW225378   3.717   8.604   3.595 -2.8298  1.3398  0.7170
 7742SOL     OW25379   6.204   1.675   2.223  0.1037 -0.0398  0.0781
 7742SOL    HW125380   6.135   1.611   2.203  0.8008 -0.9570  0.5327
 7742SOL    HW225381   6.269   1.662   2.154 -0.0223  0.5986 -0.1640
 7743SOL     OW25382   4.774   3.166   5.284 -1.2948 -0.4190  1.2653
 7743SOL    HW125383   4.741   3.171   5.373  0.5723  0.1584  1.9795
 7743SOL    HW225384   4.752   3.250   5.245 -2.7534 -0.9429  0.9166
 7744SOL     OW25385   6.277   9.033   3.718 -0.0034 -1.1897  0.0182
 7744SOL    HW125386   6.203   9.093   3.717 -0.1545 -1.2951  1.6922
 7744SOL    HW225387   6.248   8.961   3.773  1.0831 -1.5760  0.1005
 7745SOL     OW25388   7.704   7.607   7.506 -0.1307 -0.2632  0.0183
 7745SOL    HW125389   7.717   7.680   7.445 -0.1706 -0.6002 -0.4002
 7745SOL    HW225390   7.612   7.613   7.531 -0.4619 -0.8932 -0.9805
 7746SOL     OW25391   4.679   1.048   3.995  0.4232  0.2512  0.3553
 7746SOL    HW125392   4.583   1.046   3.997  0.4405 -1.3935  1.5899
 7746SOL    HW225393   4.706   0.981   4.058  2.3954  0.6589  0.0155
 7747SOL     OW25394   4.661   0.689   4.948  0.1457 -0.3441  0.1411
 7747SOL    HW125395   4.745   0.673   4.905  0.3623  0.6528  0.1663
 7747SOL    HW225396   4.674   0.772   4.995 -0.4982 -0.7492  1.0577
 7748SOL     OW25397   2.988   9.604   8.747 -0.1712 -0.0428  0.1406
 7748SOL    HW125398   3.005   9.692   8.780  2.2414 -1.1781  2.2740
 7748SOL    HW225399   3.059   9.587   8.685  0.3592 -1.0227  0.9844
 7749SOL     OW25400   6.109   0.922   9.297  0.1782  0.4385  0.2248
 7749SOL    HW125401   6.171   0.874   9.352 -0.6293 -0.5897  0.2717
 7749SOL    HW225402   6.164   0.972   9.237  1.0590  0.5294  1.0763
 7750SOL     OW25403   7.230   7.320   1.236 -0.6942  0.5864 -0.3233
 7750SOL    HW125404   7.294   7.274   1.291 -0.6432  0.4130 -0.5242
 7750SOL    HW225405   7.215   7.260   1.163  0.4964  1.5140 -1.3771
 7751SOL     OW25406   0.144   9.267   9.316  0.5848 -0.2590  0.1619
 7751SOL    HW125407   0.134   9.362   9.314 -1.1803 -0.4135 -1.2688
 7751SOL    HW225408   0.201   9.247   9.242 -1.2178 -0.4328 -1.2727
 7752SOL     OW25409   0.810   0.294   6.290  0.3381  0.3994  0.8084
 7752SOL    HW125410   0.901   0.289   6.321  0.1672  0.6088  1.3603
 7752SOL    HW225411   0.811   0.250   6.205  1.1576  1.3060  0.3318
 7753SOL     OW25412   1.812   5.050   4.061 -0.3492  0.3896 -0.1625
 7753SOL    HW125413   1.832   4.992   3.987  0.7599  0.7177 -0.1317
 7753SOL    HW225414   1.738   5.007   4.105  2.4027 -2.8552  1.7860
 7754SOL     OW25415   7.744   5.472   2.286 -0.0695  0.1971  0.2431
 7754SOL    HW125416   7.745   5.562   2.256  1.2462 -0.0042 -0.3618
 7754SOL    HW225417   7.666   5.434   2.244  0.3209  0.6001 -0.8827
 7755SOL     OW25418   0.015   7.474   6.436  0.0177 -0.1171 -0.4092
 7755SOL    HW125419   0.096   7.522   6.454  0.3579 -1.1315  0.8923
 7755SOL    HW225420   0.019   7.457   6.342  0.3358  1.5580 -0.7339
 7756SOL     OW25421   7.454   4.586   7.836  0.0040  0.3567 -0.1498
 7756SOL    HW125422   7.367   4.548   7.846  0.3224 -0.0849  1.1011
 7756SOL    HW225423   7.442   4.678   7.857 -0.2096  0.3497 -0.2364
 7757SOL     OW25424   8.860   6.832   6.634 -0.2843 -0.1957 -0.4756
 7757SOL    HW125425   8.770   6.838   6.601 -0.2961 -0.6790 -0.5403
 7757SOL    HW225426   8.912   6.817   6.555 -0.0173  1.0955 -0.5744
 7758SOL     OW25427   4.342   2.478   6.112  0.5786 -0.6013  0.1925
 7758SOL    HW125428   4.254   2.451   6.084  0.1160  0.3113  0.7106
 7758SOL    HW225429   4.370   2.541   6.046  0.0128  0.5839  1.0337
 7759SOL     OW25430   8.442   4.845   1.867  0.4951 -0.8547  1.0568
 7759SOL    HW125431   8.528   4.876   1.837 -0.8093  0.7211 -1.4068
 7759SOL    HW225432   8.412   4.788   1.796 -1.7732  1.1278  0.3287
 7760SOL     OW25433   7.842   4.511   6.583  0.2113  0.3041 -0.4606
 7760SOL    HW125434   7.770   4.558   6.624 -0.5456  0.9722 -2.4681
 7760SOL    HW225435   7.838   4.423   6.621 -0.8988  0.6658  0.3027
 7761SOL     OW25436   4.019   0.770   7.598 -0.0431  0.6867 -0.0472
 7761SOL    HW125437   4.074   0.771   7.519  0.4543  0.3950  0.2919
 7761SOL    HW225438   4.063   0.829   7.658 -0.6057  1.1735 -0.1009
 7762SOL     OW25439   8.976   5.377   6.472  0.5764  0.3900  0.2588
 7762SOL    HW125440   9.065   5.391   6.503  1.0871  2.1914 -1.7732
 7762SOL    HW225441   8.925   5.448   6.512 -0.0249 -0.7079  1.5166
 7763SOL     OW25442   2.246   1.679   4.876 -0.2141  0.6042  0.0657
 7763SOL    HW125443   2.193   1.730   4.815 -0.9453  0.3419  0.4610
 7763SOL    HW225444   2.185   1.614   4.911  0.7664 -0.7660 -0.6771
 7764SOL     OW25445   6.284   0.225   0.926 -1.0795 -0.1351 -0.1657
 7764SOL    HW125446   6.254   0.180   0.847  0.6592 -4.6230  1.4292
 7764SOL    HW225447   6.203   0.252   0.970 -2.1558 -0.0377 -2.0913
 7765SOL     OW25448   4.281   7.965   3.547 -0.4298  0.5289 -0.1926
 7765SOL    HW125449   4.321   7.952   3.633 -1.6026  0.3589  0.3374
 7765SOL    HW225450   4.202   8.016   3.564 -0.6339  0.5596 -1.1816
 7766SOL     OW25451   5.770   1.827   8.868  0.1073 -0.7044  0.6086
 7766SOL    HW125452   5.728   1.827   8.782  2.5468  0.8923 -0.7140
 7766SOL    HW225453   5.750   1.913   8.904 -1.2469 -1.5195  1.8894
 7767SOL     OW25454   5.183   1.094   5.344 -0.1091  0.4537 -0.5326
 7767SOL    HW125455   5.199   1.102   5.250  0.7065  0.1167 -0.4353
 7767SOL    HW225456   5.230   1.168   5.382 -0.1188  0.3731 -0.3653
 7768SOL     OW25457   2.223   0.207   3.950 -0.0937  0.1876 -0.1833
 7768SOL    HW125458   2.140   0.227   3.994 -0.2839 -1.1218  0.0804
 7768SOL    HW225459   2.268   0.147   4.009  0.0293 -0.9313 -1.3627
 7769SOL     OW25460   1.648   3.882   8.437 -0.1052  0.4843  0.7131
 7769SOL    HW125461   1.625   3.858   8.527 -1.6703  1.0808  0.5093
 7769SOL    HW225462   1.676   3.800   8.396 -2.3799 -0.4515  0.8874
 7770SOL     OW25463   1.273   4.902   8.942 -0.5739 -0.1722  0.1775
 7770SOL    HW125464   1.305   4.910   8.852  1.8937 -1.0628  0.8955
 7770SOL    HW225465   1.178   4.901   8.933 -0.5431  2.6093 -2.1453
 7771SOL     OW25466   2.503   3.252   2.718 -0.3147 -0.2325 -0.7398
 7771SOL    HW125467   2.426   3.211   2.756 -0.1967 -0.1271 -0.3773
 7771SOL    HW225468   2.471   3.335   2.681 -0.2889  0.0600 -0.1252
 7772SOL     OW25469   8.623   9.368   0.526 -0.0335  0.1076  0.6327
 7772SOL    HW125470   8.617   9.309   0.601 -1.0903 -0.3127  0.2396
 7772SOL    HW225471   8.606   9.455   0.561  0.6916  0.0785  1.0742
 7773SOL     OW25472   9.606   6.633   6.604  0.1859 -0.2471 -0.5427
 7773SOL    HW125473   9.688   6.678   6.628  0.4296 -1.3750  0.8558
 7773SOL    HW225474   9.557   6.628   6.686 -0.4709 -1.2461 -0.9904
 7774SOL     OW25475   7.266   4.619   6.464  0.0895  0.1325  0.4214
 7774SOL    HW125476   7.239   4.709   6.446  0.1542 -0.2149 -1.7130
 7774SOL    HW225477   7.307   4.590   6.382  0.6335 -1.6367  1.2754
 7775SOL     OW25478   3.713   6.223   1.684 -0.0484 -0.3851 -0.4056
 7775SOL    HW125479   3.772   6.174   1.741  0.1832 -0.3113 -0.5780
 7775SOL    HW225480   3.712   6.172   1.603 -1.1847 -1.0516  0.0086
 7776SOL     OW25481   4.616   9.414   3.482 -0.3984  0.1043 -1.1346
 7776SOL    HW125482   4.706   9.400   3.513 -0.4539  0.1966 -0.9255
 7776SOL    HW225483   4.583   9.485   3.538 -1.7439 -2.1543  1.1421
 7777SOL     OW25484   6.031   6.453   3.476 -0.1205  0.1334  0.0659
 7777SOL    HW125485   6.042   6.430   3.383 -0.7379 -0.9686  0.2520
 7777SOL    HW225486   5.945   6.419   3.499 -0.0009  0.4583  1.0382
 7778SOL     OW25487   4.771   0.620   7.110 -0.0280 -0.3093 -0.2815
 7778SOL    HW125488   4.852   0.593   7.067 -0.4162  1.0872 -1.9706
 7778SOL    HW225489   4.797   0.642   7.199  1.4824  0.2641 -0.8469
 7779SOL     OW25490   0.443   3.043   2.870  0.1886  0.0477 -0.1444
 7779SOL    HW125491   0.449   3.010   2.960 -1.3730 -1.1263 -0.4261
 7779SOL    HW225492   0.484   2.976   2.817 -2.6962 -1.4490 -0.6848
 7780SOL     OW25493   1.892   6.261   8.595  0.1818  1.2514 -0.1199
 7780SOL    HW125494   1.826   6.327   8.575 -0.2232  0.3173 -2.0650
 7780SOL    HW225495   1.936   6.244   8.512  0.2251 -0.9664  0.2901
 7781SOL     OW25496   5.677   0.919   1.545  0.0115 -0.7836 -0.4394
 7781SOL    HW125497   5.624   0.966   1.481  0.2637  0.7321  0.4326
 7781SOL    HW225498   5.764   0.956   1.536  0.1704 -0.9272  0.4215
 7782SOL     OW25499   7.303   9.429   6.111 -0.2789 -0.6041  0.0961
 7782SOL    HW125500   7.396   9.448   6.124 -0.3964 -0.3754  0.6336
 7782SOL    HW225501   7.275   9.390   6.194 -1.0999  1.0429  0.6472
 7783SOL     OW25502   4.913   5.011   5.150  0.8881  0.2782 -0.2030
 7783SOL    HW125503   4.853   5.033   5.079  0.9323 -1.3043 -0.7765
 7783SOL    HW225504   4.998   5.043   5.120  1.2424 -1.7735 -1.7062
 7784SOL     OW25505   6.060   1.474   6.465 -0.2061 -0.3254 -0.4735
 7784SOL    HW125506   5.966   1.457   6.463 -0.0640 -1.1287 -0.5333
 7784SOL    HW225507   6.100   1.396   6.426  0.5366 -0.4325  0.4640
 7785SOL     OW25508   6.474   9.025   3.508  0.1130 -0.0328  0.4753
 7785SOL    HW125509   6.503   8.944   3.467  0.7425 -1.2670  3.1669
 7785SOL    HW225510   6.407   8.998   3.570 -2.8133  2.0981 -1.4831
 7786SOL     OW25511   4.433   5.445   9.216  0.0883 -0.0923 -0.0288
 7786SOL    HW125512   4.484   5.524   9.232 -0.0875 -0.1131  0.6952
 7786SOL    HW225513   4.343   5.469   9.240  0.2208 -0.8218  1.3241
 7787SOL     OW25514   2.395   0.744   4.434  0.4162 -0.1042 -0.0839
 7787SOL    HW125515   2.347   0.826   4.424  1.4586  0.6755  1.1188
 7787SOL    HW225516   2.465   0.749   4.368 -1.7047 -1.7610 -2.6745
 7788SOL     OW25517   7.710   5.090   5.678  0.5644  0.0985 -0.4778
 7788SOL    HW125518   7.733   5.143   5.602  0.5491 -1.3958 -1.5451
 7788SOL    HW225519   7.617   5.070   5.667  0.6864 -0.5579 -0.3374
 7789SOL     OW25520   4.370   8.649   9.103  0.0759  0.3139 -0.3045
 7789SOL    HW125521   4.417   8.571   9.134 -0.3569 -0.3553 -1.2910
 7789SOL    HW225522   4.433   8.696   9.049  0.1801  0.3840 -0.1223
 7790SOL     OW25523   7.029   9.567   1.214 -0.4157  0.2838 -0.4148
 7790SOL    HW125524   6.952   9.548   1.267 -0.2540 -0.1780 -0.3368
 7790SOL    HW225525   7.076   9.635   1.262 -1.0794  0.9979 -0.7657
 7791SOL     OW25526   1.068   7.638   8.625 -0.0542  0.1044  0.3218
 7791SOL    HW125527   1.123   7.623   8.548 -0.7362 -1.4483  0.1078
 7791SOL    HW225528   1.128   7.674   8.691  0.9694 -0.4415 -0.2887
 7792SOL     OW25529   0.478   8.892   2.855  0.3345  0.3897 -0.6773
 7792SOL    HW125530   0.429   8.920   2.777 -1.0174 -0.8527 -0.2982
 7792SOL    HW225531   0.463   8.962   2.919  1.6966  1.5720 -1.5658
 7793SOL     OW25532   7.215   1.026   2.945  0.3372 -0.2585 -0.2877
 7793SOL    HW125533   7.184   1.075   2.868  1.3733  2.8924  1.1385
 7793SOL    HW225534   7.138   1.018   3.000  0.0167 -0.8845 -0.8044
 7794SOL     OW25535   8.312   4.448   9.439  0.0073 -0.4302  0.0509
 7794SOL    HW125536   8.271   4.492   9.513 -1.3792 -1.9950  0.2775
 7794SOL    HW225537   8.244   4.449   9.371 -0.4254 -2.8953  0.3596
 7795SOL     OW25538   7.014   2.357   3.347  0.2981 -0.0204  0.1637
 7795SOL    HW125539   7.090   2.323   3.394  0.5013 -1.4178 -1.0886
 7795SOL    HW225540   7.034   2.450   3.332  1.0499 -0.0107  1.1771
 7796SOL     OW25541   8.025   5.763   4.032  0.3307 -0.6742  0.2060
 7796SOL    HW125542   7.951   5.707   4.009  0.7681 -0.1888 -2.7725
 7796SOL    HW225543   8.099   5.702   4.041  0.2697 -0.8456 -0.3937
 7797SOL     OW25544   4.019   8.183   3.931  0.6351  0.0214  0.2110
 7797SOL    HW125545   4.085   8.216   3.991  0.1883  1.0542  0.1481
 7797SOL    HW225546   3.998   8.096   3.964  1.5540 -0.0575  0.6029
 7798SOL     OW25547   7.240   2.897   9.525 -0.0868 -0.2826  0.4997
 7798SOL    HW125548   7.169   2.949   9.562 -0.4290  0.0138 -0.5269
 7798SOL    HW225549   7.199   2.814   9.501 -0.4870  0.4066 -1.4444
 7799SOL     OW25550   3.595   6.971   5.301 -0.0533 -0.1384  0.0167
 7799SOL    HW125551   3.639   7.001   5.380  1.0437 -0.6870 -0.3595
 7799SOL    HW225552   3.610   7.040   5.237  0.2351 -0.2956 -0.0915
 7800SOL     OW25553   2.159   6.153   6.621 -0.6226 -0.7708  0.0893
 7800SOL    HW125554   2.220   6.180   6.552  0.6395 -0.1978  1.3838
 7800SOL    HW225555   2.085   6.115   6.574 -0.8998  1.7565 -1.7306
 7801SOL     OW25556   8.858   5.142   8.864 -0.7576  0.1609  0.7141
 7801SOL    HW125557   8.792   5.073   8.859 -0.6321  0.0252  0.8822
 7801SOL    HW225558   8.840   5.187   8.947  0.4341 -1.0027  1.6576
 7802SOL     OW25559   2.650   1.568   5.514  0.2471 -0.1961 -0.1554
 7802SOL    HW125560   2.731   1.517   5.511  1.1238  1.1111  0.2035
 7802SOL    HW225561   2.678   1.655   5.542 -1.2960  0.2886 -0.0250
 7803SOL     OW25562   9.014   6.568   2.866  0.6014 -0.1425  0.3859
 7803SOL    HW125563   9.075   6.602   2.801  0.2807  1.1727  0.7281
 7803SOL    HW225564   8.929   6.565   2.821  0.8534 -1.7442 -0.0203
 7804SOL     OW25565   3.759   0.363   6.762 -0.2636  0.1074 -0.2414
 7804SOL    HW125566   3.848   0.372   6.728 -0.3844  1.9487 -0.1615
 7804SOL    HW225567   3.770   0.337   6.853  0.2645  1.3820  0.0845
 7805SOL     OW25568   1.187   2.630   7.198 -0.3397 -0.0475  0.1468
 7805SOL    HW125569   1.205   2.572   7.272  1.1025  0.1422 -0.0250
 7805SOL    HW225570   1.256   2.697   7.203 -1.7175  1.4498  0.1207
 7806SOL     OW25571   5.603   0.854   0.911 -0.1250 -0.5394 -0.3166
 7806SOL    HW125572   5.535   0.861   0.978 -0.3121 -1.1300 -0.4345
 7806SOL    HW225573   5.603   0.940   0.868  1.2868  0.4988  1.6214
 7807SOL     OW25574   5.973   3.426   8.853 -0.4086 -0.2906 -0.0624
 7807SOL    HW125575   5.992   3.430   8.759 -1.7213  1.6489 -0.2917
 7807SOL    HW225576   6.029   3.492   8.892 -0.2886 -0.6957  0.4635
 7808SOL     OW25577   9.592   6.722   4.820  0.4051 -0.3523  0.1716
 7808SOL    HW125578   9.656   6.653   4.803  0.1411 -0.3850 -0.7905
 7808SOL    HW225579   9.569   6.755   4.733  0.1834  0.6329  0.5869
 7809SOL     OW25580   7.250   7.636   0.614 -0.4875 -0.3549 -0.2473
 7809SOL    HW125581   7.301   7.694   0.670 -1.0780  1.1396 -1.1920
 7809SOL    HW225582   7.190   7.694   0.567 -1.3909 -1.7841 -0.9434
 7810SOL     OW25583   0.098   7.683   2.920  0.1544 -0.1145  0.0736
 7810SOL    HW125584   0.138   7.614   2.973  2.2479  0.7623 -0.2764
 7810SOL    HW225585   0.072   7.750   2.984 -2.0007 -1.1877  0.4280
 7811SOL     OW25586   1.312   7.090   5.034 -0.3611  0.4913 -0.0013
 7811SOL    HW125587   1.293   7.184   5.042 -0.4483  0.3882  1.4255
 7811SOL    HW225588   1.392   7.086   4.982 -1.2743  1.2501 -1.5312
 7812SOL     OW25589   0.606   8.655   0.198  0.3298 -0.1085 -0.1039
 7812SOL    HW125590   0.676   8.720   0.195  0.5160 -0.3417 -1.1175
 7812SOL    HW225591   0.545   8.682   0.129 -1.5434  1.1339  1.9251
 7813SOL     OW25592   1.391   4.466   4.554 -0.0837  0.0704 -0.1183
 7813SOL    HW125593   1.480   4.477   4.589 -0.1299 -0.2356  0.0964
 7813SOL    HW225594   1.335   4.504   4.622 -0.0618  1.1984 -0.7045
 7814SOL     OW25595   6.064   3.618   9.327  0.1965  0.5621  0.4215
 7814SOL    HW125596   5.997   3.684   9.312  0.4586  0.8004  0.3021
 7814SOL    HW225597   6.015   3.536   9.339 -0.1521  0.8423  0.9780
 7815SOL     OW25598   5.391   1.269   9.322 -0.4867  0.4833  1.0712
 7815SOL    HW125599   5.338   1.230   9.392 -2.5707 -0.6709 -1.0141
 7815SOL    HW225600   5.480   1.242   9.342 -1.3037 -1.7185  2.1145
 7816SOL     OW25601   7.042   4.538   4.462 -0.5781 -0.0099  0.1804
 7816SOL    HW125602   6.990   4.589   4.399 -0.7786 -0.6244 -0.1616
 7816SOL    HW225603   7.024   4.580   4.546 -1.0353  0.2541 -0.0426
 7817SOL     OW25604   7.591   7.255   3.862  0.3120  0.0809 -0.0457
 7817SOL    HW125605   7.556   7.166   3.873  0.1815  0.2484  1.0511
 7817SOL    HW225606   7.626   7.277   3.948  0.7583  0.9242 -0.4366
 7818SOL     OW25607   8.571   7.062   7.762  0.2639 -0.5869 -0.4171
 7818SOL    HW125608   8.512   7.130   7.793 -0.5680 -0.8600 -1.3684
 7818SOL    HW225609   8.628   7.044   7.838 -0.5950 -0.0348  0.3832
 7819SOL     OW25610   0.233   1.389   5.766 -0.1097 -0.4106  0.4297
 7819SOL    HW125611   0.201   1.468   5.722  2.3301  0.9711  0.9540
 7819SOL    HW225612   0.293   1.349   5.704  0.1498 -0.7744  0.9067
 7820SOL     OW25613   8.228   7.913   4.748  0.5117 -0.3632  0.3442
 7820SOL    HW125614   8.288   7.982   4.720  0.7378 -0.7080 -0.0397
 7820SOL    HW225615   8.251   7.896   4.839  0.9715 -0.4585  0.2135
 7821SOL     OW25616   1.889   2.940   8.542 -0.5650 -0.2006 -0.0619
 7821SOL    HW125617   1.878   2.868   8.481  2.4028 -0.4917 -0.4193
 7821SOL    HW225618   1.900   3.017   8.487 -0.7436  0.0152  0.2033
 7822SOL     OW25619   2.034   7.009   3.887 -0.5013  0.5491  0.1690
 7822SOL    HW125620   1.994   7.021   3.801 -1.8075 -0.0280  0.6652
 7822SOL    HW225621   2.069   7.095   3.909  1.0559  0.3941 -1.4944
 7823SOL     OW25622   9.477   2.977   0.699  0.1668  0.6607  0.1485
 7823SOL    HW125623   9.501   3.031   0.775  0.4232  0.8160 -0.0443
 7823SOL    HW225624   9.551   2.917   0.688 -0.5364 -0.3963  0.9636
 7824SOL     OW25625   5.861   4.323   0.410 -0.0294  1.1783 -0.3334
 7824SOL    HW125626   5.914   4.394   0.447  0.4645  0.7962 -0.3061
 7824SOL    HW225627   5.925   4.262   0.373 -0.4360  0.5557 -0.0171
 7825SOL     OW25628   2.675   6.688   6.301  0.0110  0.2165  0.0769
 7825SOL    HW125629   2.596   6.635   6.291  0.2185 -0.1340  0.2609
 7825SOL    HW225630   2.690   6.691   6.395 -0.5201  1.3953  0.1488
 7826SOL     OW25631   6.973   0.431   2.985 -0.0549 -0.5671 -0.2944
 7826SOL    HW125632   6.988   0.471   3.071 -0.3640 -0.2896 -0.3675
 7826SOL    HW225633   7.059   0.433   2.943 -0.0414 -0.0676 -0.2545
 7827SOL     OW25634   3.230   5.311   1.285  0.0833 -0.0444  0.2327
 7827SOL    HW125635   3.222   5.217   1.301 -0.4655  0.0246  0.3714
 7827SOL    HW225636   3.301   5.339   1.342 -0.0280 -0.3022  0.5011
 7828SOL     OW25637   5.095   9.609   4.469 -0.6522 -0.2311 -0.5921
 7828SOL    HW125638   5.123   9.536   4.413 -2.4694 -0.3067 -1.4611
 7828SOL    HW225639   5.002   9.594   4.483 -0.3541 -0.0388  2.2535
 7829SOL     OW25640   4.162   5.370   3.042  0.5862  0.1518  0.3757
 7829SOL    HW125641   4.102   5.347   3.113 -1.3901 -1.7099 -1.7210
 7829SOL    HW225642   4.243   5.323   3.061 -0.2593 -1.1033  0.9068
 7830SOL     OW25643   6.033   5.169   1.522 -0.0792  0.2079  0.1187
 7830SOL    HW125644   6.042   5.214   1.438 -1.4820  0.0247 -0.1562
 7830SOL    HW225645   6.061   5.233   1.587  1.2850  0.2624 -0.4787
 7831SOL     OW25646   2.613   0.700   0.125  0.2130  0.1618  0.0156
 7831SOL    HW125647   2.583   0.610   0.109  0.5972  0.0366 -0.0189
 7831SOL    HW225648   2.560   0.730   0.199 -1.0278  0.4773 -0.9641
 7832SOL     OW25649   5.241   0.035   9.007 -0.4698  0.0507  0.7074
 7832SOL    HW125650   5.150   0.023   8.977 -0.2360 -0.3108  0.1260
 7832SOL    HW225651   5.250  -0.027   9.080 -0.2570 -1.0045 -0.1837
 7833SOL     OW25652   2.543   1.425   3.518 -0.1918  0.1238 -0.0012
 7833SOL    HW125653   2.535   1.421   3.613 -1.5788  0.3769 -0.0798
 7833SOL    HW225654   2.626   1.469   3.502  0.6533 -1.0173  1.0714
 7834SOL     OW25655   2.254   7.600   3.221  0.6581  0.4986  0.2770
 7834SOL    HW125656   2.325   7.573   3.280  1.4393 -0.3167 -1.0101
 7834SOL    HW225657   2.174   7.566   3.263  1.4202 -2.2351 -0.2899
 7835SOL     OW25658   7.317   3.101   6.481 -0.1967  0.2312 -0.1272
 7835SOL    HW125659   7.399   3.124   6.526 -0.4567  0.2278  0.3493
 7835SOL    HW225660   7.314   3.006   6.483 -0.5078  0.2488  0.3911
 7836SOL     OW25661   4.528   4.954   1.534  0.0634 -0.2148 -0.3644
 7836SOL    HW125662   4.536   4.908   1.450  1.2178 -0.3692 -0.1854
 7836SOL    HW225663   4.520   5.046   1.510 -0.5164 -0.3378 -0.6667
 7837SOL     OW25664   9.019   0.976   1.950 -0.6162 -0.3780  0.2851
 7837SOL    HW125665   9.105   1.017   1.961  0.5347 -2.4106 -0.6166
 7837SOL    HW225666   8.977   1.029   1.882  0.8404 -0.6455 -0.8821
 7838SOL     OW25667   6.345   1.904   0.504  0.0635 -0.0969 -0.1632
 7838SOL    HW125668   6.407   1.837   0.532  0.5785 -0.1701 -1.4156
 7838SOL    HW225669   6.304   1.868   0.426 -0.6201  0.4902 -0.0825
 7839SOL     OW25670   6.375   6.212   2.896 -0.3486 -0.3077 -0.2670
 7839SOL    HW125671   6.306   6.278   2.887 -0.4007  0.0395  2.1194
 7839SOL    HW225672   6.329   6.134   2.927  0.3918  0.2629  2.4813
 7840SOL     OW25673   0.719   9.086   6.819 -0.0823 -0.1755  0.0813
 7840SOL    HW125674   0.651   9.048   6.873 -0.8694  1.4780  0.3097
 7840SOL    HW225675   0.699   9.179   6.817  2.2159  0.3851  0.2170
 7841SOL     OW25676   6.433   8.725   1.088  0.3712  0.1627 -0.7511
 7841SOL    HW125677   6.352   8.756   1.128  1.1838 -0.1124  1.2743
 7841SOL    HW225678   6.410   8.640   1.049 -0.2755 -0.0317  0.0199
 7842SOL     OW25679   7.043   8.289   7.170  0.0368 -0.1264 -0.1885
 7842SOL    HW125680   7.038   8.330   7.084  0.6818 -0.5494 -0.4384
 7842SOL    HW225681   7.089   8.353   7.225  2.9227 -1.2567 -1.0954
 7843SOL     OW25682   3.000   4.756   7.109 -0.4272  0.5015 -0.5139
 7843SOL    HW125683   3.050   4.717   7.037 -1.8705  0.3695 -1.4861
 7843SOL    HW225684   3.041   4.721   7.188 -0.5546 -1.6017 -1.3072
 7844SOL     OW25685   2.355   9.500   7.945  0.0854  0.2792 -0.7748
 7844SOL    HW125686   2.436   9.450   7.941 -0.4475 -0.8252  1.0930
 7844SOL    HW225687   2.381   9.591   7.933  1.7176  0.0300  0.6506
 7845SOL     OW25688   4.123   9.468   6.328  0.1190  0.2409  0.2081
 7845SOL    HW125689   4.125   9.544   6.386 -1.1996 -0.9499  1.9527
 7845SOL    HW225690   4.064   9.406   6.373  0.3625 -1.4076 -1.6219
 7846SOL     OW25691   8.711   6.838   7.887 -0.2786 -0.1553 -0.9141
 7846SOL    HW125692   8.690   6.747   7.909 -0.1071  0.2338  0.9536
 7846SOL    HW225693   8.752   6.873   7.965  0.6706  1.2408 -1.9893
 7847SOL     OW25694   6.273   7.420   3.278 -0.2788  0.1671  0.4531
 7847SOL    HW125695   6.295   7.463   3.360  1.0854  2.0646 -0.8204
 7847SOL    HW225696   6.357   7.394   3.241 -0.9890 -2.9351  0.7064
 7848SOL     OW25697   6.820   1.442   1.617  0.1859  0.6156 -0.8304
 7848SOL    HW125698   6.836   1.479   1.704  0.5671  1.8458 -1.4068
 7848SOL    HW225699   6.899   1.390   1.599  0.4588  1.0029 -0.7671
 7849SOL     OW25700   2.436   8.836   2.683  0.1434 -1.1327  0.1094
 7849SOL    HW125701   2.491   8.787   2.745 -0.4934  0.1353  1.7255
 7849SOL    HW225702   2.499   8.882   2.627  0.9145  1.6592  2.9986
 7850SOL     OW25703   3.743   6.380   4.117 -0.0331  0.4854  0.1679
 7850SOL    HW125704   3.784   6.295   4.135  0.4322  0.5694 -0.4755
 7850SOL    HW225705   3.673   6.360   4.056  0.7030  0.6840 -0.7664
 7851SOL     OW25706   1.307   2.621   9.630  0.1248 -0.6172 -0.3190
 7851SOL    HW125707   1.259   2.564   9.570 -0.2073  1.9616 -2.7348
 7851SOL    HW225708   1.240   2.675   9.672  0.5958  0.4703 -0.9007
 7852SOL     OW25709   3.108   2.698   5.648  0.3491 -0.0876 -0.1065
 7852SOL    HW125710   3.172   2.697   5.577  0.8756 -1.0840  0.3640
 7852SOL    HW225711   3.071   2.610   5.650  0.1720 -0.0084  0.7017
 7853SOL     OW25712   8.259   3.518   6.339 -0.1695 -0.1160  0.0008
 7853SOL    HW125713   8.240   3.426   6.323 -0.2529  0.0915 -1.2647
 7853SOL    HW225714   8.337   3.518   6.394  0.4961 -0.9414 -0.9066
 7854SOL     OW25715   5.469   3.008   2.196  0.9033  0.8766 -0.3000
 7854SOL    HW125716   5.455   2.984   2.288  1.5309 -1.3482 -0.7113
 7854SOL    HW225717   5.563   2.996   2.183  0.6680  0.0993 -1.4692
 7855SOL     OW25718   6.469   5.485   7.715  0.1023 -0.5878  0.3615
 7855SOL    HW125719   6.554   5.454   7.746  1.2152  0.6495 -1.2702
 7855SOL    HW225720   6.408   5.415   7.738  1.6611 -1.7938  1.0125
 7856SOL     OW25721   6.782   8.583   6.990 -0.0288 -0.0121  0.3028
 7856SOL    HW125722   6.710   8.645   6.995 -0.8975 -1.0139  0.4248
 7856SOL    HW225723   6.854   8.626   7.037  0.1595  1.8910 -1.5911
 7857SOL     OW25724   4.152   0.755   8.367 -0.2154 -0.2740 -0.5846
 7857SOL    HW125725   4.181   0.843   8.391 -0.3594 -0.3204 -0.2362
 7857SOL    HW225726   4.127   0.715   8.450 -2.8425  0.3218 -0.9997
 7858SOL     OW25727   6.717   0.716   3.338  0.1059  0.3784  0.4511
 7858SOL    HW125728   6.731   0.698   3.431 -1.6524  1.0039  0.8832
 7858SOL    HW225729   6.647   0.782   3.337 -1.3522 -1.0812 -1.3460
 7859SOL     OW25730   0.532   8.098   7.331  0.7063  0.9753 -0.1943
 7859SOL    HW125731   0.581   8.042   7.271 -0.1698 -1.1224  0.9628
 7859SOL    HW225732   0.564   8.074   7.418 -1.9596 -0.1198  0.5589
 7860SOL     OW25733   4.032   6.533   0.527  0.2129  0.1248 -0.0945
 7860SOL    HW125734   4.048   6.450   0.482  0.5419  1.1537 -2.0042
 7860SOL    HW225735   4.113   6.553   0.572  0.9252  0.4524 -1.4659
 7861SOL     OW25736   5.591   8.149   0.194 -0.3040 -0.4645 -0.0996
 7861SOL    HW125737   5.686   8.146   0.185 -0.2432  1.4358 -0.4214
 7861SOL    HW225738   5.576   8.170   0.286 -0.3962  0.1164 -0.2492
 7862SOL     OW25739   5.204   4.206   6.686  0.1412 -0.2356  0.2330
 7862SOL    HW125740   5.217   4.202   6.591 -1.1050  0.8879 -0.0170
 7862SOL    HW225741   5.109   4.208   6.697  0.2528 -0.9155  1.5546
 7863SOL     OW25742   4.998   5.520   9.024 -0.4788 -0.7244 -0.3354
 7863SOL    HW125743   4.975   5.599   8.975  2.4585 -0.3276 -1.2969
 7863SOL    HW225744   5.038   5.552   9.105  1.7443 -1.0933 -1.2152
 7864SOL     OW25745   4.622   4.928   0.537  0.5854 -0.5303  0.1910
 7864SOL    HW125746   4.649   4.995   0.600 -1.0581 -0.1125  0.5076
 7864SOL    HW225747   4.648   4.846   0.577 -0.5254 -0.2761  1.5190
 7865SOL     OW25748   2.690   4.437   8.078 -0.3460  0.6383 -0.4454
 7865SOL    HW125749   2.628   4.501   8.042 -0.4117  0.8478  0.0236
 7865SOL    HW225750   2.776   4.480   8.070 -0.5654  1.5024  1.3649
 7866SOL     OW25751   1.562   5.999   9.593 -0.3056 -0.3010  0.1036
 7866SOL    HW125752   1.638   6.020   9.538 -0.4121  0.1385  0.1145
 7866SOL    HW225753   1.488   6.034   9.544 -0.2539  1.5174  1.2408
 7867SOL     OW25754   4.568   5.873   2.731 -0.0168 -0.1502  0.7337
 7867SOL    HW125755   4.619   5.872   2.650 -1.0249  0.5814  0.0646
 7867SOL    HW225756   4.603   5.799   2.782  1.3540  0.0185  0.1034
 7868SOL     OW25757   4.500   0.431   5.089 -0.5320 -0.0560 -0.1184
 7868SOL    HW125758   4.469   0.489   5.020  1.2094  1.2051  0.1185
 7868SOL    HW225759   4.574   0.384   5.051 -0.7468 -0.7740  0.3099
 7869SOL     OW25760   8.404   5.904   6.290  0.0800  0.1174 -0.5529
 7869SOL    HW125761   8.321   5.867   6.258 -1.2745  0.9858  1.7163
 7869SOL    HW225762   8.387   5.998   6.297  0.9882  0.2204  0.6428
 7870SOL     OW25763   1.822   9.077   7.289 -0.4720  0.4211 -0.2291
 7870SOL    HW125764   1.741   9.075   7.340 -1.0016  0.8260 -1.0360
 7870SOL    HW225765   1.845   9.170   7.284 -0.0578  0.3236 -0.1700
 7871SOL     OW25766   6.615   6.808   1.253  0.6771  0.2013 -0.1778
 7871SOL    HW125767   6.549   6.760   1.203 -0.5501  1.3937  0.2278
 7871SOL    HW225768   6.591   6.794   1.345  1.5167 -0.0406  0.0194
 7872SOL     OW25769   7.213   2.581   6.857 -0.2913 -0.4234 -0.0242
 7872SOL    HW125770   7.285   2.564   6.796  1.4455 -0.7734  1.9876
 7872SOL    HW225771   7.239   2.661   6.903 -1.0451 -0.7051  0.9301
 7873SOL     OW25772   0.711   4.524   1.697 -0.1051 -0.2435 -0.0340
 7873SOL    HW125773   0.698   4.619   1.691  0.5273 -0.2320 -2.2313
 7873SOL    HW225774   0.733   4.497   1.608 -0.9181 -2.5784  0.3921
 7874SOL     OW25775   9.586   4.072   8.218 -0.2065  0.0712 -0.4246
 7874SOL    HW125776   9.600   4.158   8.259  1.2665 -1.7327  3.3244
 7874SOL    HW225777   9.504   4.041   8.257 -1.2047  0.0671 -2.4354
 7875SOL     OW25778   9.581   5.593   2.256  0.3051  0.3141  0.5915
 7875SOL    HW125779   9.589   5.656   2.328  1.0423 -0.0769  0.8640
 7875SOL    HW225780   9.636   5.519   2.283 -1.1067 -0.7618  0.6116
 7876SOL     OW25781   0.796   4.616   4.141 -0.2074 -0.0816 -0.5452
 7876SOL    HW125782   0.795   4.561   4.063  0.3450 -1.7505  0.5687
 7876SOL    HW225783   0.860   4.684   4.121  1.6427 -1.7826 -0.7638
 7877SOL     OW25784   0.004   1.142   4.976 -0.5554  0.2063  0.0979
 7877SOL    HW125785   0.057   1.077   5.022 -0.2827  0.8492  0.7062
 7877SOL    HW225786  -0.073   1.155   5.031 -0.2894  0.8863  0.3232
 7878SOL     OW25787   8.681   0.213   3.549 -0.4776  0.5020 -0.3295
 7878SOL    HW125788   8.690   0.183   3.459  1.4592 -0.1928  0.0467
 7878SOL    HW225789   8.694   0.308   3.544  4.5888  0.0365 -0.3463
 7879SOL     OW25790   7.490   8.390   4.327 -0.5451  0.1716  0.2519
 7879SOL    HW125791   7.526   8.307   4.295 -0.3457  0.5882 -0.6244
 7879SOL    HW225792   7.566   8.435   4.365 -0.2543  0.7432 -0.9563
 7880SOL     OW25793   7.653   9.190   9.303  0.4255 -0.4131 -0.4447
 7880SOL    HW125794   7.728   9.151   9.259 -1.3626 -2.1180 -2.2196
 7880SOL    HW225795   7.589   9.204   9.232 -0.9846  0.8529  1.0016
 7881SOL     OW25796   9.526   8.016   9.233  0.1442  0.4331 -0.3381
 7881SOL    HW125797   9.486   8.036   9.318 -1.4939 -2.2497 -0.3329
 7881SOL    HW225798   9.597   7.955   9.254 -1.0823 -1.2753 -0.8873
 7882SOL     OW25799   6.617   2.811   2.754 -0.0499  0.3989 -0.1111
 7882SOL    HW125800   6.620   2.756   2.833 -0.0600 -2.8302 -2.1887
 7882SOL    HW225801   6.674   2.767   2.691 -1.4287  1.8237 -2.5161
 7883SOL     OW25802   4.930   2.153   8.100 -0.2710  0.4313  0.9863
 7883SOL    HW125803   4.899   2.066   8.122 -1.2961 -0.4050 -2.9040
 7883SOL    HW225804   5.015   2.161   8.144 -0.3907 -2.2888  1.8622
 7884SOL     OW25805   9.093   9.144   6.751  0.4704  0.0792  0.8667
 7884SOL    HW125806   9.147   9.167   6.675 -2.5968  0.4806 -1.3568
 7884SOL    HW225807   9.082   9.049   6.745 -1.0130  0.2875 -0.1596
 7885SOL     OW25808   9.164   2.520   0.210  0.1924 -0.0294  0.0290
 7885SOL    HW125809   9.169   2.599   0.156 -3.3980  0.3616  0.0430
 7885SOL    HW225810   9.140   2.551   0.297  1.1926 -0.9972  0.6744
 7886SOL     OW25811   5.491   2.418   6.069  0.0198  0.3763  0.0103
 7886SOL    HW125812   5.476   2.326   6.090  0.2708  0.5458  0.9601
 7886SOL    HW225813   5.519   2.458   6.151 -0.0380  1.2967 -0.3990
 7887SOL     OW25814   8.461   5.195   4.542  0.3711  0.6753 -0.4082
 7887SOL    HW125815   8.382   5.141   4.539  0.1704  0.8517  1.1367
 7887SOL    HW225816   8.441   5.270   4.487 -0.6425  0.8472  0.1798
 7888SOL     OW25817   4.607   2.426   5.502 -0.3128  0.4124  0.1711
 7888SOL    HW125818   4.619   2.448   5.409  1.3993  0.9515  0.4791
 7888SOL    HW225819   4.638   2.336   5.508  1.9310  1.1505  0.6043
 7889SOL     OW25820   1.500   6.143   9.009  0.2944 -0.4255 -0.8410
 7889SOL    HW125821   1.586   6.137   9.052  0.3039  1.0828 -0.5973
 7889SOL    HW225822   1.493   6.061   8.960  2.1355 -0.3420 -1.3402
 7890SOL     OW25823   4.457   5.520   6.690 -0.3823  0.1198  0.3076
 7890SOL    HW125824   4.402   5.543   6.765 -0.7088 -0.8665  0.3812
 7890SOL    HW225825   4.468   5.425   6.696  0.6436  0.1940 -0.1779
 7891SOL     OW25826   9.084   8.282   0.297  0.3462  0.3260 -0.5501
 7891SOL    HW125827   9.152   8.349   0.302  1.6181 -0.9816  0.4975
 7891SOL    HW225828   9.030   8.297   0.375  1.2960 -0.5301  0.2900
 7892SOL     OW25829   8.716   8.681   9.123 -0.6221  0.1758  0.0590
 7892SOL    HW125830   8.748   8.742   9.188  0.1955 -0.5302  0.3360
 7892SOL    HW225831   8.670   8.614   9.173 -0.4041 -0.1155 -0.1253
 7893SOL     OW25832   6.412   6.876   4.380 -0.3416  0.5944  0.0585
 7893SOL    HW125833   6.366   6.866   4.463 -0.8298  1.7334 -0.0565
 7893SOL    HW225834   6.494   6.920   4.404 -0.1585  0.2784  0.0199
 7894SOL     OW25835   3.957   3.115   5.767 -0.0729  0.1679 -0.0171
 7894SOL    HW125836   3.958   3.088   5.858  2.7936 -0.3695 -0.1143
 7894SOL    HW225837   3.939   3.035   5.718  0.0438  0.1218  0.0149
 7895SOL     OW25838   4.477   1.415   5.111 -0.4400  0.0887  0.1255
 7895SOL    HW125839   4.401   1.412   5.170 -0.3330  3.2106  0.6198
 7895SOL    HW225840   4.505   1.324   5.103 -4.3890 -1.2851 -0.3595
 7896SOL     OW25841   0.405   7.540   0.782  0.0748  0.0408 -0.7083
 7896SOL    HW125842   0.346   7.470   0.811 -0.5208  0.6068 -0.5199
 7896SOL    HW225843   0.408   7.531   0.687 -0.8388  0.4070 -0.7807
 7897SOL     OW25844   6.446   2.269   0.402 -0.2417  0.2803  0.0965
 7897SOL    HW125845   6.431   2.217   0.323  0.4254 -0.3595  0.3846
 7897SOL    HW225846   6.532   2.241   0.433 -1.2483 -0.8356  2.0809
 7898SOL     OW25847   8.660   9.412   9.330  0.4487  0.2936 -0.2483
 7898SOL    HW125848   8.603   9.445   9.400 -0.4193 -0.4145 -0.5993
 7898SOL    HW225849   8.675   9.320   9.353  0.0120  0.0072 -1.0746
 7899SOL     OW25850   5.908   3.065   3.215  0.1649  0.4283  0.1118
 7899SOL    HW125851   5.908   3.156   3.187 -5.2908  0.6870 -0.1057
 7899SOL    HW225852   5.912   3.069   3.310 -0.8383  1.0552  0.1496
 7900SOL     OW25853   3.787   6.964   5.812 -0.1591 -0.3062  0.0798
 7900SOL    HW125854   3.882   6.954   5.801  0.4193  2.7553  1.3863
 7900SOL    HW225855   3.761   6.887   5.862  1.5309 -1.3928 -0.5851
 7901SOL     OW25856   0.295   1.721   8.774 -0.0326 -0.0539 -0.3120
 7901SOL    HW125857   0.211   1.765   8.782 -0.3485 -0.6391 -0.3248
 7901SOL    HW225858   0.294   1.654   8.842  0.0213 -0.6915 -0.9271
 7902SOL     OW25859   5.644   8.679   5.978 -0.3007  0.4334 -0.2763
 7902SOL    HW125860   5.584   8.675   6.052 -0.2074  1.2511 -0.1563
 7902SOL    HW225861   5.676   8.589   5.969  0.8610  0.5917  1.6665
 7903SOL     OW25862   6.422   8.985   5.172 -0.0217 -0.1863 -0.3696
 7903SOL    HW125863   6.348   9.027   5.128 -0.7368 -0.8083  0.2041
 7903SOL    HW225864   6.461   9.054   5.226 -0.5415  0.0117 -0.2422
 7904SOL     OW25865   8.694   7.924   8.489  0.2391  0.2102  0.1785
 7904SOL    HW125866   8.686   7.841   8.443 -2.0788  0.3880  0.1488
 7904SOL    HW225867   8.644   7.986   8.436 -2.4571  0.4447  2.7418
 7905SOL     OW25868   0.471   3.521   1.018 -0.3057 -0.6905 -0.0221
 7905SOL    HW125869   0.561   3.548   1.034  0.3044 -1.7529 -1.4953
 7905SOL    HW225870   0.469   3.429   1.043 -0.4627 -1.1866 -1.7694
 7906SOL     OW25871   1.386   1.009   5.691 -0.0543 -0.2663  0.3747
 7906SOL    HW125872   1.379   0.956   5.611 -0.4920 -0.8767  0.8063
 7906SOL    HW225873   1.296   1.022   5.719  0.0340  0.9072  0.1671
 7907SOL     OW25874   9.249   4.682   3.572 -0.8658 -0.3980  0.0363
 7907SOL    HW125875   9.295   4.692   3.655 -0.5330 -0.3686 -0.1483
 7907SOL    HW225876   9.207   4.767   3.558  0.7229  0.2975 -0.7924
 7908SOL     OW25877   4.725   0.262   5.583 -0.0184  0.2902 -0.5652
 7908SOL    HW125878   4.722   0.324   5.655  0.4998 -0.5806  0.2282
 7908SOL    HW225879   4.790   0.198   5.609 -0.0752 -0.2364 -1.6559
 7909SOL     OW25880   3.884   8.439   4.635 -0.6053  0.4816  0.2176
 7909SOL    HW125881   3.875   8.532   4.616  0.4070  0.1827 -1.9774
 7909SOL    HW225882   3.911   8.399   4.553 -0.2344 -1.6632  1.2872
 7910SOL     OW25883   7.875   1.562   7.112  0.0052 -0.3149  0.2110
 7910SOL    HW125884   7.787   1.568   7.149 -0.7627  1.4296 -1.7272
 7910SOL    HW225885   7.924   1.632   7.155 -0.6711  1.2031 -1.3788
 7911SOL     OW25886   8.031   7.503   8.331  0.0008 -0.0610  0.3217
 7911SOL    HW125887   7.969   7.499   8.258  0.4565 -2.1122 -0.0338
 7911SOL    HW225888   8.098   7.565   8.302 -0.7845  0.5732 -0.1882
 7912SOL     OW25889   2.120   3.739   2.201  0.0603  0.0143  0.5709
 7912SOL    HW125890   2.127   3.714   2.108  1.6855 -0.0526  0.6937
 7912SOL    HW225891   2.205   3.719   2.238 -0.3108  0.8012  1.9162
 7913SOL     OW25892   4.668   8.235   1.984 -0.2832  0.1500  0.0340
 7913SOL    HW125893   4.650   8.329   1.996 -2.0401 -0.1866  0.3159
 7913SOL    HW225894   4.582   8.194   1.981  0.4621 -1.5600  0.6223
 7914SOL     OW25895   4.691   7.151   3.077 -0.1636 -0.2883 -0.0327
 7914SOL    HW125896   4.637   7.096   3.135  0.2288 -0.7084 -0.0624
 7914SOL    HW225897   4.633   7.171   3.003 -0.3102 -0.6727 -0.0274
 7915SOL     OW25898   3.132   3.429   7.058  0.3280  0.2623  0.0047
 7915SOL    HW125899   3.128   3.399   7.149  0.0108  2.2270  0.6727
 7915SOL    HW225900   3.044   3.412   7.024  0.1543  0.4253  0.3694
 7916SOL     OW25901   4.101   3.186   7.755  0.2849 -0.0400 -0.1393
 7916SOL    HW125902   4.190   3.177   7.790 -0.1686 -0.6057  0.9242
 7916SOL    HW225903   4.066   3.263   7.799 -0.1317 -0.4847  0.3193
 7917SOL     OW25904   1.870   7.510   5.690 -0.3658  0.1730 -0.3641
 7917SOL    HW125905   1.947   7.553   5.653 -1.2382  1.2892 -0.9372
 7917SOL    HW225906   1.823   7.477   5.614  0.2633 -1.8397  0.0565
 7918SOL     OW25907   1.175   5.793   1.599 -0.5855 -0.0037 -0.1009
 7918SOL    HW125908   1.221   5.746   1.668 -1.9123  0.4541  1.1364
 7918SOL    HW225909   1.231   5.783   1.522  0.2350 -1.7291  0.6665
 7919SOL     OW25910   2.701   5.414   3.676 -0.3616  0.0044  0.3702
 7919SOL    HW125911   2.714   5.419   3.770 -0.7781 -1.6143  0.5471
 7919SOL    HW225912   2.650   5.333   3.663 -0.0161  0.0138 -1.2604
 7920SOL     OW25913   8.613   5.055   2.132  0.0740 -0.0782 -0.9250
 7920SOL    HW125914   8.685   5.011   2.178 -0.7014 -1.5882 -1.0904
 7920SOL    HW225915   8.534   5.015   2.168 -0.7714  2.2454 -0.0219
 7921SOL     OW25916   8.790   0.962   0.987  0.8682 -0.0534 -0.4857
 7921SOL    HW125917   8.863   1.013   0.953  1.8852  0.4164  2.1040
 7921SOL    HW225918   8.720   0.974   0.924  2.5830  0.6185 -2.3697
 7922SOL     OW25919   8.365   2.698   4.387 -0.0940  0.2226 -0.3638
 7922SOL    HW125920   8.330   2.618   4.426 -1.1062  0.9797  0.3538
 7922SOL    HW225921   8.405   2.669   4.305 -4.7119 -0.5080 -2.7019
 7923SOL     OW25922   8.013   7.263   2.375  0.2410 -0.3609  0.0691
 7923SOL    HW125923   7.952   7.299   2.440  1.6064  0.2849  1.0510
 7923SOL    HW225924   8.036   7.338   2.320  0.6191 -0.4522  0.0986
 7924SOL     OW25925   5.633   7.793   4.707  0.4728  0.3907  0.2849
 7924SOL    HW125926   5.680   7.720   4.668 -0.0850  0.2685 -0.1567
 7924SOL    HW225927   5.547   7.793   4.666  0.9242  2.1578 -0.7789
 7925SOL     OW25928   7.400   4.049   7.316 -0.4665 -0.5048  0.7945
 7925SOL    HW125929   7.318   4.095   7.334 -1.3593 -1.6993 -0.0201
 7925SOL    HW225930   7.374   3.974   7.262  1.2408 -0.5977  0.0217
 7926SOL     OW25931   0.910   3.458   0.161  0.3736 -0.1308 -0.1352
 7926SOL    HW125932   0.883   3.366   0.159  1.6082 -0.5118 -1.0711
 7926SOL    HW225933   0.911   3.484   0.069  0.3229  0.7335  0.1045
 7927SOL     OW25934   6.494   5.592   4.279  0.1092 -0.2232 -0.0458
 7927SOL    HW125935   6.410   5.637   4.284 -0.1254 -0.6802  0.2148
 7927SOL    HW225936   6.503   5.568   4.187  0.2052  0.2990 -0.1720
 7928SOL     OW25937   9.610   4.588   1.241 -0.2879 -0.4351  0.2034
 7928SOL    HW125938   9.617   4.676   1.202 -0.0796 -0.0891  0.9882
 7928SOL    HW225939   9.699   4.568   1.270 -0.3454 -0.8927  0.0693
 7929SOL     OW25940   3.870   8.342   5.617  0.1938  0.0418 -0.1007
 7929SOL    HW125941   3.852   8.290   5.539  0.8224  0.2989 -0.4270
 7929SOL    HW225942   3.819   8.300   5.686 -0.5449 -0.0559 -0.6954
 7930SOL     OW25943   3.061   2.209   1.101 -0.1771 -0.0708 -0.5398
 7930SOL    HW125944   3.111   2.137   1.139  0.2119  0.9251  0.9383
 7930SOL    HW225945   3.066   2.279   1.167 -3.0066  0.2912 -0.5919
 7931SOL     OW25946   1.747   8.812   9.341  0.1026 -0.1661  0.5099
 7931SOL    HW125947   1.725   8.904   9.327  0.3613  0.2163  2.4153
 7931SOL    HW225948   1.716   8.768   9.261  0.5868  1.6359 -0.7429
 7932SOL     OW25949   2.849   7.560   8.341 -0.8197 -0.0154 -0.3203
 7932SOL    HW125950   2.816   7.522   8.260  1.2582 -2.2135 -0.2549
 7932SOL    HW225951   2.912   7.626   8.313 -0.2916 -0.5934 -0.5102
 7933SOL     OW25952   0.205   1.634   0.103 -0.3083  0.1353  0.1741
 7933SOL    HW125953   0.233   1.667   0.018 -1.0733  1.3338  0.3616
 7933SOL    HW225954   0.127   1.581   0.084  0.4246 -0.9153 -0.0253
 7934SOL     OW25955   6.530   6.034   1.348  0.3618  0.5880  0.1007
 7934SOL    HW125956   6.621   6.015   1.326 -0.0969 -1.5127 -0.1393
 7934SOL    HW225957   6.490   6.060   1.265 -0.0131 -1.8194 -0.5508
 7935SOL     OW25958   1.349   4.784   1.388 -0.0359 -0.2419  0.2092
 7935SOL    HW125959   1.434   4.788   1.343 -0.5335 -1.1975 -0.8447
 7935SOL    HW225960   1.364   4.831   1.470  0.6142  2.4616 -1.3437
 7936SOL     OW25961   3.669   3.036   2.203  0.0501  0.7175 -0.4741
 7936SOL    HW125962   3.691   3.045   2.295 -2.1080 -0.5049  0.2506
 7936SOL    HW225963   3.744   2.991   2.164  1.3656  2.0174  0.4602
 7937SOL     OW25964   7.193   9.454   7.474  0.1643 -0.2722 -0.1212
 7937SOL    HW125965   7.193   9.541   7.515 -1.8983 -0.6832  0.8478
 7937SOL    HW225966   7.222   9.471   7.384 -1.4470  1.6563 -0.3541
 7938SOL     OW25967   4.301   0.422   7.825 -0.3720 -0.7525  0.1959
 7938SOL    HW125968   4.209   0.398   7.835 -0.1499 -1.6865  0.0852
 7938SOL    HW225969   4.307   0.458   7.737 -0.8251  0.2997  0.5732
 7939SOL     OW25970   8.288   8.958   2.173 -0.1001  0.1233 -0.0005
 7939SOL    HW125971   8.240   8.875   2.171 -0.8213  0.5186 -2.7350
 7939SOL    HW225972   8.377   8.933   2.198 -0.9342 -1.0317  2.0860
 7940SOL     OW25973   6.750   0.015   3.634 -0.1037 -0.2725 -1.2716
 7940SOL    HW125974   6.700   0.087   3.597  1.4212  2.1365  0.9863
 7940SOL    HW225975   6.841   0.033   3.610  0.4206 -0.8439  0.1277
 7941SOL     OW25976   1.607   8.575   5.041 -0.2960  0.3497  0.2056
 7941SOL    HW125977   1.629   8.495   4.994  0.0034 -0.2384  1.3087
 7941SOL    HW225978   1.564   8.545   5.121  1.2074  1.1747  1.3969
 7942SOL     OW25979   1.573   8.755   0.446 -0.6413  0.3693  0.1282
 7942SOL    HW125980   1.587   8.816   0.518 -0.1929  1.1435 -0.5933
 7942SOL    HW225981   1.662   8.727   0.421 -0.7358  0.7525 -0.6583
 7943SOL     OW25982   2.106   5.108   8.932  0.0791 -0.1528 -0.4449
 7943SOL    HW125983   2.129   5.024   8.892 -1.2313 -0.5770 -0.3407
 7943SOL    HW225984   2.013   5.102   8.950 -0.0706  1.3832 -0.5362
 7944SOL     OW25985   9.604   3.419   5.659  0.4673  0.1179  0.1101
 7944SOL    HW125986   9.571   3.396   5.746  1.0064 -2.4501 -0.2942
 7944SOL    HW225987   9.578   3.347   5.603  1.1087  1.1851 -1.6443
 7945SOL     OW25988   1.499   2.459   8.303 -0.1041  0.5012  0.1966
 7945SOL    HW125989   1.492   2.554   8.314  0.5324  0.6397 -0.4721
 7945SOL    HW225990   1.505   2.425   8.392  0.8105  1.1975  0.4228
 7946SOL     OW25991   7.004   9.284   6.428 -0.5441  0.6776  0.4980
 7946SOL    HW125992   6.989   9.245   6.514  1.6165 -2.3101 -0.3219
 7946SOL    HW225993   6.930   9.253   6.375  0.0580 -0.6779  0.4022
 7947SOL     OW25994   6.868   8.772   6.182 -0.0057 -0.4648 -0.4443
 7947SOL    HW125995   6.858   8.845   6.120 -0.2970  0.9934  1.2424
 7947SOL    HW225996   6.961   8.748   6.176  0.5362  1.2869  0.2581
 7948SOL     OW25997   0.582   3.032   0.443  0.0958  0.0177 -0.0921
 7948SOL    HW125998   0.495   3.070   0.454 -0.3010 -0.8150 -0.2156
 7948SOL    HW225999   0.643   3.105   0.453 -0.5871  0.4932  0.6243
 7949SOL     OW26000   3.232   0.489   6.081  0.3049 -0.7019  0.4029
 7949SOL    HW126001   3.277   0.441   6.011  1.7434  0.9538  0.1323
 7949SOL    HW226002   3.209   0.421   6.145 -0.4193 -2.1627 -1.3124
 7950SOL     OW26003   4.129   5.572   4.163 -0.3742  0.2087  0.2892
 7950SOL    HW126004   4.045   5.546   4.125 -0.7776  1.5332  0.2180
 7950SOL    HW226005   4.162   5.640   4.104  0.9694 -0.5967  0.0756
 7951SOL     OW26006   4.158   2.538   1.015 -0.1743 -0.2120  0.1289
 7951SOL    HW126007   4.121   2.579   1.094  0.4093 -1.7906  1.2778
 7951SOL    HW226008   4.086   2.485   0.981  0.1299 -1.0168  0.7098
 7952SOL     OW26009   9.020   0.809   2.620  0.2673  0.2323  0.4574
 7952SOL    HW126010   9.116   0.816   2.615  0.2700  1.5741  1.7185
 7952SOL    HW226011   8.988   0.892   2.587 -0.2664  1.3462  3.4342
 7953SOL     OW26012   6.442   1.939   1.212 -0.0663 -0.8454  0.7555
 7953SOL    HW126013   6.505   1.953   1.283 -0.2300  2.4121  0.3909
 7953SOL    HW226014   6.497   1.923   1.135  0.2636 -0.0795  0.8248
 7954SOL     OW26015   1.153   1.332   7.859 -0.3757  0.3331  0.0510
 7954SOL    HW126016   1.102   1.347   7.779 -0.0894 -2.1425 -0.6829
 7954SOL    HW226017   1.206   1.254   7.839  1.9448  1.3869  1.6156
 7955SOL     OW26018   7.742   4.507   3.703 -0.7484 -0.3009 -0.4406
 7955SOL    HW126019   7.764   4.529   3.793  0.6253 -0.0816 -0.7954
 7955SOL    HW226020   7.749   4.412   3.699  0.7158 -0.2088 -0.6522
 7956SOL     OW26021   3.411   8.323   8.206 -0.1266 -0.2460  0.0275
 7956SOL    HW126022   3.504   8.339   8.221 -0.3546  0.8511  0.3778
 7956SOL    HW226023   3.379   8.404   8.165 -0.8145 -0.8152 -0.6028
 7957SOL     OW26024   6.408   6.699   0.462 -0.0687 -0.1917  0.3073
 7957SOL    HW126025   6.450   6.755   0.526 -1.0947 -0.7449  1.4939
 7957SOL    HW226026   6.315   6.720   0.468 -0.1311  0.1726 -1.4378
 7958SOL     OW26027   9.557   2.702   7.131  0.3634 -0.7128  0.0346
 7958SOL    HW126028   9.643   2.742   7.142 -0.0133  0.2745 -0.5532
 7958SOL    HW226029   9.545   2.651   7.211  0.5550  0.9085  1.1461
 7959SOL     OW26030   9.127   3.100   0.711 -0.0948  0.2625  0.0378
 7959SOL    HW126031   9.158   3.014   0.739 -0.1581  0.2148 -0.0350
 7959SOL    HW226032   9.117   3.150   0.792  0.5063  0.3945  0.0373
 7960SOL     OW26033   4.793   6.216   3.375  0.2570  0.5288  0.1300
 7960SOL    HW126034   4.874   6.218   3.324  0.4496  0.7194  0.4403
 7960SOL    HW226035   4.804   6.141   3.433 -0.5766 -0.5854 -1.0979
 7961SOL     OW26036   7.695   1.578   2.002  0.0266  0.3781  0.3371
 7961SOL    HW126037   7.760   1.617   2.061  0.1348 -0.0479  0.5029
 7961SOL    HW226038   7.648   1.653   1.965  2.0066  0.8542 -1.4218
 7962SOL     OW26039   4.652   8.301   9.378  0.6555 -0.1420  0.0509
 7962SOL    HW126040   4.691   8.388   9.378  1.5154 -0.5116 -0.7355
 7962SOL    HW226041   4.652   8.275   9.470  1.8286  0.0650  0.1242
 7963SOL     OW26042   4.461   7.151   7.565 -1.0723  0.1870  0.5637
 7963SOL    HW126043   4.521   7.158   7.639 -0.3995 -1.3921  0.2115
 7963SOL    HW226044   4.513   7.179   7.490 -0.8888 -0.8020  0.3148
 7964SOL     OW26045   7.845   1.055   4.680 -0.0037  0.4564  0.6661
 7964SOL    HW126046   7.912   1.003   4.723 -1.0875 -0.3514  1.4384
 7964SOL    HW226047   7.764   1.034   4.728 -0.9879  0.6236 -0.8629
 7965SOL     OW26048   0.822   7.016   5.876 -0.4768  0.2211 -0.1936
 7965SOL    HW126049   0.909   7.021   5.835  0.0269  1.1105  0.9170
 7965SOL    HW226050   0.761   7.007   5.802  0.5705 -0.6610 -0.9758
 7966SOL     OW26051   7.438   1.016   5.262 -0.6323  0.1411 -0.4727
 7966SOL    HW126052   7.430   1.102   5.221 -0.2321 -0.0407 -0.9437
 7966SOL    HW226053   7.455   1.036   5.354  0.0533  0.5870 -0.6832
 7967SOL     OW26054   8.344   4.840   1.076 -0.0896  0.1466 -0.1125
 7967SOL    HW126055   8.365   4.934   1.074 -0.9365  0.3335 -0.9916
 7967SOL    HW226056   8.416   4.801   1.124 -0.2173  1.3733  1.1375
 7968SOL     OW26057   5.182   3.766   4.765  0.2726 -0.6603  0.2135
 7968SOL    HW126058   5.219   3.845   4.802 -1.1525  0.2487 -0.2224
 7968SOL    HW226059   5.196   3.699   4.832  0.6844  0.1680  0.9678
 7969SOL     OW26060   2.457   5.191   8.393  0.0628  0.2097  1.1902
 7969SOL    HW126061   2.511   5.147   8.327 -0.5568 -0.7004  1.2752
 7969SOL    HW226062   2.388   5.128   8.412 -1.0685  1.3819  1.0452
 7970SOL     OW26063   1.054   2.714   7.691 -0.2059 -0.2245  0.0980
 7970SOL    HW126064   1.029   2.734   7.781 -1.2998  3.2695 -0.8457
 7970SOL    HW226065   1.130   2.769   7.674  0.3128 -1.2283 -0.9940
 7971SOL     OW26066   7.166   8.181   1.968  0.8791 -0.0839  0.2990
 7971SOL    HW126067   7.173   8.095   2.009  0.4855 -0.5111 -0.5140
 7971SOL    HW226068   7.247   8.190   1.918  0.6072 -0.2970 -0.1902
 7972SOL     OW26069   4.417   6.673   1.409 -0.5577  0.3099 -0.3773
 7972SOL    HW126070   4.434   6.593   1.359  1.5877 -0.5009  1.4595
 7972SOL    HW226071   4.424   6.744   1.345  3.4888 -0.5600 -1.1413
 7973SOL     OW26072   8.473   7.781   7.658 -0.0610  0.2539  0.5276
 7973SOL    HW126073   8.478   7.823   7.743 -1.8983  1.3682  0.1440
 7973SOL    HW226074   8.513   7.843   7.597 -0.6068  0.3872  0.2972
 7974SOL     OW26075   1.470   1.306   5.487  0.2375  0.4095 -0.0363
 7974SOL    HW126076   1.398   1.253   5.452  0.0565 -0.0393  0.9832
 7974SOL    HW226077   1.435   1.395   5.489 -0.2204  0.2245  0.2739
 7975SOL     OW26078   1.013   2.435   7.737 -0.2782 -0.7463 -0.5520
 7975SOL    HW126079   0.930   2.392   7.716 -1.6531  1.2291  0.5458
 7975SOL    HW226080   1.005   2.522   7.699  2.1778 -1.1469 -2.1795
 7976SOL     OW26081   4.105   2.732   3.962  0.0264 -0.4170  0.0022
 7976SOL    HW126082   4.143   2.820   3.960  0.6578 -0.6509  1.1037
 7976SOL    HW226083   4.048   2.729   3.885 -1.2000  1.4816  0.7550
 7977SOL     OW26084   2.918   9.437   2.207 -0.0868 -0.4167 -0.1884
 7977SOL    HW126085   2.958   9.519   2.235  2.8858 -1.0818 -2.0153
 7977SOL    HW226086   2.903   9.389   2.288  1.2781  0.6266  0.7328
 7978SOL     OW26087   2.796   2.679   0.762  0.8215  0.3825  0.1259
 7978SOL    HW126088   2.716   2.698   0.712  1.0946  1.4295  0.0714
 7978SOL    HW226089   2.825   2.594   0.728 -0.0315  0.1889 -0.1536
 7979SOL     OW26090   8.045   4.152   7.258 -0.0381 -0.2454 -0.3242
 7979SOL    HW126091   8.057   4.090   7.186  0.8314 -0.9579  0.4115
 7979SOL    HW226092   8.122   4.208   7.254 -0.2142  0.0039 -0.2235
 7980SOL     OW26093   9.577   0.961   6.794  0.3310  0.7604 -0.1143
 7980SOL    HW126094   9.588   0.910   6.713  0.4708 -0.9270  0.9278
 7980SOL    HW226095   9.573   1.052   6.764  1.0147  0.2316 -1.9678
 7981SOL     OW26096   6.263   3.463   2.945  0.0762  0.0176 -0.6575
 7981SOL    HW126097   6.308   3.460   2.860 -1.0193  0.5993 -1.2768
 7981SOL    HW226098   6.291   3.383   2.990  1.6914  0.3336 -1.0275
 7982SOL     OW26099   8.026   3.639   9.025  0.3931  0.2824  0.1264
 7982SOL    HW126100   7.972   3.698   9.077 -0.2061 -0.2928  0.1702
 7982SOL    HW226101   7.966   3.602   8.960  0.9339  0.3138 -0.4026
 7983SOL     OW26102   0.434   2.900   7.371 -0.2665 -0.0069 -0.3978
 7983SOL    HW126103   0.484   2.818   7.373  0.0583  0.2037  0.3675
 7983SOL    HW226104   0.492   2.962   7.326 -0.6495 -0.2782 -1.2813
 7984SOL     OW26105   1.134   4.798   0.201 -0.0449 -0.1926  0.5713
 7984SOL    HW126106   1.207   4.828   0.254 -0.7801  0.1168  1.4318
 7984SOL    HW226107   1.138   4.702   0.207  0.1284 -0.1691  0.8322
 7985SOL     OW26108   3.817   0.131   7.285 -0.5087 -0.5803 -0.9484
 7985SOL    HW126109   3.844   0.174   7.367  1.0386  0.6763 -2.0608
 7985SOL    HW226110   3.731   0.095   7.305 -0.3775  0.0949  1.1005
 7986SOL     OW26111   9.418   0.013   9.432 -0.5748 -0.0037 -0.0100
 7986SOL    HW126112   9.325   0.037   9.437 -0.2942  0.7953  2.0731
 7986SOL    HW226113   9.456   0.078   9.373 -1.0805  0.5101  0.2222
 7987SOL     OW26114   6.148   2.845   5.247 -0.0604  0.0426  0.6857
 7987SOL    HW126115   6.176   2.927   5.289  0.8673 -0.2345  0.6261
 7987SOL    HW226116   6.071   2.870   5.196  0.5299  1.0054  0.2262
 7988SOL     OW26117   5.733   4.362   4.975 -0.3320  0.1620  0.0065
 7988SOL    HW126118   5.715   4.270   4.962  0.2698  0.0518 -0.0916
 7988SOL    HW226119   5.823   4.364   5.009 -0.2928  0.7143 -0.1192
 7989SOL     OW26120   8.054   3.608   5.024 -0.0998  0.5093  0.6243
 7989SOL    HW126121   8.121   3.540   5.027  1.1772  1.6911  0.1684
 7989SOL    HW226122   7.999   3.591   5.101  0.2379 -0.9551  0.5737
 7990SOL     OW26123   3.153   4.856   3.230 -0.0735  0.1283  0.2857
 7990SOL    HW126124   3.149   4.876   3.137 -0.0369 -2.2332 -0.2970
 7990SOL    HW226125   3.246   4.863   3.253 -0.1316  1.0578  0.2391
 7991SOL     OW26126   2.649   8.591   1.437 -0.2432  0.2325 -0.3574
 7991SOL    HW126127   2.566   8.586   1.390  0.4557 -0.2931 -1.5793
 7991SOL    HW226128   2.707   8.642   1.379  1.4853 -2.7537 -1.4727
 7992SOL     OW26129   7.225   6.990   4.801 -0.3310  0.1760 -0.3219
 7992SOL    HW126130   7.313   7.026   4.815  0.7313 -2.9137  2.3521
 7992SOL    HW226131   7.240   6.909   4.752 -1.8887  0.3046 -1.0681
 7993SOL     OW26132   4.412   0.142   1.477 -0.0370 -0.1239  0.3006
 7993SOL    HW126133   4.416   0.181   1.564  1.5369  0.1323  0.1418
 7993SOL    HW226134   4.329   0.095   1.475 -0.2930  0.2381  1.7750
 7994SOL     OW26135   5.585   6.623   8.456  0.2648  0.1410  0.0633
 7994SOL    HW126136   5.515   6.613   8.520  0.3679 -2.2174 -0.1104
 7994SOL    HW226137   5.654   6.671   8.503 -1.0473  1.6252  0.5345
 7995SOL     OW26138   7.313   0.033   4.619 -0.0206  0.2566 -0.4695
 7995SOL    HW126139   7.317   0.113   4.567 -0.3294 -0.1394 -1.1094
 7995SOL    HW226140   7.228  -0.006   4.597 -0.4225  0.3896  0.7884
 7996SOL     OW26141   2.287   7.328   8.319  0.3865 -0.1959 -0.5090
 7996SOL    HW126142   2.302   7.264   8.249  1.1825 -2.0077  1.2305
 7996SOL    HW226143   2.251   7.404   8.274  0.5636 -1.3986 -2.8422
 7997SOL     OW26144   1.145   4.983   8.175  0.6616  0.4261 -0.5073
 7997SOL    HW126145   1.213   4.952   8.115  0.1739  1.2212 -1.5016
 7997SOL    HW226146   1.066   4.935   8.149  1.1419 -1.8562  1.8024
 7998SOL     OW26147   4.829   6.459   7.357 -0.3739  0.0412  0.2857
 7998SOL    HW126148   4.772   6.537   7.352  0.8352  0.9000 -0.5815
 7998SOL    HW226149   4.864   6.450   7.269  0.8738 -0.4422  0.8207
 7999SOL     OW26150   0.526   0.335   0.992  0.4679 -0.5891 -0.2139
 7999SOL    HW126151   0.488   0.310   0.908 -0.8118  0.9985 -0.1506
 7999SOL    HW226152   0.500   0.265   1.053 -2.1739  0.2767 -0.2442
 8000SOL     OW26153   4.479   3.638   2.105 -0.5534  0.7825  0.0702
 8000SOL    HW126154   4.476   3.733   2.114 -0.9143  0.8982 -1.1655
 8000SOL    HW226155   4.400   3.616   2.057  2.0598  0.4673 -4.6569
 8001SOL     OW26156   6.147   2.215   0.986 -0.0706  0.6990 -0.2944
 8001SOL    HW126157   6.171   2.173   1.069 -2.5806 -0.3110  0.0197
 8001SOL    HW226158   6.230   2.241   0.947  1.2438  0.3404  2.0856
 8002SOL     OW26159   4.816   3.698   1.241 -0.4201  0.5155 -0.6404
 8002SOL    HW126160   4.769   3.667   1.319 -1.8630  0.6922 -1.3955
 8002SOL    HW226161   4.773   3.780   1.218 -0.7317 -0.0517 -2.2089
 8003SOL     OW26162   3.933   6.321   5.776  0.3345  0.8121 -0.2562
 8003SOL    HW126163   3.887   6.288   5.700  0.0705  0.9219 -0.1456
 8003SOL    HW226164   3.942   6.244   5.834  2.1851  0.2836 -1.1845
 8004SOL     OW26165   8.339   7.051   0.440  0.4727 -0.3266 -0.2205
 8004SOL    HW126166   8.246   7.068   0.427  0.9092  2.5605 -0.1552
 8004SOL    HW226167   8.347   7.028   0.533 -0.0557  0.5529  0.0513
 8005SOL     OW26168   9.004   8.579   4.858  0.4299 -0.0076 -0.0972
 8005SOL    HW126169   8.955   8.539   4.930  0.0936 -0.5983 -0.6536
 8005SOL    HW226170   9.095   8.550   4.873  0.1222 -1.4266 -0.7647
 8006SOL     OW26171   9.416   3.399   4.426  0.2736  0.0691 -0.1242
 8006SOL    HW126172   9.474   3.435   4.358 -1.1887 -0.0256 -1.4721
 8006SOL    HW226173   9.346   3.464   4.434 -0.9232 -1.1293 -0.5643
 8007SOL     OW26174   3.324   5.134   7.679 -0.2592 -0.3524  0.8850
 8007SOL    HW126175   3.272   5.137   7.760  0.3073 -0.9926  1.2805
 8007SOL    HW226176   3.259   5.116   7.611 -0.6278 -0.6945  1.3128
 8008SOL     OW26177   1.485   4.153   9.360 -0.2491  0.4356  0.4183
 8008SOL    HW126178   1.512   4.086   9.423 -0.2974 -0.0671 -0.0799
 8008SOL    HW226179   1.459   4.103   9.283 -1.2659  0.9843  0.3924
 8009SOL     OW26180   4.988   3.169   5.914 -0.5484 -0.1232  0.1128
 8009SOL    HW126181   4.964   3.260   5.900  0.0827 -0.1047 -0.8859
 8009SOL    HW226182   4.950   3.122   5.840 -0.2022 -0.5548  0.2044
 8010SOL     OW26183   4.345   5.570   5.243  1.0114  0.3856 -0.3120
 8010SOL    HW126184   4.409   5.524   5.297  1.9780  1.3095 -0.6312
 8010SOL    HW226185   4.281   5.605   5.305  0.8513 -0.4826  0.0194
 8011SOL     OW26186   1.008   7.847   6.298 -0.5618  0.4567 -0.0157
 8011SOL    HW126187   0.913   7.861   6.302 -0.2734  3.0198 -0.2969
 8011SOL    HW226188   1.029   7.848   6.205 -0.3297 -0.7690  0.0181
 8012SOL     OW26189   1.703   2.698   1.587  0.2082 -0.5400 -0.2521
 8012SOL    HW126190   1.726   2.768   1.526  0.2228 -0.4639 -0.1586
 8012SOL    HW226191   1.627   2.731   1.634  0.3211 -0.5172 -0.0867
 8013SOL     OW26192   6.325   4.273   4.728  0.3769  0.2774  0.1730
 8013SOL    HW126193   6.262   4.286   4.657  0.9012  1.6473 -0.0745
 8013SOL    HW226194   6.386   4.207   4.693 -1.5541 -2.0686  0.9091
 8014SOL     OW26195   0.437   2.819   1.672 -0.0539  0.5428 -0.3662
 8014SOL    HW126196   0.487   2.899   1.652  1.5339  0.2432  2.0128
 8014SOL    HW226197   0.504   2.751   1.682 -1.1053 -0.3622  0.8083
 8015SOL     OW26198   0.039   9.483   4.623  0.3889 -0.9575 -0.0805
 8015SOL    HW126199  -0.017   9.408   4.642  0.2545 -1.2756 -1.6071
 8015SOL    HW226200   0.125   9.445   4.606  0.5949 -0.6478  0.2514
 8016SOL     OW26201   4.933   5.239   0.552 -0.0115  0.1513 -0.1956
 8016SOL    HW126202   4.935   5.335   0.543  0.2206  0.0317 -1.7209
 8016SOL    HW226203   5.002   5.208   0.494 -1.2896 -1.0151 -1.1556
 8017SOL     OW26204   6.723   3.843   1.197 -0.2815 -0.4477  0.6914
 8017SOL    HW126205   6.655   3.801   1.145  0.4958  0.5980 -1.2726
 8017SOL    HW226206   6.806   3.812   1.160  0.3024  1.7311 -0.0015
 8018SOL     OW26207   8.369   7.263   5.606 -0.4415 -0.1601  0.4957
 8018SOL    HW126208   8.368   7.172   5.576  0.6839 -0.7874  2.1906
 8018SOL    HW226209   8.358   7.314   5.527 -2.9687 -1.7691 -0.3084
 8019SOL     OW26210   7.011   0.228   1.981 -0.0862  0.4915  0.1803
 8019SOL    HW126211   6.923   0.260   2.001  0.3265  1.2246  0.9171
 8019SOL    HW226212   6.998   0.143   1.940 -1.0915  0.0291  1.3999
 8020SOL     OW26213   3.863   3.684   1.801 -0.6943  0.3423 -0.6521
 8020SOL    HW126214   3.821   3.720   1.878 -0.5188  0.1633 -0.4710
 8020SOL    HW226215   3.902   3.759   1.757  0.9111  0.2285  0.4796
 8021SOL     OW26216   8.175   2.160   4.558  0.3338 -0.1302  0.0505
 8021SOL    HW126217   8.109   2.174   4.626  0.0199 -1.0544 -0.0537
 8021SOL    HW226218   8.258   2.180   4.602  0.1329 -0.6673  0.7028
 8022SOL     OW26219   7.720   1.798   5.046 -0.0155 -0.2282 -0.4522
 8022SOL    HW126220   7.733   1.703   5.047  0.5154 -0.2181  2.5036
 8022SOL    HW226221   7.626   1.809   5.055 -0.1606 -0.4420 -1.5682
 8023SOL     OW26222   7.099   7.363   1.521 -0.0775  0.4861 -0.4082
 8023SOL    HW126223   7.164   7.340   1.454  0.9764  0.0965  0.7151
 8023SOL    HW226224   7.021   7.389   1.471  0.0683 -1.4919 -1.7739
 8024SOL     OW26225   4.025   8.705   7.400 -0.6920  0.4610 -0.2823
 8024SOL    HW126226   3.986   8.761   7.468 -2.5155 -3.3548  2.1820
 8024SOL    HW226227   4.120   8.711   7.416 -0.9629  1.2794  1.2709
 8025SOL     OW26228   9.480   1.973   0.829  0.1907 -0.2006 -0.2120
 8025SOL    HW126229   9.482   1.979   0.733  0.6170 -0.5415 -0.2298
 8025SOL    HW226230   9.524   1.890   0.848 -0.1509 -0.2760  0.2687
 8026SOL     OW26231   7.410   6.885   5.034 -0.5775 -0.1832 -0.1656
 8026SOL    HW126232   7.440   6.971   5.007  0.1626 -0.1373  0.7843
 8026SOL    HW226233   7.490   6.834   5.046 -0.9314 -0.4988  0.9203
 8027SOL     OW26234   0.430   6.951   4.091 -0.1750  0.4540 -0.6878
 8027SOL    HW126235   0.341   6.968   4.061  0.1718 -1.3867 -3.1413
 8027SOL    HW226236   0.472   7.037   4.092 -1.2866  1.0601 -2.0662
 8028SOL     OW26237   1.046   7.076   3.252 -0.3254  0.2505  0.5158
 8028SOL    HW126238   1.044   7.017   3.177 -1.0808  1.6138 -0.5647
 8028SOL    HW226239   1.133   7.063   3.290  0.4837  0.3228 -1.2427
 8029SOL     OW26240   4.667   0.570   6.851  0.6578 -0.5822  0.0542
 8029SOL    HW126241   4.609   0.639   6.820  2.3823  0.4562 -1.0385
 8029SOL    HW226242   4.703   0.603   6.933 -0.2445 -1.2274  0.7346
 8030SOL     OW26243   5.401   5.262   5.925 -0.4193 -0.3735 -0.0289
 8030SOL    HW126244   5.474   5.208   5.895 -0.2897  0.0180 -0.4213
 8030SOL    HW226245   5.370   5.218   6.005  0.5083 -0.3042  0.3801
 8031SOL     OW26246   6.283   3.144   5.833 -0.3856 -0.1193  0.4673
 8031SOL    HW126247   6.191   3.171   5.834 -0.5590 -0.6789  0.1962
 8031SOL    HW226248   6.284   3.064   5.886 -0.2070 -0.5862 -0.2360
 8032SOL     OW26249   6.664   0.539   2.924  0.0268 -0.2481  0.6458
 8032SOL    HW126250   6.739   0.513   2.977 -0.3778  0.5975  1.6783
 8032SOL    HW226251   6.661   0.475   2.853  1.5476 -0.4658  0.7391
 8033SOL     OW26252   7.403   1.800   4.022 -0.5317 -0.3067 -0.1263
 8033SOL    HW126253   7.402   1.713   3.981  1.6493 -0.8138  0.7603
 8033SOL    HW226254   7.429   1.859   3.952 -1.1435 -0.4969 -0.5193
 8034SOL     OW26255   1.688   6.590   8.298  0.2392  0.3154  0.0484
 8034SOL    HW126256   1.752   6.660   8.288  0.3762  0.2293  0.2940
 8034SOL    HW226257   1.606   6.627   8.267 -0.2139  1.3861  2.3242
 8035SOL     OW26258   1.812   7.309   9.577  0.2538  0.1149  0.1710
 8035SOL    HW126259   1.776   7.304   9.665  2.9693 -0.7981  1.3332
 8035SOL    HW226260   1.825   7.403   9.562  0.0217  0.2584  0.8532
 8036SOL     OW26261   6.675   4.548   5.816  0.1098  0.0617 -0.8608
 8036SOL    HW126262   6.701   4.493   5.890  1.8933  0.0101 -1.4991
 8036SOL    HW226263   6.695   4.495   5.739 -0.9403  0.4556 -1.4219
 8037SOL     OW26264   9.487   1.864   9.217 -0.2762  0.4928  0.2066
 8037SOL    HW126265   9.559   1.849   9.279  0.4550  0.8048 -0.5497
 8037SOL    HW226266   9.521   1.930   9.157 -0.7377 -0.2787 -0.9177
 8038SOL     OW26267   7.087   2.820   6.790  0.3363 -0.0553  0.2800
 8038SOL    HW126268   7.087   2.868   6.707 -0.4204  1.2756  1.0302
 8038SOL    HW226269   7.179   2.808   6.811  0.5582 -1.3066 -1.2425
 8039SOL     OW26270   6.481   6.604   3.934 -0.4960 -0.5620 -0.1420
 8039SOL    HW126271   6.489   6.686   3.981  0.6606 -0.8677  0.2239
 8039SOL    HW226272   6.438   6.545   3.996 -1.0091 -0.3396 -0.2810
 8040SOL     OW26273   9.333   0.442   7.339 -0.3407 -0.2381  0.3469
 8040SOL    HW126274   9.326   0.355   7.299  1.3732 -0.4244  0.3865
 8040SOL    HW226275   9.381   0.494   7.274  0.3660  0.1237  1.1465
 8041SOL     OW26276   2.430   0.938   4.023 -0.0557  0.3724 -0.0072
 8041SOL    HW126277   2.436   1.030   3.994  0.0118  0.8956  1.5646
 8041SOL    HW226278   2.520   0.907   4.023 -0.1289  0.1412 -1.0188
 8042SOL     OW26279   6.307   1.971   7.425 -0.1657  0.5845  0.1398
 8042SOL    HW126280   6.324   2.028   7.500  1.1751 -0.0221  0.3259
 8042SOL    HW226281   6.343   1.886   7.450 -0.5835  0.1115 -0.8051
 8043SOL     OW26282   0.600   2.475   5.352  0.0716  0.0804  0.2720
 8043SOL    HW126283   0.504   2.476   5.347  0.0503  0.1906  0.7117
 8043SOL    HW226284   0.624   2.564   5.378  0.3769  0.4704 -1.2213
 8044SOL     OW26285   2.368   4.915   0.399 -0.0674 -0.7377 -0.2670
 8044SOL    HW126286   2.343   4.876   0.315  3.8451  1.6820 -2.8605
 8044SOL    HW226287   2.463   4.905   0.403  0.1946  1.5717  2.6315
 8045SOL     OW26288   1.525   2.485   1.985  0.5435 -0.1800 -0.1218
 8045SOL    HW126289   1.546   2.391   1.982  3.0564  0.3229 -1.2463
 8045SOL    HW226290   1.504   2.507   1.895 -0.2289  0.3063  0.1747
 8046SOL     OW26291   3.179   2.388   7.217 -0.3882  0.0450  0.0969
 8046SOL    HW126292   3.157   2.308   7.169 -1.6394  0.0566  0.6135
 8046SOL    HW226293   3.148   2.372   7.306  1.8405  0.0533  0.9373
 8047SOL     OW26294   5.887   6.945   6.912  0.1136 -0.1214 -0.1721
 8047SOL    HW126295   5.966   6.890   6.905  0.2716  0.2396 -1.5892
 8047SOL    HW226296   5.817   6.883   6.930  0.4525 -0.6763 -0.6983
 8048SOL     OW26297   1.969   3.250   7.156  0.2411  0.2309 -0.0634
 8048SOL    HW126298   2.022   3.302   7.216  0.2058  2.0731 -1.5307
 8048SOL    HW226299   2.027   3.178   7.129  0.0656 -0.9939  2.5147
 8049SOL     OW26300   9.514   3.100   8.559  0.3776  0.1442  0.1015
 8049SOL    HW126301   9.536   3.112   8.651  1.4847  0.3299 -0.1734
 8049SOL    HW226302   9.418   3.104   8.557  0.2819 -0.7823  1.3608
 8050SOL     OW26303   2.481   6.386   7.159  0.0184 -0.2481 -0.2443
 8050SOL    HW126304   2.405   6.408   7.106 -0.5432 -1.2077  0.1352
 8050SOL    HW226305   2.488   6.457   7.223 -1.7467 -1.0846  0.9527
 8051SOL     OW26306   6.711   2.904   4.055 -0.3696 -0.1558  0.4448
 8051SOL    HW126307   6.757   2.839   4.107 -0.9423  0.3639  1.6509
 8051SOL    HW226308   6.766   2.982   4.058  0.1911 -0.4875 -0.7804
 8052SOL     OW26309   0.435   2.597   2.969 -0.1006 -0.2610 -0.1971
 8052SOL    HW126310   0.501   2.560   2.911  0.7780 -0.6598  1.0032
 8052SOL    HW226311   0.477   2.599   3.055 -1.4694 -0.0100  0.5007
 8053SOL     OW26312   1.302   1.924   6.051  0.1944  0.2271  0.3743
 8053SOL    HW126313   1.316   2.011   6.012  1.2524  0.1955  0.6526
 8053SOL    HW226314   1.319   1.936   6.144 -1.2676  0.0580  0.6966
 8054SOL     OW26315   3.172   7.245   1.815  0.1803 -0.6628  0.7324
 8054SOL    HW126316   3.111   7.290   1.873 -1.6388 -2.3191  0.1986
 8054SOL    HW226317   3.137   7.157   1.806  2.7224 -1.7517  0.4386
 8055SOL     OW26318   3.884   0.369   0.500  0.2021  0.2401 -0.2011
 8055SOL    HW126319   3.800   0.350   0.542 -0.8412  1.0120 -1.8016
 8055SOL    HW226320   3.950   0.337   0.561 -1.0798  3.1474  2.9966
 8056SOL     OW26321   5.770   2.324   4.137 -0.3283 -0.6115 -0.4099
 8056SOL    HW126322   5.864   2.314   4.153  0.1161 -0.2317 -2.4675
 8056SOL    HW226323   5.751   2.415   4.162 -0.9885 -1.6102  3.3320
 8057SOL     OW26324   3.052   3.695   9.567 -0.0956 -0.6037  0.1793
 8057SOL    HW126325   2.974   3.648   9.596  0.2066 -0.9144  0.4981
 8057SOL    HW226326   3.038   3.785   9.596  0.0973 -0.8635  1.1116
 8058SOL     OW26327   0.983   0.339   4.590  0.0789 -0.1110  0.0468
 8058SOL    HW126328   1.072   0.304   4.583 -0.1092 -0.4017 -1.0152
 8058SOL    HW226329   0.936   0.275   4.643  0.1872 -0.5730 -0.4146
 8059SOL     OW26330   2.804   7.333   6.868  0.2180 -0.4254  0.4269
 8059SOL    HW126331   2.890   7.342   6.907  1.3427  2.5298 -2.2912
 8059SOL    HW226332   2.803   7.397   6.796 -4.7680  0.8360  1.2094
 8060SOL     OW26333   7.917   2.694   5.365  0.1916 -0.0624 -0.2547
 8060SOL    HW126334   7.949   2.689   5.276  0.9053  2.2200 -0.2125
 8060SOL    HW226335   7.908   2.603   5.394  1.9730 -0.8174 -1.9173
 8061SOL     OW26336   7.218   2.296   1.595  0.4969 -0.3608 -0.1756
 8061SOL    HW126337   7.174   2.381   1.601  1.2725 -0.0552  4.2336
 8061SOL    HW226338   7.154   2.233   1.629  1.3087 -0.8797  0.4379
 8062SOL     OW26339   3.851   3.901   0.384  0.2271 -0.2846  0.1951
 8062SOL    HW126340   3.876   3.984   0.343 -0.5880 -0.6459 -1.1232
 8062SOL    HW226341   3.757   3.908   0.398  0.2554 -0.7462  0.6648
 8063SOL     OW26342   6.155   4.492   7.190  1.0519  0.5507  0.1809
 8063SOL    HW126343   6.204   4.471   7.110 -0.7570 -0.6344 -0.6953
 8063SOL    HW226344   6.078   4.435   7.186  1.2499 -0.0538  3.1700
 8064SOL     OW26345   0.105   8.245   7.579 -0.4013  0.4309 -0.1509
 8064SOL    HW126346   0.169   8.243   7.508 -1.3026  2.6202 -1.1059
 8064SOL    HW226347   0.075   8.154   7.585  0.9624 -0.1530 -1.3617
 8065SOL     OW26348   2.377   3.796   1.766 -0.5042 -0.4038  0.2840
 8065SOL    HW126349   2.355   3.710   1.731 -0.9137  0.3397 -1.3821
 8065SOL    HW226350   2.472   3.803   1.755 -0.3631 -0.9184  1.1126
 8066SOL     OW26351   8.730   7.689   4.114 -0.7245  0.1739 -0.5583
 8066SOL    HW126352   8.753   7.773   4.153 -2.2410  1.1034 -1.5550
 8066SOL    HW226353   8.792   7.678   4.042 -1.5999  1.3115 -1.5103
 8067SOL     OW26354   6.199   5.224   6.615  0.2152 -0.1104 -0.4038
 8067SOL    HW126355   6.153   5.149   6.578  1.7930 -1.0251 -0.6039
 8067SOL    HW226356   6.185   5.294   6.551 -1.7282 -0.0144  0.0520
 8068SOL     OW26357   4.323   2.289   1.166  0.7846 -0.2110  0.0416
 8068SOL    HW126358   4.401   2.255   1.211  0.9456  0.0170 -0.0667
 8068SOL    HW226359   4.344   2.282   1.073  1.0240  0.6671  0.0246
 8069SOL     OW26360   3.756   4.979   9.588 -0.6352 -0.1277 -0.2854
 8069SOL    HW126361   3.706   5.025   9.520 -0.7844  0.4675  0.2136
 8069SOL    HW226362   3.836   5.030   9.598 -0.7339 -0.0496  0.1647
 8070SOL     OW26363   0.117   5.146   4.250 -0.0003  0.2627 -0.5188
 8070SOL    HW126364   0.106   5.067   4.302  0.7040 -0.4758 -1.4731
 8070SOL    HW226365   0.171   5.203   4.305 -1.9933  0.8667  0.9490
 8071SOL     OW26366   7.155   0.967   5.088  0.1735  0.0692  0.3287
 8071SOL    HW126367   7.172   0.875   5.106 -0.6338 -0.2227 -0.3237
 8071SOL    HW226368   7.167   1.011   5.173  0.4198 -0.6500  0.6740
 8072SOL     OW26369   6.946   2.942   8.927 -0.2868 -0.0744  0.5429
 8072SOL    HW126370   6.889   2.891   8.985 -2.9908  1.9031 -0.2001
 8072SOL    HW226371   6.977   3.015   8.982 -4.2074  2.7785 -0.6106
 8073SOL     OW26372   5.172   1.466   6.330  0.5468  0.1356  0.0345
 8073SOL    HW126373   5.099   1.430   6.280 -0.3404 -0.7148  1.8738
 8073SOL    HW226374   5.158   1.561   6.327  0.0837  0.0557 -0.6507
 8074SOL     OW26375   1.929   5.982   8.843  0.2626  0.1044  0.2616
 8074SOL    HW126376   1.890   5.910   8.794  0.2268  1.6522 -2.1860
 8074SOL    HW226377   1.897   5.970   8.933 -0.9044 -2.0638 -0.3661
 8075SOL     OW26378   9.151   3.970   8.143 -0.6331 -0.2620  0.3430
 8075SOL    HW126379   9.158   4.065   8.133 -0.4796 -0.4612 -1.8733
 8075SOL    HW226380   9.060   3.954   8.165 -0.4718  0.4234  1.6299
 8076SOL     OW26381   6.122   5.432   6.454 -0.0484 -0.3234  0.6422
 8076SOL    HW126382   6.192   5.407   6.394 -0.2915 -1.3684  0.7769
 8076SOL    HW226383   6.045   5.443   6.398 -0.4576 -2.0467  0.8256
 8077SOL     OW26384   3.407   1.866   4.060  0.1019  0.4759  0.0220
 8077SOL    HW126385   3.344   1.834   4.124  0.9243  0.9372  1.1005
 8077SOL    HW226386   3.355   1.914   3.996 -0.8082 -0.5353 -0.0334
 8078SOL     OW26387   8.825   5.441   4.374  0.0234 -0.1837 -0.4505
 8078SOL    HW126388   8.840   5.491   4.294 -0.4294  0.0535 -0.3883
 8078SOL    HW226389   8.849   5.501   4.445 -1.1015  0.1606 -0.3537
 8079SOL     OW26390   0.379   4.176   2.896 -0.0184  0.4576 -0.2994
 8079SOL    HW126391   0.318   4.244   2.870 -1.7332 -1.1698 -0.7754
 8079SOL    HW226392   0.416   4.207   2.979  0.6534  2.7445 -1.3768
 8080SOL     OW26393   2.350   6.384   1.573  0.2395 -0.1959  0.4961
 8080SOL    HW126394   2.330   6.450   1.639 -1.0633 -1.2937  1.2438
 8080SOL    HW226395   2.281   6.393   1.508 -0.4119 -1.3162  1.0047
 8081SOL     OW26396   1.163   4.694   2.850  0.2651 -0.5883  0.3763
 8081SOL    HW126397   1.123   4.692   2.937  0.5698  0.8699  0.5780
 8081SOL    HW226398   1.095   4.731   2.793  1.3228  2.2876  0.7936
 8082SOL     OW26399   5.382   0.622   6.143 -0.0672 -0.1993  0.3772
 8082SOL    HW126400   5.322   0.685   6.182 -0.8860 -1.3820  1.0987
 8082SOL    HW226401   5.338   0.595   6.062 -0.2418 -0.6307  0.6115
 8083SOL     OW26402   5.471   6.895   3.242  0.0773 -0.3315 -0.2941
 8083SOL    HW126403   5.556   6.923   3.275 -0.0695  0.9264 -0.9571
 8083SOL    HW226404   5.469   6.924   3.151 -0.1391 -2.4145 -1.0172
 8084SOL     OW26405   8.673   5.030   9.245  0.0579  0.5341 -0.5329
 8084SOL    HW126406   8.755   5.067   9.278 -0.5265 -0.1679  1.9019
 8084SOL    HW226407   8.612   5.104   9.245 -0.1084  0.4042  0.6330
 8085SOL     OW26408   2.533   8.377   6.804  0.6203 -0.0646  0.2287
 8085SOL    HW126409   2.489   8.447   6.853  0.7513  0.5576 -0.5294
 8085SOL    HW226410   2.624   8.379   6.836  1.4101  2.1218 -1.8578
 8086SOL     OW26411   3.757   6.547   2.585 -0.0587  0.1748  0.0783
 8086SOL    HW126412   3.829   6.503   2.539  1.0104  0.4364  1.4306
 8086SOL    HW226413   3.678   6.510   2.547  0.7992 -1.3398 -0.3228
 8087SOL     OW26414   6.899   6.584   3.708 -0.0165 -0.5011  0.2448
 8087SOL    HW126415   6.826   6.529   3.680 -0.0120 -0.2948 -0.1976
 8087SOL    HW226416   6.977   6.536   3.681 -0.0144 -0.2401 -0.2257
 8088SOL     OW26417   6.884   5.998   0.805  0.1788 -0.1686 -0.1135
 8088SOL    HW126418   6.955   5.992   0.741  0.5335 -0.8974  0.3452
 8088SOL    HW226419   6.895   5.921   0.861  1.9609  2.1260  3.0006
 8089SOL     OW26420   8.437   0.054   7.837  0.1857 -0.4428  0.2230
 8089SOL    HW126421   8.466  -0.035   7.817  0.9372 -0.6733  2.0839
 8089SOL    HW226422   8.500   0.111   7.793  1.4465 -0.9054  1.3579
 8090SOL     OW26423   0.977   6.793   5.165 -0.5791 -0.3923 -0.0467
 8090SOL    HW126424   0.925   6.750   5.234 -1.4247 -1.6529 -1.4075
 8090SOL    HW226425   1.035   6.852   5.212 -1.5483 -0.7686  1.7102
 8091SOL     OW26426   9.227   3.420   3.594 -0.0535 -0.0926  0.1509
 8091SOL    HW126427   9.268   3.502   3.565  0.2122 -0.1157  0.4527
 8091SOL    HW226428   9.239   3.360   3.521  1.1398 -0.3308  0.5264
 8092SOL     OW26429   2.058   6.704   7.962  0.9180 -0.0989 -0.4783
 8092SOL    HW126430   2.064   6.696   7.867  1.9122  1.6680 -0.6070
 8092SOL    HW226431   2.082   6.617   7.995 -2.0245 -1.5568 -1.8316
 8093SOL     OW26432   1.923   0.457   4.585  0.2351 -0.4648  0.3080
 8093SOL    HW126433   1.958   0.369   4.572 -1.0840 -1.2389  1.5791
 8093SOL    HW226434   1.950   0.506   4.508  0.2436 -2.2458 -0.8757
 8094SOL     OW26435   2.293   5.518   5.021 -0.0234 -0.2760  0.0133
 8094SOL    HW126436   2.330   5.577   4.955 -0.4464 -0.7370 -0.6453
 8094SOL    HW226437   2.350   5.442   5.019 -0.5625 -0.6719 -0.4676
 8095SOL     OW26438   3.164   2.189   2.590  0.2792  0.4724  0.0213
 8095SOL    HW126439   3.231   2.207   2.657  0.9522  1.9827 -1.0068
 8095SOL    HW226440   3.198   2.230   2.511 -1.4904  0.5483 -0.7401
 8096SOL     OW26441   8.984   4.871   8.049  0.5220  0.1820  0.0004
 8096SOL    HW126442   9.018   4.899   7.964  0.0691 -0.5895 -0.4477
 8096SOL    HW226443   8.890   4.859   8.034  0.5974 -0.9418  0.3267
 8097SOL     OW26444   5.653   3.419   3.317  0.7558  0.5192  0.2319
 8097SOL    HW126445   5.614   3.345   3.364  1.6889  0.0143  0.2173
 8097SOL    HW226446   5.693   3.381   3.239  1.2320  1.0346  0.2156
 8098SOL     OW26447   5.265   4.190   9.428 -0.6431  0.1757 -0.1218
 8098SOL    HW126448   5.259   4.255   9.358 -0.9588  0.0564 -0.2058
 8098SOL    HW226449   5.316   4.234   9.496  0.0259  0.1399 -0.5916
 8099SOL     OW26450   0.597   6.970   6.999  0.2146 -0.2353 -0.0283
 8099SOL    HW126451   0.638   7.045   7.042  1.3231 -0.1213 -1.2180
 8099SOL    HW226452   0.559   7.007   6.919 -1.9716 -0.4034  0.8468
 8100SOL     OW26453   8.394   5.545   8.836  1.2238  0.4464 -0.2468
 8100SOL    HW126454   8.448   5.574   8.763  0.6774  1.0998 -0.4057
 8100SOL    HW226455   8.456   5.510   8.900  2.0865  2.9215  0.4075
 8101SOL     OW26456   8.743   2.073   7.877  0.2745 -0.4236 -0.2681
 8101SOL    HW126457   8.685   2.144   7.905 -0.1726 -1.2414  0.9541
 8101SOL    HW226458   8.737   2.008   7.947  0.0742 -2.0205 -1.7084
 8102SOL     OW26459   2.951   8.470   8.061 -0.2639 -0.7692 -0.1264
 8102SOL    HW126460   2.939   8.565   8.067  1.2443 -0.6103  0.9123
 8102SOL    HW226461   2.908   8.446   7.979 -1.3199  0.6899 -0.0471
 8103SOL     OW26462   9.028   7.399   1.614 -0.0174 -0.4520 -0.0705
 8103SOL    HW126463   9.109   7.388   1.565 -0.1307 -0.8293 -0.1781
 8103SOL    HW226464   8.980   7.467   1.567  0.8129  0.7307  0.7473
 8104SOL     OW26465   9.272   1.482   7.005  0.1422  0.5148 -0.6254
 8104SOL    HW126466   9.358   1.470   6.964  0.5931 -0.0397  0.4396
 8104SOL    HW226467   9.292   1.501   7.097 -0.7859  3.0989 -0.8850
 8105SOL     OW26468   1.302   1.449   8.399  0.2187 -0.2459 -0.3068
 8105SOL    HW126469   1.290   1.371   8.346 -1.1199 -1.4991  1.6743
 8105SOL    HW226470   1.218   1.460   8.444  0.6151  1.9368  0.0124
 8106SOL     OW26471   9.220   7.930   8.398  0.0726 -0.2952 -0.4975
 8106SOL    HW126472   9.293   7.870   8.385 -0.4846 -1.0786 -0.0997
 8106SOL    HW226473   9.149   7.875   8.431 -0.9521  0.3004 -1.5968
 8107SOL     OW26474   0.190   3.007   4.594 -0.8642 -0.3067 -0.1731
 8107SOL    HW126475   0.274   3.042   4.565 -1.2484  1.0337  0.2427
 8107SOL    HW226476   0.125   3.048   4.536 -1.2385 -1.3133 -0.4790
 8108SOL     OW26477   5.571   2.209   7.902 -0.3190  0.2321  0.8891
 8108SOL    HW126478   5.516   2.137   7.872  0.0095 -0.8922  2.7766
 8108SOL    HW226479   5.659   2.171   7.906  0.4849  1.6963 -1.0883
 8109SOL     OW26480   3.686   6.760   0.586 -0.1651  0.2200 -0.3140
 8109SOL    HW126481   3.657   6.792   0.671  0.6891 -0.3259  0.1981
 8109SOL    HW226482   3.629   6.804   0.523 -1.9594 -0.6661  0.6168
 8110SOL     OW26483   0.377   5.075   1.751 -0.1401  0.4038  0.3702
 8110SOL    HW126484   0.334   5.159   1.769 -0.2424  0.2651  0.7975
 8110SOL    HW226485   0.458   5.078   1.802 -0.2740  0.1383  0.6068
 8111SOL     OW26486   5.044   7.244   8.892  0.0183  0.0724  0.2699
 8111SOL    HW126487   5.048   7.299   8.971  0.1390 -0.4827  0.6602
 8111SOL    HW226488   5.106   7.284   8.832  0.7663 -0.1461  0.8831
 8112SOL     OW26489   4.032   5.654   2.438  0.2264  0.6399 -0.1787
 8112SOL    HW126490   3.971   5.589   2.404  1.8482 -1.4771  0.7251
 8112SOL    HW226491   4.005   5.668   2.528  0.1908  0.8468 -0.2198
 8113SOL     OW26492   2.776   2.578   7.774  0.2152  0.7271 -0.1642
 8113SOL    HW126493   2.740   2.648   7.828 -1.0765 -0.4244  0.5214
 8113SOL    HW226494   2.845   2.539   7.828  0.5437  1.0910 -0.3163
 8114SOL     OW26495   5.486   3.524   5.331 -0.6268  0.7606 -0.4728
 8114SOL    HW126496   5.456   3.529   5.422  0.5072 -0.1383 -0.0201
 8114SOL    HW226497   5.570   3.478   5.336 -0.8236  0.1620 -2.0411
 8115SOL     OW26498   1.549   6.811   6.499 -0.5921  0.3312 -0.5445
 8115SOL    HW126499   1.542   6.903   6.527 -1.2554  0.5803 -1.4662
 8115SOL    HW226500   1.642   6.800   6.479 -0.8049  1.4432 -2.3947
 8116SOL     OW26501   9.067   7.323   6.845  0.3620  0.2762 -0.0142
 8116SOL    HW126502   9.059   7.417   6.825  0.8230  0.3572  0.1623
 8116SOL    HW226503   9.162   7.309   6.853  0.4404 -0.6233 -1.9922
 8117SOL     OW26504   6.239   0.002   9.106 -0.2962 -0.4173  0.2774
 8117SOL    HW126505   6.202  -0.031   9.187  1.5223 -1.7356  0.6467
 8117SOL    HW226506   6.164   0.029   9.054 -1.6881 -2.1532  1.3011
 8118SOL     OW26507   4.475   3.800   6.286  0.7323 -0.6272 -0.2442
 8118SOL    HW126508   4.534   3.807   6.361  1.0649 -0.1543 -0.5490
 8118SOL    HW226509   4.492   3.713   6.251 -0.0008 -1.1718  0.7035
 8119SOL     OW26510   2.967   9.058   4.777  0.4878  0.3868 -0.7213
 8119SOL    HW126511   2.966   9.055   4.873  0.5903  0.3683 -0.7197
 8119SOL    HW226512   3.053   9.021   4.754 -0.7904 -2.7392 -0.9221
 8120SOL     OW26513   5.619   2.112   2.183 -0.3921  0.7325  0.1792
 8120SOL    HW126514   5.587   2.077   2.100 -0.4152  0.9087  0.1127
 8120SOL    HW226515   5.661   2.037   2.226  1.0796  0.9972 -0.7007
 8121SOL     OW26516   8.339   2.940   5.018 -0.1149  0.1610 -0.0403
 8121SOL    HW126517   8.253   2.899   5.021  0.6602 -1.4978  0.5984
 8121SOL    HW226518   8.350   2.966   4.926 -0.5753 -1.2108 -0.5037
 8122SOL     OW26519   5.541   0.324   1.278 -0.7519  0.0546 -0.0284
 8122SOL    HW126520   5.483   0.256   1.312  1.2843 -2.2748 -0.9549
 8122SOL    HW226521   5.591   0.353   1.355 -1.1584  0.0457  0.2435
 8123SOL     OW26522   2.858   3.402   6.726  0.2947  0.1669  0.3350
 8123SOL    HW126523   2.823   3.486   6.754 -2.1336 -0.5250 -0.3893
 8123SOL    HW226524   2.867   3.351   6.806  1.9930  1.1258  0.8062
 8124SOL     OW26525   2.963   8.910   2.252  0.0355 -0.3007  0.2498
 8124SOL    HW126526   2.918   8.887   2.170  0.1454 -1.3461  0.4664
 8124SOL    HW226527   3.046   8.948   2.223 -0.2421  0.0392 -0.1279
 8125SOL     OW26528   3.018   1.551   5.273  0.8143 -0.1461 -0.5884
 8125SOL    HW126529   3.030   1.581   5.363 -1.1448 -0.6719 -0.0991
 8125SOL    HW226530   3.021   1.631   5.221 -0.3316  0.4792  0.2472
 8126SOL     OW26531   1.235   2.718   2.961  0.3688  0.5216  0.3643
 8126SOL    HW126532   1.324   2.705   2.929  0.9322 -0.1155  2.0938
 8126SOL    HW226533   1.207   2.800   2.920  1.4492  0.3427 -0.7985
 8127SOL     OW26534   4.186   1.560   7.974 -0.2031  0.5638 -0.2401
 8127SOL    HW126535   4.125   1.504   7.926 -1.6612  0.0934  1.9852
 8127SOL    HW226536   4.272   1.523   7.957 -0.9324 -1.1009 -0.4670
 8128SOL     OW26537   0.191   7.074   1.864  0.4490 -0.3674 -0.4474
 8128SOL    HW126538   0.138   7.058   1.786  2.0824 -1.9112 -1.3047
 8128SOL    HW226539   0.158   7.157   1.899 -3.4287 -1.8156 -0.1297
 8129SOL     OW26540   1.608   5.619   2.690  0.3567  0.2144  0.4379
 8129SOL    HW126541   1.566   5.676   2.755  0.7768 -0.0954  0.9824
 8129SOL    HW226542   1.651   5.551   2.741 -2.0839 -2.0011 -0.2566
 8130SOL     OW26543   0.008   3.980   0.738 -0.0431  0.5935  0.6255
 8130SOL    HW126544  -0.043   4.058   0.717 -1.1887 -0.5214 -0.8931
 8130SOL    HW226545  -0.057   3.911   0.752  0.9915 -0.5728 -0.1174
 8131SOL     OW26546   3.489   1.275   8.531  0.5743  0.5126 -0.4013
 8131SOL    HW126547   3.423   1.292   8.598  1.0017 -0.3961  0.2743
 8131SOL    HW226548   3.480   1.348   8.470 -1.5179  0.0481 -0.7296
 8132SOL     OW26549   2.081   3.688   6.587  0.2076  0.1614  0.1045
 8132SOL    HW126550   2.114   3.775   6.562  1.9802 -0.2757  0.7800
 8132SOL    HW226551   2.069   3.694   6.682  0.4037 -0.3483  0.1620
 8133SOL     OW26552   0.054   5.401   9.586 -0.5072  0.3555 -0.3416
 8133SOL    HW126553   0.004   5.334   9.539 -0.2869  0.5699 -0.8941
 8133SOL    HW226554   0.070   5.363   9.672 -0.8432 -0.0820 -0.4669
 8134SOL     OW26555   6.537   7.470   6.254 -0.4393  0.0217 -0.9383
 8134SOL    HW126556   6.513   7.546   6.307 -1.5445 -1.1038  0.2509
 8134SOL    HW226557   6.514   7.494   6.164 -0.5549  1.1654 -0.6111
 8135SOL     OW26558   2.506   5.311   1.206  0.6610  0.1433 -0.3623
 8135SOL    HW126559   2.591   5.272   1.225  0.7187  0.0461 -0.8083
 8135SOL    HW226560   2.443   5.244   1.233  0.7154  0.3319  0.2382
 8136SOL     OW26561   7.310   3.920   8.349 -0.3281 -0.2583 -0.9150
 8136SOL    HW126562   7.327   3.835   8.309 -1.6719 -1.3810  0.7515
 8136SOL    HW226563   7.216   3.935   8.334 -0.8677 -0.6759  1.5790
 8137SOL     OW26564   6.248   6.287   1.842 -0.1016 -1.0319 -0.4855
 8137SOL    HW126565   6.196   6.297   1.921  1.0814 -3.6626  0.7249
 8137SOL    HW226566   6.183   6.275   1.772 -1.1450  0.8894  0.0843
 8138SOL     OW26567   7.856   1.147   8.953 -0.4605  0.3741  0.3774
 8138SOL    HW126568   7.940   1.136   8.910 -0.9517 -0.0211 -0.5258
 8138SOL    HW226569   7.848   1.241   8.968 -0.4427  0.5741 -0.7755
 8139SOL     OW26570   8.268   6.455   1.519  0.2321  0.1855 -0.2394
 8139SOL    HW126571   8.235   6.544   1.525 -3.1280 -1.0095  0.8303
 8139SOL    HW226572   8.213   6.413   1.454 -0.9073 -2.0875  2.0223
 8140SOL     OW26573   3.782   6.735   2.791  0.1033 -0.6424  0.1867
 8140SOL    HW126574   3.805   6.815   2.744  2.4077 -0.6342  1.1928
 8140SOL    HW226575   3.796   6.665   2.728  0.2179 -0.4086 -0.0481
 8141SOL     OW26576   9.497   3.508   7.984  0.6777  0.3324 -0.3546
 8141SOL    HW126577   9.516   3.444   8.052  1.0341 -0.5470 -1.2633
 8141SOL    HW226578   9.408   3.538   8.004  0.9146  0.3726  0.7093
 8142SOL     OW26579   8.688   8.937   0.598  0.3854  0.5383  1.0401
 8142SOL    HW126580   8.601   8.896   0.595  0.0306  1.2935  0.9761
 8142SOL    HW226581   8.747   8.870   0.562  0.0087 -0.4171  2.1429
 8143SOL     OW26582   7.961   1.062   8.172 -0.7544  0.7688 -0.5718
 8143SOL    HW126583   8.015   1.115   8.113  1.1282 -0.5054 -0.1065
 8143SOL    HW226584   7.977   0.972   8.143 -0.5156  0.1867  1.2691
 8144SOL     OW26585   6.133   0.034   4.026  0.3260 -0.2253  0.0435
 8144SOL    HW126586   6.219   0.057   4.061  0.1538  0.6050 -0.0574
 8144SOL    HW226587   6.072   0.050   4.098 -0.0257  1.4722 -0.5786
 8145SOL     OW26588   5.736   0.666   2.189  0.6194  0.1881 -0.5461
 8145SOL    HW126589   5.667   0.609   2.222 -0.0979  1.5251  0.3409
 8145SOL    HW226590   5.816   0.633   2.229  0.6052 -1.6181 -1.8914
 8146SOL     OW26591   8.881   4.090   5.410 -0.5098  0.1370  0.1284
 8146SOL    HW126592   8.894   4.110   5.317  0.9527  0.5161  0.3766
 8146SOL    HW226593   8.885   3.995   5.416 -1.9651  0.0324 -0.3596
 8147SOL     OW26594   4.437   6.625   4.491  0.3956 -0.1726  0.6112
 8147SOL    HW126595   4.357   6.574   4.503  1.3307 -2.4720 -1.8262
 8147SOL    HW226596   4.462   6.652   4.579 -1.7978 -1.3551  1.6847
 8148SOL     OW26597   0.933   7.783   3.813 -0.2916 -0.0589  0.5248
 8148SOL    HW126598   0.957   7.847   3.882 -1.3687  0.2327  0.6451
 8148SOL    HW226599   0.839   7.793   3.804 -0.3647 -1.1476  0.0269
 8149SOL     OW26600   2.058   9.138   2.568  1.0631 -0.0065 -0.0212
 8149SOL    HW126601   2.029   9.229   2.567  2.7698  0.5731 -0.0059
 8149SOL    HW226602   2.027   9.103   2.652 -2.8520 -0.6383 -1.5194
 8150SOL     OW26603   2.361   7.124   6.701  0.1269 -0.1802  0.2790
 8150SOL    HW126604   2.353   7.166   6.787 -0.1730  0.7000 -0.1656
 8150SOL    HW226605   2.445   7.155   6.667  0.4462 -0.8624  0.4155
 8151SOL     OW26606   0.778   6.323   8.354 -0.1816 -0.1724 -0.1554
 8151SOL    HW126607   0.773   6.294   8.445  2.0940  1.2393  0.5152
 8151SOL    HW226608   0.838   6.262   8.312  1.2603  0.9803  0.1583
 8152SOL     OW26609   3.229   5.932   4.927  0.7237 -0.1476  0.2702
 8152SOL    HW126610   3.284   5.903   4.855  0.3123 -0.6686  0.1573
 8152SOL    HW226611   3.249   5.871   4.998 -1.7945 -2.2717 -0.6612
 8153SOL     OW26612   8.854   2.238   2.334  0.3294 -0.3907  0.3266
 8153SOL    HW126613   8.801   2.225   2.255  1.1912  1.7625 -0.7026
 8153SOL    HW226614   8.910   2.161   2.338 -2.3316 -2.4348  1.0928
 8154SOL     OW26615   6.876   5.724   2.530  0.1245  0.4649  0.5929
 8154SOL    HW126616   6.843   5.655   2.588  0.9775  0.2260  0.8248
 8154SOL    HW226617   6.957   5.754   2.573  1.1074 -0.1331 -0.7617
 8155SOL     OW26618   7.679   0.682   6.163  0.1740 -0.1330 -0.1089
 8155SOL    HW126619   7.697   0.776   6.156 -0.4845  0.0702  0.7035
 8155SOL    HW226620   7.680   0.665   6.257  1.1369 -1.1220 -0.2886
 8156SOL     OW26621   8.586   5.997   0.896  0.5131  0.2881 -0.3780
 8156SOL    HW126622   8.641   6.057   0.946  1.9985 -0.6233 -0.8494
 8156SOL    HW226623   8.576   5.920   0.952 -0.7529  0.6448 -0.0820
 8157SOL     OW26624   6.287   9.059   4.744 -0.1512  0.3772 -0.3717
 8157SOL    HW126625   6.239   9.025   4.669  1.5302 -1.1512 -0.8197
 8157SOL    HW226626   6.378   9.040   4.725  0.3060 -0.5922  2.2897
 8158SOL     OW26627   3.864   4.135   4.106  0.2165  0.5664  0.2790
 8158SOL    HW126628   3.789   4.110   4.051 -0.0010  1.3401  0.2160
 8158SOL    HW226629   3.933   4.074   4.081 -0.4657 -0.3233  0.5248
 8159SOL     OW26630   5.659   5.853   5.587 -0.2473  0.1343  0.4307
 8159SOL    HW126631   5.605   5.929   5.606 -1.5424 -0.8467  0.8500
 8159SOL    HW226632   5.726   5.885   5.527 -0.2416  1.7758  1.2601
 8160SOL     OW26633   8.568   6.822   6.546  0.0439  0.3270 -0.0065
 8160SOL    HW126634   8.491   6.769   6.566  0.2489  0.5240  1.3891
 8160SOL    HW226635   8.544   6.911   6.573  0.6244  0.4684  0.0530
 8161SOL     OW26636   2.708   5.899   5.988 -0.2079 -0.3864  0.3377
 8161SOL    HW126637   2.732   5.991   5.999  0.3520 -0.3382 -1.0201
 8161SOL    HW226638   2.612   5.899   5.990 -0.3312  0.5929 -1.7533
 8162SOL     OW26639   7.247   1.210   9.456  0.4872 -0.2880 -0.4388
 8162SOL    HW126640   7.207   1.196   9.542  1.7349  0.3009  0.2779
 8162SOL    HW226641   7.306   1.285   9.470  0.9427 -0.3947 -1.7247
 8163SOL     OW26642   7.345   1.724   3.632 -0.3458  0.0640  0.4225
 8163SOL    HW126643   7.355   1.629   3.644  0.3644  0.2178  1.1620
 8163SOL    HW226644   7.434   1.758   3.639 -0.6737  0.8624  0.8969
 8164SOL     OW26645   5.149   7.863   6.902 -0.1291  0.1715 -0.0294
 8164SOL    HW126646   5.063   7.823   6.916 -0.3404  0.9500  1.0706
 8164SOL    HW226647   5.166   7.851   6.809 -1.3710 -0.1218 -0.2408
 8165SOL     OW26648   8.995   3.978   9.316 -0.1388 -0.0735 -0.3552
 8165SOL    HW126649   9.024   4.061   9.353 -1.1646  1.3070 -2.4278
 8165SOL    HW226650   8.915   3.957   9.364  1.3579 -1.1562  1.7866
 8166SOL     OW26651   8.609   7.488   5.321 -0.4964  0.3221  0.3352
 8166SOL    HW126652   8.538   7.525   5.373  0.0856  0.6828  0.8761
 8166SOL    HW226653   8.674   7.459   5.385  0.0483  0.4088 -0.1696
 8167SOL     OW26654   1.626   0.008   4.347 -0.3042 -0.5808  0.3778
 8167SOL    HW126655   1.658   0.048   4.428  0.7558  3.6553 -1.8469
 8167SOL    HW226656   1.531   0.022   4.349  0.0245  2.4272 -0.3184
 8168SOL     OW26657   7.048   0.916   1.128  0.1642  0.2385 -0.0077
 8168SOL    HW126658   7.107   0.843   1.146 -1.0549 -1.0692 -1.0116
 8168SOL    HW226659   7.106   0.990   1.110  1.4479 -0.5414  0.7323
 8169SOL     OW26660   8.226   3.833   1.086  0.6010  0.1984  0.5021
 8169SOL    HW126661   8.173   3.806   1.161  0.3790  2.3513  1.1701
 8169SOL    HW226662   8.253   3.922   1.105  0.3709  0.9144 -2.0749
 8170SOL     OW26663   0.460   0.228   0.754  0.2290  0.5775 -0.6749
 8170SOL    HW126664   0.421   0.157   0.702  0.1461  0.1926 -0.0995
 8170SOL    HW226665   0.424   0.308   0.717 -3.5593  0.2195  1.6330
 8171SOL     OW26666   0.824   7.979   2.482 -0.2733  0.1686  0.4999
 8171SOL    HW126667   0.856   7.895   2.448  1.6938  1.0626 -0.0126
 8171SOL    HW226668   0.756   8.005   2.420 -1.2551 -1.2263  0.9245
 8172SOL     OW26669   7.543   3.267   9.478  0.3322 -0.0451  0.0129
 8172SOL    HW126670   7.462   3.301   9.515  1.5166  0.0393  2.8252
 8172SOL    HW226671   7.546   3.176   9.507  1.2544 -0.0197  0.0323
 8173SOL     OW26672   2.296   7.979   2.362 -0.3753  0.1127  0.0808
 8173SOL    HW126673   2.251   7.895   2.367  0.7070 -0.4690  0.4392
 8173SOL    HW226674   2.266   8.027   2.438  1.2576 -1.1414  1.6080
 8174SOL     OW26675   2.464   7.516   9.586  0.0592 -0.0390 -0.1270
 8174SOL    HW126676   2.514   7.435   9.583  0.4934  0.2025  0.3358
 8174SOL    HW226677   2.520   7.580   9.542  0.0042  0.1537  0.0816
 8175SOL     OW26678   4.141   7.601   8.763 -0.4193  0.4144  0.5714
 8175SOL    HW126679   4.190   7.521   8.780  0.4863  0.6886 -0.6759
 8175SOL    HW226680   4.177   7.665   8.825  0.5927  0.5146 -0.0897
 8176SOL     OW26681   6.687   8.818   8.391  0.0712  0.8180  0.1014
 8176SOL    HW126682   6.754   8.884   8.410  0.4712  0.9420 -1.5977
 8176SOL    HW226683   6.608   8.852   8.432  0.1926  2.5590 -1.0073
 8177SOL     OW26684   4.439   1.222   2.287  0.1214 -0.9032 -0.5626
 8177SOL    HW126685   4.376   1.188   2.350  0.8775 -0.5789  0.3873
 8177SOL    HW226686   4.385   1.254   2.215 -0.9131  0.5316  0.7712
 8178SOL     OW26687   1.763   8.975   9.579 -0.7439  0.0002  0.1205
 8178SOL    HW126688   1.818   8.910   9.535 -2.8608 -1.5311 -0.4473
 8178SOL    HW226689   1.706   9.009   9.510 -1.5959  0.3492  0.9665
 8179SOL     OW26690   9.022   1.524   1.214  0.0557 -0.3572 -0.3367
 8179SOL    HW126691   9.097   1.490   1.262 -1.3618 -1.2853  1.3330
 8179SOL    HW226692   9.028   1.483   1.128  1.0823 -0.9619  0.0075
 8180SOL     OW26693   5.099   6.969   0.791  0.1452  0.3083  0.3426
 8180SOL    HW126694   5.060   6.933   0.871 -0.0543  1.0346  0.5817
 8180SOL    HW226695   5.063   6.917   0.720 -1.2359  0.9232  0.5598
 8181SOL     OW26696   5.015   8.619   6.764 -0.3389 -0.0850 -0.4617
 8181SOL    HW126697   5.005   8.702   6.811  2.5208  0.1462 -0.0857
 8181SOL    HW226698   4.971   8.634   6.680 -2.2977  0.7788  0.6313
 8182SOL     OW26699   3.598   5.190   0.573  0.0567 -0.3453 -0.0824
 8182SOL    HW126700   3.632   5.149   0.493 -1.5761 -1.7550 -0.0862
 8182SOL    HW226701   3.527   5.247   0.542  0.0282 -0.1808  0.2818
 8183SOL     OW26702   9.006   7.559   4.415 -0.7581  0.2138 -0.6320
 8183SOL    HW126703   9.057   7.517   4.484 -0.4968 -0.8438 -1.4380
 8183SOL    HW226704   8.991   7.648   4.447  0.2250  0.0597  0.3282
 8184SOL     OW26705   4.307   3.975   4.243  0.0508 -0.5365 -0.0815
 8184SOL    HW126706   4.300   3.979   4.148  0.2692 -0.4824 -0.0946
 8184SOL    HW226707   4.400   3.963   4.261  0.1291  0.3203  0.1475
 8185SOL     OW26708   2.192   1.097   5.273 -0.0683  0.0484 -0.1221
 8185SOL    HW126709   2.270   1.067   5.319 -0.4041 -0.1867  0.2912
 8185SOL    HW226710   2.207   1.191   5.261  0.0016  0.1187  0.5006
 8186SOL     OW26711   0.463   5.583   1.297  0.1288  0.2081  0.2527
 8186SOL    HW126712   0.486   5.675   1.299 -1.3938  0.6182  1.5766
 8186SOL    HW226713   0.539   5.538   1.334  2.4006  0.4354 -3.6362
 8187SOL     OW26714   9.208   2.590   6.808 -0.7581 -0.2096 -0.5056
 8187SOL    HW126715   9.233   2.526   6.873  3.4747  1.0614 -0.5586
 8187SOL    HW226716   9.233   2.675   6.846 -0.2030  0.7708 -2.8216
 8188SOL     OW26717   5.435   2.141   4.652 -0.1097 -0.4445  0.6328
 8188SOL    HW126718   5.386   2.123   4.572  1.3889 -3.0112  0.1798
 8188SOL    HW226719   5.478   2.225   4.636 -0.9722 -0.2331 -0.6631
 8189SOL     OW26720   8.732   8.725   6.670 -0.2084  0.6498 -0.1491
 8189SOL    HW126721   8.712   8.818   6.665  0.5401  0.8456  0.3918
 8189SOL    HW226722   8.681   8.685   6.599 -0.7585  1.4258 -0.1941
 8190SOL     OW26723   1.028   0.098   4.149 -0.2732 -0.1850 -0.1428
 8190SOL    HW126724   0.964   0.132   4.086 -1.5933  0.4246  1.4349
 8190SOL    HW226725   1.104   0.155   4.140 -1.3347  1.3921  0.3748
 8191SOL     OW26726   0.601   6.403   6.282 -0.2458 -0.1995 -0.1002
 8191SOL    HW126727   0.596   6.357   6.366  1.4899 -0.1665  0.0580
 8191SOL    HW226728   0.668   6.470   6.295 -0.2552  0.0892 -1.3795
 8192SOL     OW26729   9.030   7.909   1.656  0.1691  0.0924  0.0244
 8192SOL    HW126730   9.019   7.967   1.731  2.3135 -1.2406  1.4886
 8192SOL    HW226731   9.119   7.926   1.625 -0.1423 -0.4847 -1.2553
 8193SOL     OW26732   1.694   2.078   2.677  0.1830 -0.2581 -0.2436
 8193SOL    HW126733   1.729   2.038   2.597  0.6459  0.9400 -0.6792
 8193SOL    HW226734   1.620   2.131   2.646  1.9891  2.3856 -0.3851
 8194SOL     OW26735   8.341   6.468   1.099 -0.3041 -0.1879 -0.0527
 8194SOL    HW126736   8.368   6.378   1.078  0.4311  0.1800 -0.7573
 8194SOL    HW226737   8.424   6.516   1.106 -0.7259  0.6899 -0.9045
 8195SOL     OW26738   1.641   7.666   9.364 -0.1776  0.7521  0.0314
 8195SOL    HW126739   1.590   7.746   9.381 -2.0379  0.1551 -2.1897
 8195SOL    HW226740   1.581   7.595   9.388  0.9561 -0.0186  0.6718
 8196SOL     OW26741   3.413   9.318   7.473  0.0418  0.3932 -0.3505
 8196SOL    HW126742   3.371   9.232   7.468  0.4381  0.1496  0.3351
 8196SOL    HW226743   3.368   9.371   7.407 -0.8067 -0.0797 -0.1584
 8197SOL     OW26744   2.293   1.089   1.407  0.0055 -0.1579  0.7409
 8197SOL    HW126745   2.284   1.085   1.312 -0.3943  0.6071  0.7340
 8197SOL    HW226746   2.208   1.058   1.440 -0.3083  0.7519  0.8150
 8198SOL     OW26747   5.028   9.496   0.632 -0.2047  0.0688  0.8000
 8198SOL    HW126748   4.937   9.500   0.660 -0.2735  1.7819  0.4313
 8198SOL    HW226749   5.068   9.432   0.691 -1.2013  0.7620  2.3194
 8199SOL     OW26750   8.907   5.619   8.436 -0.1882 -0.2856  0.4049
 8199SOL    HW126751   8.974   5.611   8.504 -0.0417  0.7344  0.3913
 8199SOL    HW226752   8.885   5.528   8.414  0.0910 -0.6279  1.4797
 8200SOL     OW26753   8.562   6.183   1.618 -0.5103 -0.1235  0.2767
 8200SOL    HW126754   8.621   6.243   1.573  1.4703 -1.9524  0.3048
 8200SOL    HW226755   8.539   6.228   1.699 -0.2742  1.1932 -0.3633
 8201SOL     OW26756   7.590   7.692   5.585  0.7810 -0.0010 -0.5364
 8201SOL    HW126757   7.605   7.605   5.621  1.0082  0.0931 -0.3996
 8201SOL    HW226758   7.521   7.680   5.520  0.2139 -0.1265  0.0825
 8202SOL     OW26759   3.158   6.881   7.124  0.4397 -0.1873 -0.0255
 8202SOL    HW126760   3.213   6.827   7.180 -0.4901  0.1420  1.2387
 8202SOL    HW226761   3.079   6.829   7.110 -0.1792  0.5529  0.6428
 8203SOL     OW26762   7.483   4.825   4.515 -0.0829  0.5148 -0.3307
 8203SOL    HW126763   7.421   4.890   4.483 -3.9499 -2.9518 -0.7416
 8203SOL    HW226764   7.456   4.809   4.605  0.9955 -0.3010 -0.1328
 8204SOL     OW26765   5.596   1.585   5.937  0.1209  0.3919  0.0648
 8204SOL    HW126766   5.565   1.538   6.014 -1.8324  2.1143  0.4226
 8204SOL    HW226767   5.572   1.528   5.864  0.3714 -0.4402  0.6134
 8205SOL     OW26768   1.616   1.845   3.426  0.3650 -0.5099  0.6246
 8205SOL    HW126769   1.579   1.802   3.349  1.2537  0.5847 -0.4750
 8205SOL    HW226770   1.669   1.777   3.468  0.2239 -1.0099  0.0131
 8206SOL     OW26771   3.053   9.446   1.461  0.6676  0.6335 -0.3898
 8206SOL    HW126772   3.063   9.535   1.425  0.7446  0.6299 -0.3781
 8206SOL    HW226773   3.108   9.446   1.539  2.0618  0.0389 -1.3387
 8207SOL     OW26774   6.447   0.359   0.002  0.5321 -0.8550 -0.0346
 8207SOL    HW126775   6.478   0.349   0.093 -0.3941  0.4573  0.4609
 8207SOL    HW226776   6.381   0.291  -0.008 -1.2976  0.6260  1.2206
 8208SOL     OW26777   7.250   4.354   2.106  0.8044 -0.2215 -0.0056
 8208SOL    HW126778   7.193   4.290   2.066 -0.4234 -0.1841  1.5739
 8208SOL    HW226779   7.224   4.438   2.068 -0.2605 -0.1994  0.7341
 8209SOL     OW26780   9.230   7.779   4.716 -0.5590 -0.5329 -0.1341
 8209SOL    HW126781   9.313   7.797   4.672  0.2713  1.1744  1.9741
 8209SOL    HW226782   9.164   7.822   4.660  0.4964  1.8778  0.3327
 8210SOL     OW26783   4.107   9.103   5.343  0.4090  0.3434 -0.1458
 8210SOL    HW126784   4.053   9.069   5.271  1.0196  0.9045 -0.8892
 8210SOL    HW226785   4.089   9.197   5.344 -0.5215  0.1832  1.2588
 8211SOL     OW26786   0.479   0.690   8.003 -0.4770  0.6412  0.4833
 8211SOL    HW126787   0.491   0.651   7.916 -3.5174  0.5875 -0.0045
 8211SOL    HW226788   0.403   0.646   8.040 -0.3433  1.9178  2.4671
 8212SOL     OW26789   5.085   3.056   1.312  0.1422 -0.3448  0.1495
 8212SOL    HW126790   5.022   2.989   1.286 -1.4881  1.0318  0.3712
 8212SOL    HW226791   5.102   3.105   1.231  0.0444 -0.0097  0.3309
 8213SOL     OW26792   5.081   8.746   3.006 -0.2508 -0.2622 -0.6816
 8213SOL    HW126793   5.062   8.810   2.937  1.3848  0.6514 -0.3495
 8213SOL    HW226794   5.047   8.787   3.086 -0.3775 -0.4242 -0.6515
 8214SOL     OW26795   9.552   5.340   6.452 -0.1998 -0.0979  0.1168
 8214SOL    HW126796   9.521   5.310   6.537 -2.2320 -1.0745 -0.8906
 8214SOL    HW226797   9.508   5.424   6.439  0.1976  0.1053  0.0689
 8215SOL     OW26798   5.760   7.537   2.726 -0.0833  0.0093  0.0830
 8215SOL    HW126799   5.826   7.562   2.791 -0.9029 -0.0346  0.9702
 8215SOL    HW226800   5.699   7.481   2.775 -0.0563 -1.0382 -1.0524
 8216SOL     OW26801   2.676   7.128   4.870  0.2521  0.1579  0.3211
 8216SOL    HW126802   2.761   7.144   4.909  2.1919 -3.1713 -1.9769
 8216SOL    HW226803   2.640   7.215   4.852  2.6487  1.6790  2.2794
 8217SOL     OW26804   0.790   2.138   1.709 -0.0744  0.4341  0.0686
 8217SOL    HW126805   0.801   2.228   1.742 -4.6012  1.3927 -0.3693
 8217SOL    HW226806   0.779   2.149   1.614 -0.9781 -0.5239  0.0474
 8218SOL     OW26807   3.337   9.586   6.476 -0.8110 -0.0184 -0.3033
 8218SOL    HW126808   3.330   9.493   6.494  0.9818 -0.6095 -2.2181
 8218SOL    HW226809   3.259   9.607   6.424 -1.1962 -0.4548  0.1014
 8219SOL     OW26810   4.108   8.976   8.396  0.8612  0.1194  0.0517
 8219SOL    HW126811   4.199   8.980   8.368  1.2509  2.5591  1.3858
 8219SOL    HW226812   4.067   9.053   8.356 -0.3713 -0.3500  0.3396
 8220SOL     OW26813   2.142   6.568   0.098 -0.1499  0.0434  0.0324
 8220SOL    HW126814   2.130   6.638   0.162 -1.4567 -0.9486  0.9189
 8220SOL    HW226815   2.159   6.613   0.016  1.4986  1.3544  1.0264
 8221SOL     OW26816   6.985   3.620   1.943 -0.4776  0.1231  0.4444
 8221SOL    HW126817   7.076   3.603   1.918 -0.8893 -0.8033 -0.5130
 8221SOL    HW226818   6.958   3.541   1.990 -0.4103  0.9288  1.8702
 8222SOL     OW26819   7.756   4.491   6.050 -0.1051  0.1905  0.2540
 8222SOL    HW126820   7.811   4.449   6.115 -2.1719 -2.5915  0.4112
 8222SOL    HW226821   7.741   4.580   6.083 -1.1393 -1.1172  3.6830
 8223SOL     OW26822   8.601   7.608   8.072 -0.9822 -0.4259 -0.1261
 8223SOL    HW126823   8.602   7.526   8.122 -1.2541 -1.2748 -1.4634
 8223SOL    HW226824   8.582   7.581   7.983 -0.6235  1.0664 -0.6791
 8224SOL     OW26825   3.068   8.564   7.277  0.8452  0.3373  0.0242
 8224SOL    HW126826   3.042   8.576   7.186 -0.5694 -0.8554  0.2311
 8224SOL    HW226827   2.986   8.569   7.326  1.3994 -0.4893  1.0668
 8225SOL     OW26828   9.399   4.849   2.024  0.2427  0.7582  0.3143
 8225SOL    HW126829   9.322   4.838   2.079  0.7064 -1.2214  0.6128
 8225SOL    HW226830   9.419   4.762   1.991  2.1081  1.3004 -0.1200
 8226SOL     OW26831   8.690   8.118   0.520  0.0108  0.2306  0.2745
 8226SOL    HW126832   8.771   8.077   0.490 -0.8506 -2.1623  1.0429
 8226SOL    HW226833   8.719   8.183   0.584  1.4657  1.4292 -1.4899
 8227SOL     OW26834   7.442   5.882   0.889 -0.4575 -0.6125  0.4673
 8227SOL    HW126835   7.456   5.974   0.867 -2.6868 -0.4659 -0.5873
 8227SOL    HW226836   7.457   5.835   0.807  2.2670 -1.4760  1.3393
 8228SOL     OW26837   1.485   7.890   2.356  0.1537 -0.4108 -0.4105
 8228SOL    HW126838   1.409   7.929   2.312 -0.1430 -0.1209  0.3314
 8228SOL    HW226839   1.456   7.803   2.381  0.1231 -0.3708 -0.3021
 8229SOL     OW26840   0.186   4.941   9.432 -0.0146  0.7962 -0.3316
 8229SOL    HW126841   0.276   4.911   9.425  0.4694  2.2291 -0.5256
 8229SOL    HW226842   0.139   4.893   9.363  0.2565 -1.0095  0.6617
 8230SOL     OW26843   0.049   4.904   6.449  0.2209  0.2158  0.2175
 8230SOL    HW126844   0.142   4.923   6.435  0.4999  0.1206  1.8356
 8230SOL    HW226845   0.020   4.968   6.513 -0.8111  0.1555 -0.1657
 8231SOL     OW26846   0.334   3.155   0.759 -0.0729  0.1845  0.1461
 8231SOL    HW126847   0.244   3.166   0.790  0.4167  2.8316  0.8184
 8231SOL    HW226848   0.382   3.120   0.834 -0.5110 -1.3711 -0.2572
 8232SOL     OW26849   6.618   5.940   8.159 -0.1069 -0.2598  0.2215
 8232SOL    HW126850   6.647   5.920   8.070  0.4567 -3.6366  1.0114
 8232SOL    HW226851   6.692   5.987   8.198  1.1232 -1.8159 -0.1191
 8233SOL     OW26852   5.205   6.039   6.962  0.2062  0.1693 -0.4342
 8233SOL    HW126853   5.195   5.957   6.914  0.3487 -0.3191  0.3535
 8233SOL    HW226854   5.294   6.069   6.942  1.0070 -1.0713  1.0864
 8234SOL     OW26855   8.575   4.949   7.875 -0.5051  0.2475 -0.1572
 8234SOL    HW126856   8.482   4.953   7.895 -0.5557  0.8728 -0.5083
 8234SOL    HW226857   8.611   4.889   7.941 -0.9498  0.9258  0.7217
 8235SOL     OW26858   6.020   6.989   6.212 -0.1582  0.4679 -0.1740
 8235SOL    HW126859   6.055   7.030   6.132 -0.4881 -0.8681 -1.0415
 8235SOL    HW226860   5.930   6.966   6.189 -0.1110 -0.3399  0.4224
 8236SOL     OW26861   6.513   1.285   4.609 -0.1276 -0.2898  0.4192
 8236SOL    HW126862   6.434   1.301   4.662 -1.4152 -1.2689 -1.1059
 8236SOL    HW226863   6.522   1.190   4.608  0.8767 -0.2001  0.2770
 8237SOL     OW26864   4.436   7.212   2.867  0.3745  0.6554  0.5287
 8237SOL    HW126865   4.347   7.192   2.894  0.3105 -1.7557 -1.1571
 8237SOL    HW226866   4.434   7.305   2.845 -1.9163  0.5097 -0.1362
 8238SOL     OW26867   1.381   7.352   3.338  0.3078 -0.1292 -0.4750
 8238SOL    HW126868   1.390   7.265   3.375 -1.3012 -0.4547 -0.7822
 8238SOL    HW226869   1.302   7.387   3.378  0.8246  1.1369 -0.4948
 8239SOL     OW26870   4.527   4.642   5.520  0.0244 -0.6178 -0.2785
 8239SOL    HW126871   4.510   4.619   5.611  0.6986  1.3512  0.4104
 8239SOL    HW226872   4.611   4.601   5.499  0.7084  0.2758  0.5823
 8240SOL     OW26873   1.181   2.411   3.645  0.0304  0.0436 -0.0556
 8240SOL    HW126874   1.092   2.435   3.617 -0.1333 -0.8993 -0.3802
 8240SOL    HW226875   1.174   2.319   3.671  0.7393  0.1963  0.7111
 8241SOL     OW26876   0.003   2.630   2.078 -0.2579 -0.5600 -0.6773
 8241SOL    HW126877  -0.025   2.548   2.117  1.4004  0.3265  2.7740
 8241SOL    HW226878  -0.070   2.690   2.092 -0.7648 -0.9274 -1.6045
 8242SOL     OW26879   0.742   7.293   4.373  0.1452  0.1150 -0.3582
 8242SOL    HW126880   0.793   7.357   4.324 -0.4217  1.0490  0.2403
 8242SOL    HW226881   0.683   7.254   4.309 -1.0549  1.8005 -0.3246
 8243SOL     OW26882   1.624   7.441   4.399 -0.5144  0.0177  0.1570
 8243SOL    HW126883   1.585   7.391   4.327 -0.2948  0.1636 -0.0628
 8243SOL    HW226884   1.708   7.470   4.365 -1.2113  1.7124 -0.2381
 8244SOL     OW26885   0.987   9.117   9.618 -0.3578 -0.0250  0.2271
 8244SOL    HW126886   1.075   9.146   9.642 -0.6277  1.5759 -0.5995
 8244SOL    HW226887   0.948   9.088   9.701  0.6653  0.0019  0.7318
 8245SOL     OW26888   4.520   9.517   6.623  0.6586 -0.1615 -0.2442
 8245SOL    HW126889   4.467   9.446   6.660 -0.3610  0.2034 -0.9617
 8245SOL    HW226890   4.477   9.538   6.540 -0.4503  2.8041  0.9562
 8246SOL     OW26891   7.302   4.033   0.399  0.2116  0.0340  0.9626
 8246SOL    HW126892   7.355   4.106   0.431 -0.5158  0.7644  0.5303
 8246SOL    HW226893   7.216   4.047   0.438 -0.7701  1.0545 -1.3944
 8247SOL     OW26894   3.013   1.941   1.976 -0.0206  0.5189 -0.1361
 8247SOL    HW126895   2.969   1.902   2.052  1.1207  2.2993  1.5356
 8247SOL    HW226896   2.965   2.022   1.960  1.7027  1.7852  0.8221
 8248SOL     OW26897   2.858   7.789   1.290 -0.1996 -0.0248  0.0399
 8248SOL    HW126898   2.827   7.879   1.275 -2.1468 -0.5214  0.6817
 8248SOL    HW226899   2.902   7.765   1.209 -2.0341  0.6145 -1.2381
 8249SOL     OW26900   9.538   2.863   8.405 -0.7999  0.3643  0.5108
 8249SOL    HW126901   9.548   2.812   8.485  2.2471  0.5921  0.3930
 8249SOL    HW226902   9.532   2.954   8.436  0.2218  0.4385  0.5323
 8250SOL     OW26903   7.272   3.185   6.217 -0.1620  0.5605 -0.3190
 8250SOL    HW126904   7.265   3.206   6.310  2.8008  1.0561 -0.1153
 8250SOL    HW226905   7.365   3.171   6.202 -0.7400 -1.3329 -2.8774
 8251SOL     OW26906   9.379   9.129   5.511  0.0013 -0.1981 -0.2440
 8251SOL    HW126907   9.433   9.056   5.480  0.5467 -1.1096  2.5788
 8251SOL    HW226908   9.289   9.103   5.489  0.2050 -1.6502  0.5252
 8252SOL     OW26909   2.048   5.125   7.224 -0.1771  0.5012  0.4119
 8252SOL    HW126910   2.113   5.119   7.295  0.0835  1.6128  0.3004
 8252SOL    HW226911   2.095   5.097   7.146 -0.2479 -0.0364  0.5620
 8253SOL     OW26912   6.435   2.815   5.340  0.1470  0.1528 -0.0107
 8253SOL    HW126913   6.341   2.815   5.324  0.5097 -0.1399 -2.5989
 8253SOL    HW226914   6.453   2.728   5.378 -0.1469 -1.7433 -3.7523
 8254SOL     OW26915   9.210   2.351   6.321 -0.0325 -0.0425 -0.4062
 8254SOL    HW126916   9.250   2.265   6.332 -2.2454 -0.9322  1.5872
 8254SOL    HW226917   9.208   2.388   6.409  0.2654  1.7851 -1.1346
 8255SOL     OW26918   4.811   1.928   4.010  0.0408  0.5253 -0.1770
 8255SOL    HW126919   4.848   1.891   4.091  0.1417  1.4923  0.2451
 8255SOL    HW226920   4.847   1.874   3.940  0.0892 -0.2287  0.4125
 8256SOL     OW26921   2.965   8.386   5.581 -0.2826  0.9770  0.1082
 8256SOL    HW126922   2.993   8.325   5.650 -1.1646  2.6607  2.0656
 8256SOL    HW226923   2.901   8.443   5.624  0.8694  3.6363 -1.4615
 8257SOL     OW26924   8.412   7.851   3.935 -0.1995  0.0831 -0.0407
 8257SOL    HW126925   8.468   7.891   4.002  0.5565  0.2220 -0.7286
 8257SOL    HW226926   8.343   7.916   3.920  0.4975  0.7415 -0.4821
 8258SOL     OW26927   8.196   1.756   6.833 -0.6625 -0.2294 -0.0720
 8258SOL    HW126928   8.131   1.686   6.828 -0.3890 -0.4338 -3.1058
 8258SOL    HW226929   8.280   1.712   6.821 -0.2420  0.3661  0.6041
 8259SOL     OW26930   5.974   3.481   5.982 -0.2516 -0.3614  0.2447
 8259SOL    HW126931   6.058   3.484   6.028  1.2321  1.1387 -2.3336
 8259SOL    HW226932   5.953   3.572   5.965 -1.8594 -0.7835 -0.1574
 8260SOL     OW26933   4.314   4.010   4.656 -0.0709 -0.0861  0.4997
 8260SOL    HW126934   4.327   4.069   4.582 -1.9871  2.2678  1.8890
 8260SOL    HW226935   4.396   4.014   4.705  1.3702 -1.9887 -1.5724
 8261SOL     OW26936   1.649   4.597   9.249 -0.2361  0.0092 -0.0543
 8261SOL    HW126937   1.585   4.621   9.181 -0.4853 -3.2469 -1.1523
 8261SOL    HW226938   1.733   4.594   9.203  1.0121  4.4289  1.4148
 8262SOL     OW26939   0.833   9.004   4.877  0.0578 -0.2004 -0.0501
 8262SOL    HW126940   0.828   8.971   4.788  0.3670  0.1806 -0.2072
 8262SOL    HW226941   0.799   8.932   4.931 -2.0866  0.2789 -0.6320
 8263SOL     OW26942   7.514   4.456   0.302  0.1032 -0.1673 -0.2252
 8263SOL    HW126943   7.564   4.384   0.342  1.6576  0.7113 -0.4932
 8263SOL    HW226944   7.581   4.516   0.269 -1.1558  0.7998 -1.1219
 8264SOL     OW26945   9.359   7.622   5.486 -0.1815  0.0984 -1.0338
 8264SOL    HW126946   9.285   7.562   5.481 -0.4994  0.4379 -0.5025
 8264SOL    HW226947   9.323   7.707   5.460 -0.2293  0.4649  0.1574
 8265SOL     OW26948   1.268   3.430   0.136  0.5367  0.3973 -0.0643
 8265SOL    HW126949   1.337   3.372   0.168  0.0690  0.9141  2.0163
 8265SOL    HW226950   1.290   3.444   0.044  2.1689 -0.8923  0.0688
 8266SOL     OW26951   4.963   7.963   7.149 -0.6127 -0.0953  0.6379
 8266SOL    HW126952   4.901   8.033   7.129  0.7935  0.8911 -0.5083
 8266SOL    HW226953   5.039   8.008   7.186  0.5033 -0.9387 -0.5404
 8267SOL     OW26954   4.840   2.003   4.866  0.5740  0.0762 -0.4366
 8267SOL    HW126955   4.787   1.971   4.939  0.3496  0.0581 -0.6042
 8267SOL    HW226956   4.918   2.040   4.907  0.5815 -0.1886 -0.2064
 8268SOL     OW26957   8.114   4.980   2.382  0.2661 -0.1095 -0.3510
 8268SOL    HW126958   8.116   5.051   2.318  0.4518  1.9685  1.8250
 8268SOL    HW226959   8.154   5.017   2.460  0.7336 -2.7769  0.7826
 8269SOL     OW26960   0.156   2.381   3.312  0.8384  0.0189 -0.2443
 8269SOL    HW126961   0.216   2.315   3.347 -0.0693 -1.1930 -0.8889
 8269SOL    HW226962   0.124   2.343   3.230  0.1606  1.1989 -0.5504
 8270SOL     OW26963   5.197   7.870   1.280 -0.4116 -0.1157  0.3655
 8270SOL    HW126964   5.293   7.876   1.278 -0.3846 -0.7179 -0.5149
 8270SOL    HW226965   5.169   7.929   1.210 -0.7414  0.7829  1.2237
 8271SOL     OW26966   8.400   2.118   1.576 -0.0747  0.0820 -0.5097
 8271SOL    HW126967   8.352   2.118   1.658  0.0586 -1.9450 -0.3774
 8271SOL    HW226968   8.491   2.103   1.601  0.1706  0.7759 -0.9559
 8272SOL     OW26969   9.328   9.183   0.479  0.0845 -0.1131  0.2440
 8272SOL    HW126970   9.260   9.205   0.542 -0.0737  0.8319 -0.2301
 8272SOL    HW226971   9.285   9.122   0.419  0.0260 -0.4706  0.6469
 8273SOL     OW26972   6.855   1.962   4.070  0.7260  0.1509  0.2120
 8273SOL    HW126973   6.775   1.991   4.025  0.4753  0.0049  0.5573
 8273SOL    HW226974   6.915   1.938   3.999  0.5365  0.4516 -0.0553
 8274SOL     OW26975   8.282   7.238   4.388 -0.2454  0.0808 -0.3248
 8274SOL    HW126976   8.210   7.193   4.433  0.6307 -0.3850  0.6637
 8274SOL    HW226977   8.299   7.315   4.442  2.5416 -1.8180  1.7587
 8275SOL     OW26978   4.365   1.486   8.229 -0.3108  0.5060  0.5154
 8275SOL    HW126979   4.452   1.500   8.190  0.5371  0.7479  2.3475
 8275SOL    HW226980   4.308   1.548   8.185  0.3634  0.1491 -0.9251
 8276SOL     OW26981   2.591   9.561   4.456 -0.2646 -0.0222  0.1265
 8276SOL    HW126982   2.608   9.480   4.407 -2.4302 -2.3021  2.8338
 8276SOL    HW226983   2.658   9.562   4.525  0.0662  0.8359 -0.1870
 8277SOL     OW26984   7.180   5.879   0.926  0.0878 -0.5075  0.5483
 8277SOL    HW126985   7.269   5.844   0.926  0.5987  0.6961 -0.2964
 8277SOL    HW226986   7.158   5.888   0.834  0.7707  3.1243  0.5996
 8278SOL     OW26987   4.217   7.567   0.741 -0.0532  0.4326  0.4857
 8278SOL    HW126988   4.308   7.595   0.729  0.1280 -0.3782 -0.1651
 8278SOL    HW226989   4.196   7.522   0.659  0.1421 -2.5821  1.9629
 8279SOL     OW26990   3.106   1.911   2.652  0.4503  0.3688 -0.0418
 8279SOL    HW126991   3.179   1.896   2.712  2.4400  0.3381 -2.3175
 8279SOL    HW226992   3.112   2.004   2.631 -0.0906  0.3293 -0.3760
 8280SOL     OW26993   8.484   1.797   5.731  0.0427  0.5163 -0.4196
 8280SOL    HW126994   8.549   1.730   5.756  1.5898  1.0039 -2.7677
 8280SOL    HW226995   8.409   1.746   5.701  1.6562 -0.3860 -3.3848
 8281SOL     OW26996   3.892   8.447   2.734  0.0234 -0.1755 -0.9779
 8281SOL    HW126997   3.900   8.480   2.823 -1.2044  0.0873 -0.9520
 8281SOL    HW226998   3.980   8.456   2.697  0.9165 -1.6089  0.6263
 8282SOL     OW26999   9.568   4.080   1.422  0.6118  0.1634  0.4868
 8282SOL    HW127000   9.538   4.129   1.498 -0.8426 -0.3734  0.2833
 8282SOL    HW227001   9.563   3.988   1.449 -0.4496 -0.0678 -0.4022
 8283SOL     OW27002   4.905   6.666   1.157 -0.0864 -0.3932  0.0714
 8283SOL    HW127003   4.940   6.600   1.217  0.8033 -0.3651 -0.3877
 8283SOL    HW227004   4.910   6.625   1.070  1.1472  0.4960 -0.3203
 8284SOL     OW27005   5.606   5.146   9.430  0.0975  0.4562 -0.1190
 8284SOL    HW127006   5.619   5.181   9.518  0.3182 -1.4322  0.6372
 8284SOL    HW227007   5.694   5.137   9.394  0.2349 -1.5527  0.6292
 8285SOL     OW27008   9.472   2.073   1.736  0.0284 -1.1425  0.1336
 8285SOL    HW127009   9.537   2.002   1.736  2.6817  1.1114  1.0962
 8285SOL    HW227010   9.488   2.120   1.655  0.5496  0.2110  0.9949
 8286SOL     OW27011   4.221   0.924   9.024 -0.3705 -0.1567  0.2359
 8286SOL    HW127012   4.290   0.979   8.986  0.8912 -2.1821 -0.6053
 8286SOL    HW227013   4.241   0.836   8.993 -2.9162 -0.9675  0.6452
 8287SOL     OW27014   6.173   6.025   7.739 -0.0180  1.0587  0.1629
 8287SOL    HW127015   6.205   5.971   7.811  0.3423 -2.0058 -2.1288
 8287SOL    HW227016   6.222   5.994   7.662 -2.5713  2.0038 -1.9794
 8288SOL     OW27017   3.968   2.322   3.307 -1.4107 -0.0639  0.1542
 8288SOL    HW127018   4.039   2.382   3.284 -1.9769  1.1703  1.4456
 8288SOL    HW227019   3.982   2.245   3.252  0.8465  0.1883  0.2944
 8289SOL     OW27020   3.189   3.445   6.365  0.2818 -0.0655  0.1281
 8289SOL    HW127021   3.237   3.528   6.362  1.5791 -0.7330  1.3657
 8289SOL    HW227022   3.216   3.400   6.285  1.1054 -0.0836  0.4018
 8290SOL     OW27023   8.503   6.851   8.771  0.1530  0.4665  0.1303
 8290SOL    HW127024   8.577   6.824   8.826 -0.4121  0.5415  0.9444
 8290SOL    HW227025   8.435   6.877   8.834 -0.5246  0.5015 -0.6077
 8291SOL     OW27026   0.319   4.402   0.033 -0.3186  0.0313 -0.4815
 8291SOL    HW127027   0.298   4.478   0.087 -0.3185  0.4093 -0.9931
 8291SOL    HW227028   0.382   4.436  -0.031  0.1791 -0.5600 -0.3158
 8292SOL     OW27029   8.022   8.011   4.887 -0.4549 -0.0332 -0.5445
 8292SOL    HW127030   8.071   8.082   4.929 -0.7824 -0.2479  0.2172
 8292SOL    HW227031   8.085   7.970   4.828 -0.6705  1.8271 -2.1612
 8293SOL     OW27032   1.683   6.684   2.348 -0.9550 -0.6526 -0.2461
 8293SOL    HW127033   1.756   6.625   2.331  0.5307  1.3474 -1.0563
 8293SOL    HW227034   1.645   6.701   2.262 -2.8949 -2.1991  0.2177
 8294SOL     OW27035   5.207   9.228   5.415  0.3585 -0.0146 -0.0245
 8294SOL    HW127036   5.255   9.204   5.493  0.4202 -0.9453 -0.3403
 8294SOL    HW227037   5.150   9.153   5.397  1.2920 -0.4044 -1.6098
 8295SOL     OW27038   2.054   6.453   5.235 -0.3090  0.3649 -0.2680
 8295SOL    HW127039   2.015   6.367   5.254  1.3496 -0.6305 -1.1492
 8295SOL    HW227040   1.982   6.515   5.248 -0.7891 -0.7271  3.7146
 8296SOL     OW27041   6.075   4.973   2.526 -0.3611 -0.0924 -0.6094
 8296SOL    HW127042   6.040   4.921   2.599 -1.1622 -0.3512 -1.1614
 8296SOL    HW227043   6.109   5.052   2.567 -1.5724  0.1505 -0.0272
 8297SOL     OW27044   8.998   1.657   4.586  0.1855  0.2144 -0.3801
 8297SOL    HW127045   8.934   1.728   4.586 -0.7216 -0.5571  0.8977
 8297SOL    HW227046   8.948   1.580   4.611  0.9048 -1.1502 -2.7759
 8298SOL     OW27047   7.656   5.923   2.297  0.1952  0.2041  0.7088
 8298SOL    HW127048   7.727   5.984   2.317 -0.1364  1.6038 -1.9108
 8298SOL    HW227049   7.698   5.851   2.250  0.2581 -0.4656  1.7645
 8299SOL     OW27050   3.469   0.231   0.806 -0.1081 -0.5559  0.3861
 8299SOL    HW127051   3.423   0.170   0.747  0.8982 -0.4599 -0.5159
 8299SOL    HW227052   3.519   0.174   0.864  0.3306 -0.6076 -0.0409
 8300SOL     OW27053   1.420   3.510   9.508 -0.8575  0.2443  0.3772
 8300SOL    HW127054   1.506   3.531   9.543 -1.3311 -0.4127  2.0303
 8300SOL    HW227055   1.397   3.585   9.453  0.8518  0.3121 -0.2887
 8301SOL     OW27056   2.627   4.859   1.383 -0.5256  0.2712  0.3877
 8301SOL    HW127057   2.641   4.934   1.325  1.0215  1.3871  2.0954
 8301SOL    HW227058   2.567   4.892   1.450 -0.8904 -0.4492  0.4205
 8302SOL     OW27059   3.636   3.833   2.207  0.4045  0.2042 -0.1612
 8302SOL    HW127060   3.573   3.886   2.157  0.4485  0.3981 -0.0140
 8302SOL    HW227061   3.627   3.745   2.171 -0.4414  0.0841  0.3120
 8303SOL     OW27062   8.025   4.885   3.260 -0.2647  0.1610 -0.4514
 8303SOL    HW127063   7.960   4.816   3.251  0.7835 -0.8752 -0.3977
 8303SOL    HW227064   8.000   4.932   3.339 -1.2162  0.0918 -0.7059
 8304SOL     OW27065   4.146   2.746   3.660  0.2950  0.0344  0.4118
 8304SOL    HW127066   4.091   2.672   3.686  0.0234 -0.0937 -0.4783
 8304SOL    HW227067   4.235   2.716   3.678  0.3026 -1.0973 -1.2142
 8305SOL     OW27068   5.294   5.708   2.905 -0.1385  0.1596  0.4679
 8305SOL    HW127069   5.351   5.777   2.941  1.8646 -1.3554  0.3376
 8305SOL    HW227070   5.217   5.710   2.961  0.5978  1.4108  1.5010
 8306SOL     OW27071   2.113   0.847   3.867  0.3842  0.2383 -0.6733
 8306SOL    HW127072   2.206   0.841   3.886  0.8559  1.4109 -2.3905
 8306SOL    HW227073   2.106   0.833   3.773 -1.1253  0.5661 -0.6388
 8307SOL     OW27074   7.144   5.392   7.430 -0.1043 -0.2898  0.3605
 8307SOL    HW127075   7.067   5.408   7.485 -1.2032  0.3253 -1.2744
 8307SOL    HW227076   7.149   5.468   7.373  0.5112 -1.2569 -0.9321
 8308SOL     OW27077   4.872   8.241   1.667 -0.0110  0.0432 -0.4383
 8308SOL    HW127078   4.875   8.199   1.754  1.0494 -1.8445 -1.3314
 8308SOL    HW227079   4.960   8.276   1.654 -0.4719  1.3080 -0.3426
 8309SOL     OW27080   1.973   1.532   2.927 -0.7166 -0.3334  0.5035
 8309SOL    HW127081   2.016   1.502   2.847 -0.3336  0.2954  0.4640
 8309SOL    HW227082   1.977   1.628   2.921  1.5701 -0.2161  2.4543
 8310SOL     OW27083   4.651   9.064   6.325  0.2389 -0.3884  0.1024
 8310SOL    HW127084   4.576   9.074   6.266  0.0549 -0.3233  0.3442
 8310SOL    HW227085   4.719   9.025   6.270 -0.3907 -1.6835  0.1966
 8311SOL     OW27086   6.157   8.240   7.247  0.4851  0.1870  0.6267
 8311SOL    HW127087   6.123   8.250   7.336  0.9704 -1.3966  1.0238
 8311SOL    HW227088   6.091   8.281   7.191 -1.0246 -0.8679  1.5581
 8312SOL     OW27089   5.554   4.011   8.641 -0.4219 -0.2560  0.0419
 8312SOL    HW127090   5.625   4.050   8.590 -0.5324 -1.3530 -1.0043
 8312SOL    HW227091   5.595   3.982   8.722 -0.1104  0.9439  0.3270
 8313SOL     OW27092   0.650   9.489   5.564  0.6625  0.4402 -0.7372
 8313SOL    HW127093   0.659   9.573   5.518  0.6537  1.1337  0.4723
 8313SOL    HW227094   0.657   9.512   5.657  0.3947 -0.8718 -0.3722
 8314SOL     OW27095   2.869   0.926   5.496 -0.2996  0.0853 -0.0885
 8314SOL    HW127096   2.847   1.010   5.456  0.8964  0.2016 -0.5254
 8314SOL    HW227097   2.804   0.865   5.460  0.6223  0.2248 -2.1233
 8315SOL     OW27098   8.472   1.714   8.109 -0.0618  0.8205 -0.1988
 8315SOL    HW127099   8.377   1.721   8.101 -0.1260  1.3267  0.7711
 8315SOL    HW227100   8.485   1.633   8.159  0.1486 -0.4413 -2.1970
 8316SOL     OW27101   1.342   1.570   9.026  0.1130  0.3453  0.0076
 8316SOL    HW127102   1.292   1.643   9.061  1.7103  1.4686  0.0514
 8316SOL    HW227103   1.433   1.596   9.037  0.7586 -1.9243  0.5879
 8317SOL     OW27104   4.943   6.772   5.413  0.2864 -0.5775  0.1999
 8317SOL    HW127105   4.993   6.853   5.404 -0.1106 -0.0968  1.8684
 8317SOL    HW227106   5.006   6.710   5.450  0.8457 -1.3611 -1.9106
 8318SOL     OW27107   2.570   3.572   6.735  0.4044  0.2133 -0.1804
 8318SOL    HW127108   2.646   3.619   6.770  1.4038 -1.6501  0.2891
 8318SOL    HW227109   2.497   3.634   6.746  1.3974  1.1709  1.6375
 8319SOL     OW27110   1.543   4.329   0.252 -0.0560 -0.3313 -0.0116
 8319SOL    HW127111   1.489   4.321   0.173  0.5647 -1.2432 -0.3637
 8319SOL    HW227112   1.493   4.283   0.319 -0.0751 -0.5222 -0.1534
 8320SOL     OW27113   1.464   8.649   3.845  0.1346  0.2701  0.4717
 8320SOL    HW127114   1.516   8.573   3.871  0.7428  0.5374  0.0544
 8320SOL    HW227115   1.446   8.694   3.928  1.7573  0.9207  0.5257
 8321SOL     OW27116   8.915   4.981   4.338  0.4878 -0.2093 -0.1202
 8321SOL    HW127117   8.844   5.015   4.393  0.1659 -1.6930  0.4315
 8321SOL    HW227118   8.871   4.942   4.263  0.5487 -2.4140  0.9098
 8322SOL     OW27119   3.245   2.809   8.415 -0.2668  0.0219 -0.1591
 8322SOL    HW127120   3.252   2.822   8.509  0.1797 -0.7664 -0.0784
 8322SOL    HW227121   3.165   2.758   8.404  0.9034 -1.9360  0.0171
 8323SOL     OW27122   0.923   8.499   4.118  0.3293  0.5982 -0.5171
 8323SOL    HW127123   0.989   8.488   4.050 -0.3559 -0.2699 -1.0499
 8323SOL    HW227124   0.969   8.544   4.189  1.7059 -0.6957 -0.5557
 8324SOL     OW27125   8.317   8.513   7.007  0.1021 -0.1722  0.2121
 8324SOL    HW127126   8.296   8.433   6.959 -0.2748  0.6900 -1.0987
 8324SOL    HW227127   8.236   8.537   7.051  0.3956 -0.8503  1.1816
 8325SOL     OW27128   4.047   0.426   8.539  0.0538 -0.0578 -0.2434
 8325SOL    HW127129   4.082   0.506   8.578 -0.7510  0.4772 -0.5781
 8325SOL    HW227130   4.118   0.362   8.546 -0.3266 -0.3153  2.9887
 8326SOL     OW27131   1.383   6.497   2.245  0.1307  0.5292 -0.3603
 8326SOL    HW127132   1.382   6.475   2.152 -1.3883  1.0326 -0.4832
 8326SOL    HW227133   1.406   6.414   2.289  1.7270  0.4959 -1.2021
 8327SOL     OW27134   0.720   5.615   3.573  0.2668 -0.1829 -0.0383
 8327SOL    HW127135   0.683   5.579   3.492  0.5255 -0.4074 -0.0588
 8327SOL    HW227136   0.751   5.538   3.621  0.2180 -0.0410  0.2218
 8328SOL     OW27137   5.444   8.682   6.928 -0.3994  0.0146 -0.2585
 8328SOL    HW127138   5.439   8.637   6.844  0.3635  1.5794 -1.1907
 8328SOL    HW227139   5.535   8.712   6.934 -1.0118  1.9705 -0.0002
 8329SOL     OW27140   2.026   8.597   4.047  0.0174 -0.3057 -0.1922
 8329SOL    HW127141   2.035   8.591   4.142 -0.3360  1.3583 -0.0270
 8329SOL    HW227142   1.958   8.533   4.025 -1.9117  1.2243  1.0521
 8330SOL     OW27143   1.257   6.781   6.243 -0.2111 -0.3108 -0.2970
 8330SOL    HW127144   1.256   6.876   6.248 -2.6415 -0.1737 -1.7760
 8330SOL    HW227145   1.283   6.752   6.330  2.1978  1.6459 -0.2464
 8331SOL     OW27146   6.529   5.001   6.185 -0.2182 -0.2449  0.0513
 8331SOL    HW127147   6.525   4.943   6.261 -0.7493  1.6123  1.5203
 8331SOL    HW227148   6.473   5.076   6.208 -1.2242 -0.0462 -2.5870
 8332SOL     OW27149   3.042   2.417   3.510  0.7669 -0.0373 -0.2853
 8332SOL    HW127150   2.953   2.383   3.498  0.9460  0.0273 -2.0138
 8332SOL    HW227151   3.095   2.339   3.525  0.5546 -0.1504 -0.1076
 8333SOL     OW27152   5.912   8.723   1.844 -0.6511 -0.1954  0.2334
 8333SOL    HW127153   5.925   8.686   1.757 -0.7275 -0.0498  0.1586
 8333SOL    HW227154   5.923   8.817   1.832  2.4861 -0.3554  0.9614
 8334SOL     OW27155   8.032   7.617   7.294  0.0610  0.0689 -0.0035
 8334SOL    HW127156   7.939   7.639   7.296  0.1459  0.3927  0.3279
 8334SOL    HW227157   8.068   7.670   7.222 -0.1994 -0.8119 -0.8075
 8335SOL     OW27158   0.050   3.265   0.822  0.3190  0.7201 -0.0423
 8335SOL    HW127159  -0.006   3.200   0.864  1.6785 -0.8758 -0.5505
 8335SOL    HW227160  -0.009   3.317   0.767 -0.8517  0.0754  0.5790
 8336SOL     OW27161   5.816   1.280   0.879  0.3279 -0.4266 -0.9050
 8336SOL    HW127162   5.782   1.355   0.830 -0.8120  0.6820  1.3915
 8336SOL    HW227163   5.907   1.304   0.898 -0.7045  1.7785  2.0305
 8337SOL     OW27164   9.266   3.718   3.551 -0.0056 -0.5773  0.0538
 8337SOL    HW127165   9.212   3.734   3.629 -1.3686 -1.4915 -0.6693
 8337SOL    HW227166   9.261   3.800   3.502  2.1383  0.5788  1.6089
 8338SOL     OW27167   7.483   1.361   4.432  0.0500 -0.1230 -0.1452
 8338SOL    HW127168   7.414   1.422   4.406  0.0611  0.3288  0.8486
 8338SOL    HW227169   7.560   1.387   4.382 -0.9929 -1.9986 -2.9855
 8339SOL     OW27170   6.828   8.665   9.270  0.0941 -0.1412 -0.2209
 8339SOL    HW127171   6.791   8.697   9.188 -1.4077 -1.2646 -0.0288
 8339SOL    HW227172   6.853   8.574   9.252  1.8348  0.2499 -0.0207
 8340SOL     OW27173   2.546   2.438   6.262 -0.0148  0.3350  0.4000
 8340SOL    HW127174   2.621   2.402   6.308  0.6944  2.8763  1.4601
 8340SOL    HW227175   2.569   2.530   6.247 -1.7641  0.5072 -1.8248
 8341SOL     OW27176   2.087   4.320   0.614 -0.2825  0.0790 -0.7313
 8341SOL    HW127177   2.183   4.325   0.616 -0.2180 -1.0330  0.4417
 8341SOL    HW227178   2.068   4.246   0.556 -0.4660  0.8668 -1.6793
 8342SOL     OW27179   8.462   6.635   9.351 -0.1187 -0.1047 -0.6116
 8342SOL    HW127180   8.471   6.587   9.433 -2.0564 -2.2066 -1.5221
 8342SOL    HW227181   8.405   6.709   9.372  0.8237  0.3850  0.2716
 8343SOL     OW27182   7.249   0.338   9.091 -0.3380 -0.2640 -0.3221
 8343SOL    HW127183   7.166   0.383   9.101  0.4938  1.4889 -0.8386
 8343SOL    HW227184   7.231   0.268   9.028 -1.8582 -1.2497  1.1352
 8344SOL     OW27185   3.565   1.140   7.488 -0.5685  0.9446  0.0235
 8344SOL    HW127186   3.632   1.199   7.454  1.7264 -1.4619  0.0165
 8344SOL    HW227187   3.602   1.052   7.476 -4.1024 -0.6270 -0.7259
 8345SOL     OW27188   0.637   3.117   3.837 -0.2954 -0.2718  0.0299
 8345SOL    HW127189   0.586   3.173   3.779  2.8212 -0.0935 -2.7942
 8345SOL    HW227190   0.674   3.177   3.902 -1.5129 -0.0453  0.5592
 8346SOL     OW27191   7.664   1.871   3.184 -0.3252  0.0944 -0.1814
 8346SOL    HW127192   7.726   1.810   3.144 -0.0393  2.2273 -3.3147
 8346SOL    HW227193   7.717   1.947   3.207 -0.9594 -0.0930  2.1324
 8347SOL     OW27194   2.586   4.961   2.811  0.4093  0.4515  0.1197
 8347SOL    HW127195   2.646   4.886   2.809  0.7064  0.6963 -0.3902
 8347SOL    HW227196   2.499   4.923   2.806  0.4908  0.0589  1.4329
 8348SOL     OW27197   7.639   0.596   3.795  0.3139 -0.2662 -0.3742
 8348SOL    HW127198   7.604   0.513   3.827 -0.7783 -0.2914 -1.5223
 8348SOL    HW227199   7.582   0.663   3.834  0.7582 -0.0992 -0.0050
 8349SOL     OW27200   9.470   0.831   7.559 -0.5486  0.1309  0.0001
 8349SOL    HW127201   9.388   0.860   7.598 -0.8155 -0.5533 -0.0284
 8349SOL    HW227202   9.538   0.877   7.607 -0.9219  0.1070  0.5548
 8350SOL     OW27203   1.150   4.949   3.642 -0.0528  0.6009 -0.2623
 8350SOL    HW127204   1.075   5.009   3.645  1.3655  2.4757 -0.6866
 8350SOL    HW227205   1.131   4.884   3.711 -0.5480  2.9127  1.9200
 8351SOL     OW27206   9.040   4.247   1.829  0.2760  0.1402  0.1714
 8351SOL    HW127207   9.065   4.155   1.823  1.3404  0.3494  1.0165
 8351SOL    HW227208   9.091   4.291   1.761 -0.4428  0.0779 -0.4203
 8352SOL     OW27209   3.993   5.004   6.779  0.1912 -0.3111 -0.3454
 8352SOL    HW127210   3.994   5.099   6.788  0.7075 -0.3280 -0.2187
 8352SOL    HW227211   4.045   4.972   6.852 -0.5697 -0.7306  0.0259
 8353SOL     OW27212   9.586   4.680   6.771  0.2415 -0.2131  0.4825
 8353SOL    HW127213   9.656   4.615   6.756 -0.6704 -0.6562 -2.4742
 8353SOL    HW227214   9.632   4.757   6.803  1.6422 -1.5273  1.8662
 8354SOL     OW27215   2.130   1.819   7.698  0.2569 -0.0818 -0.2357
 8354SOL    HW127216   2.212   1.770   7.689 -0.4114 -1.1034 -0.9584
 8354SOL    HW227217   2.090   1.784   7.777  0.4157  0.2757  0.0055
 8355SOL     OW27218   2.004   1.464   6.847  0.3279 -0.2462  0.5686
 8355SOL    HW127219   2.084   1.423   6.812 -1.6031 -1.6255 -2.6808
 8355SOL    HW227220   1.936   1.399   6.831 -2.1391  2.4249 -0.6116
 8356SOL     OW27221   3.623   1.501   6.960  0.4783 -0.3170 -0.1428
 8356SOL    HW127222   3.667   1.573   7.005  0.4207 -0.1755 -0.3082
 8356SOL    HW227223   3.531   1.528   6.955 -0.0221 -1.4651  1.9109
 8357SOL     OW27224   4.568   0.543   8.847  0.4402 -0.1574  0.1512
 8357SOL    HW127225   4.655   0.504   8.836 -0.8437 -2.8214 -1.6211
 8357SOL    HW227226   4.536   0.558   8.758 -1.8329 -1.6469  0.6198
 8358SOL     OW27227   7.765   5.880   1.307 -0.0652  0.1888  0.7182
 8358SOL    HW127228   7.713   5.903   1.384 -1.7995  1.9363 -0.8691
 8358SOL    HW227229   7.701   5.856   1.241  1.3874 -1.3193 -0.2445
 8359SOL     OW27230   2.294   1.479   8.647 -0.3610 -0.0788  0.1226
 8359SOL    HW127231   2.251   1.554   8.606  1.2605 -0.3745 -2.3308
 8359SOL    HW227232   2.349   1.518   8.715 -1.8233  0.6034  0.9678
 8360SOL     OW27233   7.477   2.948   1.736  0.1828 -0.0715  0.0574
 8360SOL    HW127234   7.540   2.877   1.746 -0.8225 -0.9918  0.0070
 8360SOL    HW227235   7.424   2.923   1.660 -0.0604  0.8251 -0.0756
 8361SOL     OW27236   1.544   7.115   4.844  0.0431 -0.7443  0.2521
 8361SOL    HW127237   1.603   7.043   4.822  0.3025 -0.5311  0.2487
 8361SOL    HW227238   1.525   7.156   4.760  0.7205 -0.1706  0.3781
 8362SOL     OW27239   5.395   4.604   7.975  0.0369 -0.1470 -0.3836
 8362SOL    HW127240   5.440   4.551   7.910  1.2371  1.2769 -0.7739
 8362SOL    HW227241   5.465   4.643   8.028 -0.5197  3.2565 -1.8806
 8363SOL     OW27242   9.084   8.840   7.144  0.6804 -0.0351 -0.1188
 8363SOL    HW127243   9.167   8.879   7.116  0.4809  0.1307 -0.4872
 8363SOL    HW227244   9.093   8.747   7.122  0.8380 -0.0498  0.0070
 8364SOL     OW27245   9.605   4.808   1.043  0.2466 -0.4856 -0.1588
 8364SOL    HW127246   9.582   4.729   0.994 -2.0431 -1.0586  1.6620
 8364SOL    HW227247   9.694   4.829   1.014 -0.0553 -2.1776 -2.6492
 8365SOL     OW27248   3.315   0.142   3.152  0.8311  0.0463  0.0458
 8365SOL    HW127249   3.349   0.231   3.146 -0.3383  0.4594 -0.7563
 8365SOL    HW227250   3.238   0.150   3.208  0.1245 -0.2719 -0.8676
 8366SOL     OW27251   0.594   3.835   0.583 -0.5481  0.5302 -0.4002
 8366SOL    HW127252   0.600   3.758   0.527  0.9942  0.7217 -0.5232
 8366SOL    HW227253   0.681   3.845   0.620 -0.8477  1.9611 -0.0270
 8367SOL     OW27254   0.039   5.101   9.091  0.0856 -0.2116 -0.1531
 8367SOL    HW127255   0.033   5.057   9.006  0.7695  0.1039 -0.3681
 8367SOL    HW227256  -0.036   5.161   9.093 -0.6546 -1.1168 -0.0017
 8368SOL     OW27257   1.141   6.968   7.458 -0.2265 -0.3609 -0.0354
 8368SOL    HW127258   1.091   6.896   7.418  1.5853 -1.3927 -0.5705
 8368SOL    HW227259   1.204   6.924   7.515  0.6787  0.8351 -0.0773
 8369SOL     OW27260   1.375   5.036   3.841 -0.5114  0.4871  0.6098
 8369SOL    HW127261   1.286   5.014   3.814 -0.8229  1.9656  0.3607
 8369SOL    HW227262   1.419   4.951   3.848 -1.9981 -0.2962  0.9950
 8370SOL     OW27263   0.929   0.490   8.679 -0.5811  0.3581  0.0813
 8370SOL    HW127264   0.964   0.409   8.640 -1.2321  0.4458 -0.7316
 8370SOL    HW227265   0.918   0.469   8.772  0.8443  0.0780  0.2013
 8371SOL     OW27266   8.495   2.603   0.403  0.6704 -0.8208  0.3726
 8371SOL    HW127267   8.578   2.604   0.449  1.1897 -0.9940 -0.5463
 8371SOL    HW227268   8.513   2.560   0.320  0.1808  1.0584 -0.7686
 8372SOL     OW27269   5.252   5.801   8.331 -0.4241  0.2831 -0.0887
 8372SOL    HW127270   5.157   5.801   8.316 -0.3046 -0.5953 -0.9003
 8372SOL    HW227271   5.268   5.882   8.380 -1.8454 -0.4984  1.7647
 8373SOL     OW27272   5.799   2.725   7.714 -0.7332  0.1865 -0.5118
 8373SOL    HW127273   5.736   2.772   7.769 -1.4205 -0.8795 -0.3562
 8373SOL    HW227274   5.749   2.652   7.677  0.2597 -0.3425 -0.8546
 8374SOL     OW27275   5.654   0.581   6.590 -0.8828  0.5030 -0.3172
 8374SOL    HW127276   5.614   0.655   6.544 -0.6298  0.7333 -0.1742
 8374SOL    HW227277   5.631   0.504   6.538 -1.3461  0.6534 -0.3416
 8375SOL     OW27278   6.004   3.759   1.730  0.0893  0.1085  0.3550
 8375SOL    HW127279   5.957   3.767   1.647  1.9163  0.1093 -0.7489
 8375SOL    HW227280   5.966   3.826   1.786 -0.5594  0.7470 -0.8098
 8376SOL     OW27281   5.093   3.752   1.178  0.1511  0.2396  0.2967
 8376SOL    HW127282   5.004   3.734   1.208 -0.2387  1.9353  0.2519
 8376SOL    HW227283   5.096   3.717   1.089 -1.1124  1.8080 -0.4126
 8377SOL     OW27284   6.476   6.727   2.363  0.1315  0.0277  0.0419
 8377SOL    HW127285   6.450   6.710   2.273 -0.3713  2.4538 -0.3476
 8377SOL    HW227286   6.405   6.782   2.398  1.6340  1.4149  1.0186
 8378SOL     OW27287   8.044   8.022   3.100  0.2928  0.5035 -0.1944
 8378SOL    HW127288   8.020   7.982   3.184  1.8648 -2.4801 -1.0388
 8378SOL    HW227289   7.979   7.990   3.038  1.8184 -1.3190 -0.9683
 8379SOL     OW27290   2.699   8.277   4.746  0.0257 -0.3772 -0.0786
 8379SOL    HW127291   2.780   8.317   4.714 -0.1312 -0.6933 -0.8809
 8379SOL    HW227292   2.634   8.299   4.680 -1.2511  2.2614  1.8437
 8380SOL     OW27293   1.416   4.874   3.573 -0.0768  0.2099 -0.2512
 8380SOL    HW127294   1.483   4.914   3.517  0.8680  0.1218  0.7790
 8380SOL    HW227295   1.346   4.938   3.575 -0.8643 -0.4660 -2.8145
 8381SOL     OW27296   1.325   6.186   1.080  0.5458 -0.1008  0.2430
 8381SOL    HW127297   1.268   6.109   1.076  1.5849 -0.9478  0.9131
 8381SOL    HW227298   1.366   6.190   0.994  1.5853 -1.2161  0.6498
 8382SOL     OW27299   8.384   6.443   0.406  0.5885  0.2165 -0.1450
 8382SOL    HW127300   8.304   6.492   0.419 -0.1762 -1.2084  0.8405
 8382SOL    HW227301   8.378   6.410   0.316  0.9915  1.6460 -0.7233
 8383SOL     OW27302   7.936   0.291   9.109 -0.0604  0.0378  0.0522
 8383SOL    HW127303   7.887   0.340   9.175  0.4458 -0.6665  0.9848
 8383SOL    HW227304   7.904   0.202   9.116 -1.1095  0.2135 -1.7656
 8384SOL     OW27305   9.191   8.958   7.418 -0.0442  0.0115  0.3208
 8384SOL    HW127306   9.213   8.974   7.327 -0.8593  0.0571  0.1203
 8384SOL    HW227307   9.199   8.863   7.429  2.3194  0.2197  0.8388
 8385SOL     OW27308   7.589   9.386   3.026 -0.0374 -0.3142  0.2251
 8385SOL    HW127309   7.509   9.334   3.020  0.0024 -0.3021 -0.6699
 8385SOL    HW227310   7.573   9.447   3.098  0.5984 -2.6624  2.4773
 8386SOL     OW27311   3.413   8.517   6.961  0.0499 -0.5282  0.0030
 8386SOL    HW127312   3.470   8.487   7.032 -1.1912 -2.0338  0.4345
 8386SOL    HW227313   3.382   8.603   6.990 -0.2620 -1.0261  1.2087
 8387SOL     OW27314   9.118   2.730   9.501 -0.2347  0.0246 -0.2516
 8387SOL    HW127315   9.136   2.796   9.434 -1.4651  1.2897  0.6127
 8387SOL    HW227316   9.174   2.656   9.476  1.0978  1.3093 -1.3334
 8388SOL     OW27317   6.434   2.600   2.585  0.3595  0.1897 -0.2221
 8388SOL    HW127318   6.477   2.682   2.561  0.1747  0.0086 -1.1863
 8388SOL    HW227319   6.490   2.564   2.655  1.0550  0.5931 -0.5569
 8389SOL     OW27320   1.169   5.491   2.342 -0.7059 -0.5704 -0.5345
 8389SOL    HW127321   1.136   5.542   2.416  0.5656  0.0567 -0.3720
 8389SOL    HW227322   1.265   5.493   2.353 -0.5487 -1.2108 -1.7043
 8390SOL     OW27323   0.199   3.054   5.418  0.2932  0.2041  0.5083
 8390SOL    HW127324   0.132   3.033   5.483  0.1231 -1.6684 -0.2319
 8390SOL    HW227325   0.159   3.033   5.334  1.5130 -0.1664 -0.0041
 8391SOL     OW27326   2.777   8.474   9.109  0.5539 -0.4585 -0.0429
 8391SOL    HW127327   2.777   8.443   9.018  0.1274 -1.3438  0.2477
 8391SOL    HW227328   2.857   8.527   9.116 -0.0512  0.6871 -1.2767
 8392SOL     OW27329   9.610   0.684   1.387  0.0499  0.0754  0.5226
 8392SOL    HW127330   9.698   0.721   1.401 -0.6724  1.5807  1.3490
 8392SOL    HW227331   9.619   0.592   1.414  1.5742 -0.0501 -0.2724
 8393SOL     OW27332   3.887   8.064   9.435 -0.0298  0.0530 -0.5997
 8393SOL    HW127333   3.875   8.159   9.444  1.1495  0.2409 -0.8894
 8393SOL    HW227334   3.799   8.031   9.415 -0.4021  1.1229 -0.7966
 8394SOL     OW27335   4.767   4.314   3.233 -0.0009  0.2477  0.4658
 8394SOL    HW127336   4.698   4.258   3.198 -1.3054  1.0509  1.6634
 8394SOL    HW227337   4.848   4.265   3.217 -0.9686 -1.3507  0.2714
 8395SOL     OW27338   3.594   8.524   0.843  0.2379  0.1793  0.1807
 8395SOL    HW127339   3.559   8.603   0.884  1.1118  0.1580  0.9917
 8395SOL    HW227340   3.527   8.499   0.778 -0.1403  1.4630  0.0473
 8396SOL     OW27341   0.556   3.834   4.896  0.5136 -0.6634  0.2384
 8396SOL    HW127342   0.602   3.857   4.977  0.2518  0.7282  0.0133
 8396SOL    HW227343   0.546   3.739   4.900  0.9992 -0.6725  1.5736
 8397SOL     OW27344   5.618   9.100   1.895  0.0838  0.1489  0.2445
 8397SOL    HW127345   5.656   9.022   1.937  0.1441 -0.6800 -1.2697
 8397SOL    HW227346   5.552   9.065   1.835 -1.9084  1.4585  1.5650
 8398SOL     OW27347   8.143   7.153   7.714  0.1053 -0.1205  0.3636
 8398SOL    HW127348   8.135   7.245   7.739 -0.5933  0.3154 -1.3513
 8398SOL    HW227349   8.126   7.152   7.620 -0.6913 -2.1172  0.4871
 8399SOL     OW27350   1.562   7.161   5.648 -0.2403  0.2062  0.2239
 8399SOL    HW127351   1.581   7.134   5.558  1.9646 -0.0065  0.7027
 8399SOL    HW227352   1.510   7.089   5.684 -0.6989  0.0545 -0.7039
 8400SOL     OW27353   2.893   1.280   1.830  0.8239 -0.2939  0.1454
 8400SOL    HW127354   2.845   1.361   1.846 -2.1113 -1.9238  0.3688
 8400SOL    HW227355   2.931   1.291   1.743  1.4123  1.6822  0.6098
 8401SOL     OW27356   4.190   2.524   3.235 -0.0930 -0.1301 -0.2336
 8401SOL    HW127357   4.125   2.591   3.259  0.4836 -0.1187  1.3604
 8401SOL    HW227358   4.241   2.510   3.314  0.8720 -1.2744 -1.0261
 8402SOL     OW27359   5.488   5.409   9.392 -0.2993 -0.0697 -0.1360
 8402SOL    HW127360   5.411   5.396   9.336  0.8603 -1.6403 -1.4514
 8402SOL    HW227361   5.545   5.335   9.372  2.3098  1.8845 -0.4190
 8403SOL     OW27362   5.953   8.590   3.396 -0.0504 -0.4090 -0.7960
 8403SOL    HW127363   5.939   8.657   3.463 -0.4189 -0.8304 -0.4481
 8403SOL    HW227364   6.038   8.551   3.419 -0.3590 -0.8265 -0.3265
 8404SOL     OW27365   1.126   5.363   3.122  0.4239  0.2857 -0.4127
 8404SOL    HW127366   1.118   5.450   3.160  1.3007  0.2575 -0.1222
 8404SOL    HW227367   1.148   5.306   3.196  1.0930  0.0441 -0.7753
 8405SOL     OW27368   1.136   4.102   2.381  0.5092  0.2505  0.0347
 8405SOL    HW127369   1.077   4.168   2.418 -1.8681 -0.7140 -1.7508
 8405SOL    HW227370   1.160   4.046   2.455 -0.1864  1.1396  0.9631
 8406SOL     OW27371   4.312   7.191   7.124 -0.1442 -0.2919  0.1202
 8406SOL    HW127372   4.396   7.189   7.077  0.9310  1.1192  1.8305
 8406SOL    HW227373   4.337   7.199   7.216 -2.1684  0.4471  0.6483
 8407SOL     OW27374   5.171   0.735   1.942 -0.4018 -0.2703 -0.2833
 8407SOL    HW127375   5.169   0.670   1.871  1.6189  0.7897 -1.4170
 8407SOL    HW227376   5.097   0.793   1.922 -0.0623 -0.1739 -1.3663
 8408SOL     OW27377   2.581   4.144   6.605 -0.2484 -0.2886 -0.4220
 8408SOL    HW127378   2.543   4.184   6.526  1.5127 -0.5837 -1.4653
 8408SOL    HW227379   2.552   4.201   6.677 -0.5931  0.8906 -1.4658
 8409SOL     OW27380   5.078   6.939   7.805  0.2398 -0.5259 -0.7741
 8409SOL    HW127381   5.145   6.995   7.846  1.9307 -1.2218 -2.4454
 8409SOL    HW227382   5.128   6.866   7.768 -1.4331 -0.9442 -2.3127
 8410SOL     OW27383   7.605   4.752   7.400 -0.0260 -0.2281  0.6226
 8410SOL    HW127384   7.667   4.820   7.427 -1.2222  0.3258  2.1691
 8410SOL    HW227385   7.594   4.765   7.306 -1.7848  3.1627  1.1410
 8411SOL     OW27386   1.995   0.672   4.813  0.0279  0.1598 -0.2240
 8411SOL    HW127387   1.954   0.624   4.741  0.4281  0.6527 -0.7894
 8411SOL    HW227388   1.924   0.721   4.854 -0.2022 -0.1307 -0.2774
 8412SOL     OW27389   8.874   5.355   0.614 -0.0507  0.4764 -0.1662
 8412SOL    HW127390   8.878   5.394   0.527 -1.2112 -1.0099 -0.9381
 8412SOL    HW227391   8.961   5.369   0.651  1.6695 -1.8017 -2.9043
 8413SOL     OW27392   6.638   5.741   3.870  0.4567 -0.6364  0.2000
 8413SOL    HW127393   6.590   5.776   3.795 -1.7434 -2.7630  0.4833
 8413SOL    HW227394   6.730   5.759   3.850 -0.1283 -0.1415 -2.4861
 8414SOL     OW27395   4.162   6.110   8.019 -0.2014 -0.5571 -0.3097
 8414SOL    HW127396   4.162   6.157   8.103 -3.1445  0.4269 -0.7429
 8414SOL    HW227397   4.082   6.139   7.976  1.1459 -1.1119 -3.4610
 8415SOL     OW27398   1.799   5.610   9.295 -0.0741  0.0381  0.2499
 8415SOL    HW127399   1.833   5.563   9.370 -0.9388 -1.8239 -0.4680
 8415SOL    HW227400   1.762   5.542   9.238  0.1753  1.4062 -1.6691
 8416SOL     OW27401   0.934   3.842   2.615  0.3638 -0.3901 -0.2571
 8416SOL    HW127402   0.999   3.772   2.625 -0.7151 -1.4434 -0.4059
 8416SOL    HW227403   0.946   3.872   2.525  0.3161 -0.9250 -0.4464
 8417SOL     OW27404   5.249   2.192   8.204  0.2228  0.0149  0.2872
 8417SOL    HW127405   5.218   2.221   8.290 -0.5948  0.1789 -0.0527
 8417SOL    HW227406   5.333   2.237   8.192 -1.0852  2.4555 -0.3202
 8418SOL     OW27407   9.226   3.538   7.667 -0.2677  0.3574 -0.0194
 8418SOL    HW127408   9.279   3.586   7.731  0.0820 -1.0023  0.7410
 8418SOL    HW227409   9.137   3.541   7.703  0.1684 -1.6737  1.3636
 8419SOL     OW27410   6.647   6.163   5.904  0.1471 -0.0603 -0.6043
 8419SOL    HW127411   6.685   6.081   5.872  1.1205  0.1360  0.0078
 8419SOL    HW227412   6.567   6.136   5.949 -0.2222 -0.5328 -1.5072
 8420SOL     OW27413   1.211   3.768   9.155  0.0682 -0.1767 -0.3664
 8420SOL    HW127414   1.149   3.841   9.168  0.9417  0.4388  0.4496
 8420SOL    HW227415   1.174   3.719   9.082 -2.2138 -0.7107  1.0379
 8421SOL     OW27416   7.724   3.317   5.543 -0.1904 -0.4648 -0.1912
 8421SOL    HW127417   7.654   3.331   5.480 -2.3228 -1.0407  1.8879
 8421SOL    HW227418   7.727   3.398   5.594  0.1350 -0.7150  0.1918
 8422SOL     OW27419   8.015   7.479   5.708  0.5464  0.0085  0.0104
 8422SOL    HW127420   7.962   7.538   5.762  1.3028 -0.5045  1.3844
 8422SOL    HW227421   7.951   7.424   5.662 -0.1382  0.9431 -0.1694
 8423SOL     OW27422   8.419   7.692   5.429 -0.5808 -0.7865  0.1819
 8423SOL    HW127423   8.352   7.716   5.491  0.6995  1.1644  0.8896
 8423SOL    HW227424   8.372   7.681   5.346 -1.7745  0.5424  0.6410
 8424SOL     OW27425   6.386   8.539   2.899 -0.6197 -1.2088 -0.2917
 8424SOL    HW127426   6.471   8.571   2.928 -0.8840 -1.4158  0.7184
 8424SOL    HW227427   6.331   8.539   2.977 -1.7484 -0.4721 -1.0467
 8425SOL     OW27428   4.670   2.634   7.321  0.1288 -0.0310 -0.6420
 8425SOL    HW127429   4.594   2.619   7.265 -0.5041  1.9915 -0.3907
 8425SOL    HW227430   4.634   2.643   7.409  0.9641 -1.6109 -0.0890
 8426SOL     OW27431   9.582   3.591   9.021  0.1514  0.3606  0.8377
 8426SOL    HW127432   9.488   3.571   9.028  0.3610 -2.7918 -2.3636
 8426SOL    HW227433   9.613   3.590   9.111 -2.4870 -0.9837  1.8696
 8427SOL     OW27434   1.375   0.565   0.754 -0.1428 -0.2597 -0.1973
 8427SOL    HW127435   1.325   0.620   0.694 -0.0254  0.5208  0.4023
 8427SOL    HW227436   1.321   0.486   0.763 -0.8286  0.1831 -0.2769
 8428SOL     OW27437   1.735   2.099   9.156  0.4245  0.0344 -0.5083
 8428SOL    HW127438   1.734   2.100   9.060 -0.8246  2.9103 -0.5470
 8428SOL    HW227439   1.828   2.098   9.179  0.7677  1.0689 -1.7758
 8429SOL     OW27440   6.505   8.978   6.160 -0.4765  0.2271  0.4889
 8429SOL    HW127441   6.552   9.035   6.221 -1.1951  0.1183  1.1700
 8429SOL    HW227442   6.527   9.011   6.073  0.2194  0.6679  0.8264
 8430SOL     OW27443   9.575   8.192   6.459  0.0138  0.2108 -0.5087
 8430SOL    HW127444   9.623   8.143   6.392 -0.4153  0.0606 -0.7080
 8430SOL    HW227445   9.483   8.177   6.439 -0.1281 -0.5848  0.6600
 8431SOL     OW27446   0.288   8.294   9.505 -0.3390  0.1776 -0.3067
 8431SOL    HW127447   0.204   8.286   9.550  0.1252  0.5998  0.6591
 8431SOL    HW227448   0.276   8.366   9.443 -1.2111 -0.8809 -1.4218
 8432SOL     OW27449   3.440   0.415   3.541  0.8090 -0.3250  0.2639
 8432SOL    HW127450   3.416   0.324   3.521 -0.6366  0.2029 -0.5090
 8432SOL    HW227451   3.536   0.413   3.547  0.8091 -1.8955  0.2808
 8433SOL     OW27452   7.698   1.529   7.694  0.5197  0.0673  0.5358
 8433SOL    HW127453   7.665   1.604   7.644  1.0791 -0.2212 -0.3052
 8433SOL    HW227454   7.746   1.477   7.629  1.7184 -0.0568  1.4816
 8434SOL     OW27455   6.979   6.992   9.021 -0.7000  0.3491 -0.1317
 8434SOL    HW127456   6.918   6.926   9.053 -1.7351  2.1058  1.7818
 8434SOL    HW227457   6.963   7.068   9.077  2.8922  1.0873  0.1221
 8435SOL     OW27458   2.004   2.633   2.682 -0.5196 -0.7252 -0.5275
 8435SOL    HW127459   1.994   2.542   2.711  0.2023 -1.2079 -1.7109
 8435SOL    HW227460   2.088   2.660   2.720 -0.3159 -0.8411 -0.8986
 8436SOL     OW27461   3.631   2.723   8.496 -0.9510  0.1046 -0.2191
 8436SOL    HW127462   3.643   2.811   8.463  0.2202  0.1609  0.3189
 8436SOL    HW227463   3.689   2.717   8.572 -1.0693 -1.0961 -0.1949
 8437SOL     OW27464   2.146   3.009   8.124 -0.0191 -0.6739  0.2074
 8437SOL    HW127465   2.128   3.063   8.048  0.5363 -0.2724  0.3577
 8437SOL    HW227466   2.191   3.067   8.185  1.3157 -1.5020  0.0563
 8438SOL     OW27467   1.246   0.561   9.612 -0.0801 -0.5025  0.1338
 8438SOL    HW127468   1.246   0.647   9.653  0.2225 -0.1689 -0.5490
 8438SOL    HW227469   1.315   0.512   9.658 -0.7516 -0.6308  1.0182
 8439SOL     OW27470   6.271   1.946   5.207  0.7247  0.1051  0.0801
 8439SOL    HW127471   6.328   1.915   5.277  2.5203  1.3720 -0.7650
 8439SOL    HW227472   6.319   1.928   5.127 -0.8336 -0.3315 -0.7945
 8440SOL     OW27473   8.234   4.693   0.302  0.1184 -0.0889  0.4131
 8440SOL    HW127474   8.164   4.644   0.259 -1.9104  2.6692  0.3005
 8440SOL    HW227475   8.203   4.704   0.392  1.2590 -0.3423  0.8426
 8441SOL     OW27476   0.381   8.007   5.765  0.4562 -0.1465  0.0494
 8441SOL    HW127477   0.439   8.081   5.779 -0.6536  0.9293 -0.7670
 8441SOL    HW227478   0.360   7.976   5.853  1.3629  0.1568  0.3831
 8442SOL     OW27479   4.832   5.113   9.348 -0.6544  0.0177 -0.0007
 8442SOL    HW127480   4.750   5.159   9.337 -1.1232 -0.8690 -0.3423
 8442SOL    HW227481   4.863   5.139   9.435 -1.2995  0.3417  0.1392
 8443SOL     OW27482   6.473   8.087   1.696 -0.2324 -0.3333 -0.2501
 8443SOL    HW127483   6.457   8.177   1.667  0.7267 -0.1100 -0.1170
 8443SOL    HW227484   6.543   8.094   1.760  1.6890 -1.4044 -2.0873
 8444SOL     OW27485   2.209   1.264   3.517 -0.4476 -0.1876  0.3099
 8444SOL    HW127486   2.282   1.314   3.480  1.5826 -1.7822  1.8802
 8444SOL    HW227487   2.138   1.327   3.526  1.2691  1.8582  0.1586
 8445SOL     OW27488   2.084   5.268   9.173  0.1617  0.3209 -0.1681
 8445SOL    HW127489   2.102   5.325   9.099 -1.3857  1.2894  0.1564
 8445SOL    HW227490   2.136   5.189   9.156 -0.0978  0.5397 -2.2397
 8446SOL     OW27491   1.836   0.001   0.095 -0.1979 -0.2845  0.1339
 8446SOL    HW127492   1.764   0.034   0.040 -1.0202  1.0677  1.9277
 8446SOL    HW227493   1.793  -0.046   0.166  0.2863  3.5029  3.2400
 8447SOL     OW27494   6.167   7.187   5.207  0.5331 -0.1168 -0.1398
 8447SOL    HW127495   6.075   7.195   5.232  0.8496  1.9277  0.5847
 8447SOL    HW227496   6.211   7.165   5.289  0.8518  0.4356 -0.1594
 8448SOL     OW27497   3.231   5.907   8.178  0.4089  0.5177  0.0957
 8448SOL    HW127498   3.139   5.927   8.192  0.2953 -0.3795  0.6683
 8448SOL    HW227499   3.255   5.849   8.250  0.9207 -0.8245 -1.0956
 8449SOL     OW27500   4.655   9.409   6.182  0.1709 -0.2296 -0.2381
 8449SOL    HW127501   4.703   9.426   6.101 -0.0369  0.5800 -0.1958
 8449SOL    HW227502   4.719   9.365   6.238  0.5818 -0.0092 -0.5266
 8450SOL     OW27503   3.016   1.895   0.632 -0.1806 -0.8189 -0.2070
 8450SOL    HW127504   2.965   1.817   0.655  1.0016 -1.3693  0.6248
 8450SOL    HW227505   3.027   1.942   0.715  2.0515 -1.5647 -0.0166
 8451SOL     OW27506   8.138   5.207   3.145  0.1151  0.0649  0.0214
 8451SOL    HW127507   8.057   5.159   3.128  1.0794 -1.8478  0.5363
 8451SOL    HW227508   8.170   5.233   3.058  0.1778 -1.3196 -0.3924
 8452SOL     OW27509   2.919   2.534   3.040  0.0954 -0.1983  0.0716
 8452SOL    HW127510   2.982   2.510   3.107 -1.3194  0.7158  1.8227
 8452SOL    HW227511   2.944   2.622   3.014  1.0452 -0.7957 -1.1652
 8453SOL     OW27512   0.130   7.290   4.326  0.2169  0.0344 -0.4154
 8453SOL    HW127513   0.222   7.307   4.349 -0.2626  2.7586 -0.2033
 8453SOL    HW227514   0.100   7.226   4.390  0.9946  1.8639  1.9066
 8454SOL     OW27515   3.007   2.378   1.321 -0.0253  0.3960 -0.2833
 8454SOL    HW127516   3.081   2.383   1.381 -1.3946  2.8268  1.3821
 8454SOL    HW227517   2.956   2.303   1.351  0.6193  0.0752  0.0032
 8455SOL     OW27518   1.426   1.510   3.051  0.2529 -0.4839  0.5619
 8455SOL    HW127519   1.466   1.423   3.040  2.1998  0.5992 -1.9641
 8455SOL    HW227520   1.480   1.568   2.998 -1.8599  2.0495  0.9765
 8456SOL     OW27521   6.799   9.004   9.466 -0.2256  0.4180 -0.2252
 8456SOL    HW127522   6.798   8.923   9.416 -0.0287  0.6484 -0.6062
 8456SOL    HW227523   6.709   9.015   9.496 -0.1859 -0.1066  0.0981
 8457SOL     OW27524   0.867   7.186   8.235  0.3847  0.5398  0.0293
 8457SOL    HW127525   0.884   7.095   8.210 -0.0781 -0.0340  1.6612
 8457SOL    HW227526   0.932   7.205   8.302 -1.8459  0.0542  2.5152
 8458SOL     OW27527   0.992   5.606   2.548  0.2684  0.2616  0.3663
 8458SOL    HW127528   1.068   5.612   2.607 -0.2163  4.4497  0.9095
 8458SOL    HW227529   0.926   5.560   2.600  1.5130 -0.9467  0.9611
 8459SOL     OW27530   9.177   3.693   3.838 -0.2479 -0.1425  0.5611
 8459SOL    HW127531   9.132   3.621   3.882 -2.1614  1.0783  0.7259
 8459SOL    HW227532   9.241   3.724   3.903 -0.2818 -0.8924  0.9637
 8460SOL     OW27533   3.003   5.949   7.787  0.5145 -0.4945 -0.2284
 8460SOL    HW127534   2.998   6.012   7.858  1.4743 -1.0650  0.3604
 8460SOL    HW227535   2.913   5.945   7.753  0.2290  0.4260  0.3709
 8461SOL     OW27536   0.099   5.989   0.363  0.1541  0.2259 -0.4144
 8461SOL    HW127537   0.097   6.045   0.441  0.2879 -2.1351  1.4117
 8461SOL    HW227538   0.192   5.966   0.352  0.3156  1.4921 -2.0702
 8462SOL     OW27539   7.734   2.113   8.050 -0.1539  0.7474 -0.2366
 8462SOL    HW127540   7.646   2.079   8.064 -0.2003  1.3592  1.1277
 8462SOL    HW227541   7.787   2.073   8.119  0.4946  0.9425 -0.6032
 8463SOL     OW27542   2.636   8.115   0.484  0.1386  0.3761  0.3221
 8463SOL    HW127543   2.548   8.125   0.520  0.4695  1.0100  0.9783
 8463SOL    HW227544   2.641   8.024   0.455 -0.6990  0.3159  0.3633
 8464SOL     OW27545   9.086   1.268   8.434 -0.1711  0.1226  0.2998
 8464SOL    HW127546   9.161   1.210   8.425 -0.2750 -0.3410  2.0954
 8464SOL    HW227547   9.014   1.221   8.392 -0.1057 -0.7707  1.1584
 8465SOL     OW27548   0.053   0.153   4.762  0.1357  0.2004 -0.1378
 8465SOL    HW127549   0.148   0.144   4.763  0.0337 -1.4573  2.1004
 8465SOL    HW227550   0.023   0.086   4.701  0.3497  0.0215 -0.0464
 8466SOL     OW27551   2.741   3.324   7.864 -0.4262  0.2406 -0.0570
 8466SOL    HW127552   2.714   3.416   7.857 -1.0037 -0.0437 -3.2721
 8466SOL    HW227553   2.661   3.274   7.850 -0.0421 -0.8076  1.2279
 8467SOL     OW27554   5.583   7.545   3.648  0.0144 -0.0838  0.6635
 8467SOL    HW127555   5.554   7.619   3.702 -1.0575  0.8608 -1.1297
 8467SOL    HW227556   5.632   7.585   3.576  1.6289 -1.3344  0.9934
 8468SOL     OW27557   1.574   8.850   1.306  0.2217 -0.4010 -0.0313
 8468SOL    HW127558   1.633   8.894   1.245  1.4347 -0.9454  0.7148
 8468SOL    HW227559   1.555   8.765   1.265  0.3247 -0.4110 -0.0581
 8469SOL     OW27560   1.118   8.668   8.954 -0.2059 -0.4885  1.0468
 8469SOL    HW127561   1.174   8.606   9.001 -0.6351 -0.1980  1.9636
 8469SOL    HW227562   1.158   8.675   8.867  1.4587  0.0797  1.8227
 8470SOL     OW27563   0.908   2.622   8.433 -0.0771 -0.0177 -0.1900
 8470SOL    HW127564   0.965   2.698   8.444 -0.9331  0.5994  0.1480
 8470SOL    HW227565   0.952   2.568   8.368  1.4968 -0.1753  0.9486
 8471SOL     OW27566   4.611   9.492   6.952  0.0969 -0.0360 -0.5581
 8471SOL    HW127567   4.597   9.582   6.983 -0.7863 -0.0145 -0.9946
 8471SOL    HW227568   4.704   9.490   6.929 -0.1577  1.2144 -1.8758
 8472SOL     OW27569   7.480   3.580   0.378 -0.3509  0.3957 -0.3824
 8472SOL    HW127570   7.561   3.631   0.373 -0.4756  0.8003  1.2217
 8472SOL    HW227571   7.448   3.576   0.288  0.2506  2.1998 -0.7083
 8473SOL     OW27572   1.543   5.244   3.778 -0.2685 -0.3173  0.1999
 8473SOL    HW127573   1.483   5.186   3.825  0.8840 -1.1919  0.6406
 8473SOL    HW227574   1.500   5.259   3.694 -0.5374 -1.9652  0.0051
 8474SOL     OW27575   0.882   8.291   1.356  0.1236  0.7588  0.4134
 8474SOL    HW127576   0.795   8.296   1.317 -0.0855 -1.7146  0.4018
 8474SOL    HW227577   0.890   8.201   1.386  1.5738  1.6641  3.1024
 8475SOL     OW27578   2.284   0.842   8.018 -1.0337  0.2681  0.3517
 8475SOL    HW127579   2.310   0.785   8.090 -1.2671  0.2532  0.4257
 8475SOL    HW227580   2.205   0.885   8.049 -1.1578  0.2339  0.0891
 8476SOL     OW27581   7.433   5.641   2.816  0.2826 -0.3826  0.9248
 8476SOL    HW127582   7.482   5.651   2.734  0.5148  0.1097  1.1212
 8476SOL    HW227583   7.471   5.564   2.857  1.0608  0.1309  1.1864
 8477SOL     OW27584   1.523   8.679   8.453 -0.1207  0.2678 -0.3684
 8477SOL    HW127585   1.612   8.651   8.476 -0.6474 -0.8764  0.3199
 8477SOL    HW227586   1.536   8.737   8.378  1.1280 -0.7630 -0.9963
 8478SOL     OW27587   5.570   0.931   6.761  0.0608  0.0268 -0.3460
 8478SOL    HW127588   5.485   0.905   6.796  0.3277  1.2847  1.3351
 8478SOL    HW227589   5.582   1.021   6.790  1.5366  0.2165 -1.4129
 8479SOL     OW27590   9.590   5.936   0.742  0.2378 -0.8008  0.0914
 8479SOL    HW127591   9.599   6.019   0.694 -2.3922 -0.7477 -0.4250
 8479SOL    HW227592   9.587   5.869   0.674 -0.8127 -0.9872  0.3051
 8480SOL     OW27593   6.241   0.884   5.505  0.5046  0.6221 -0.3054
 8480SOL    HW127594   6.276   0.965   5.468  1.2453  0.1850 -0.5990
 8480SOL    HW227595   6.240   0.823   5.431  2.1268 -0.3082  0.3785
 8481SOL     OW27596   8.009   6.210   2.023  0.2766  0.3880  0.0813
 8481SOL    HW127597   8.004   6.260   1.941  0.1141 -0.1475 -0.2414
 8481SOL    HW227598   7.997   6.275   2.092 -0.8887  0.6578 -0.3533
 8482SOL     OW27599   7.627   4.427   2.614  0.1399  0.3846 -0.2010
 8482SOL    HW127600   7.687   4.408   2.542 -0.1516  0.6927 -0.5257
 8482SOL    HW227601   7.540   4.404   2.580  0.0530  0.0674  0.2229
 8483SOL     OW27602   1.863   4.922   3.064  0.1137  0.1082  0.5148
 8483SOL    HW127603   1.862   4.934   2.969  0.3120  2.3464  0.7474
 8483SOL    HW227604   1.945   4.877   3.082  0.4243  0.3342 -0.3108
 8484SOL     OW27605   6.111   4.577   1.226 -0.0583  0.3470 -0.1556
 8484SOL    HW127606   6.125   4.605   1.135 -2.3688  2.5863  0.0744
 8484SOL    HW227607   6.033   4.523   1.223 -0.5542  0.9998  0.5527
 8485SOL     OW27608   7.580   5.996   1.570  0.1758  0.2506 -0.0579
 8485SOL    HW127609   7.500   5.999   1.623  0.1324  0.5488 -0.1393
 8485SOL    HW227610   7.557   6.042   1.489 -0.4125 -1.9705 -1.2379
 8486SOL     OW27611   0.594   7.730   9.166 -0.3519  0.4237  0.0196
 8486SOL    HW127612   0.623   7.799   9.106 -0.2861  1.3445  1.0763
 8486SOL    HW227613   0.567   7.776   9.245 -0.2421 -0.7705  0.7894
 8487SOL     OW27614   6.177   1.843   7.713 -0.2391  0.3233  0.6793
 8487SOL    HW127615   6.254   1.851   7.656 -0.4736 -0.4779  0.2378
 8487SOL    HW227616   6.201   1.776   7.776 -0.6788 -0.1354  0.3646
 8488SOL     OW27617   3.411   1.065   6.522 -0.3654 -0.7253  0.1401
 8488SOL    HW127618   3.356   1.091   6.596  0.0783  1.7538 -0.3262
 8488SOL    HW227619   3.472   1.002   6.559  1.1529  1.8822  2.4566
 8489SOL     OW27620   4.164   6.034   5.227  0.6953 -0.3658  0.8285
 8489SOL    HW127621   4.196   6.096   5.292  1.1195 -1.8577  2.0773
 8489SOL    HW227622   4.241   6.009   5.177  0.6437 -0.4011  0.7663
 8490SOL     OW27623   3.074   8.297   0.384 -0.1858 -0.0276  0.5234
 8490SOL    HW127624   3.039   8.211   0.407  1.5754 -1.0433 -0.3333
 8490SOL    HW227625   3.010   8.334   0.323 -1.1259 -0.5754  1.1611
 8491SOL     OW27626   8.325   3.012   9.195  0.6223 -0.2252  0.4145
 8491SOL    HW127627   8.338   3.092   9.246  0.9634 -0.6663  1.0420
 8491SOL    HW227628   8.276   2.954   9.254  0.6688 -0.5928  0.0947
 8492SOL     OW27629   5.278   1.537   0.985  0.8063 -0.0685  0.1704
 8492SOL    HW127630   5.306   1.509   0.898 -0.1345  0.0293 -0.1733
 8492SOL    HW227631   5.244   1.625   0.972  2.3176  0.6707  0.9754
 8493SOL     OW27632   9.167   9.225   1.183 -0.2040 -0.1607 -0.7087
 8493SOL    HW127633   9.152   9.226   1.088  0.0459 -3.2518 -0.8819
 8493SOL    HW227634   9.243   9.169   1.195  0.0255  0.5119  1.3341
 8494SOL     OW27635   3.958   7.842   3.645 -0.1619 -0.0377 -0.1587
 8494SOL    HW127636   3.995   7.783   3.711  0.6536 -0.7575 -1.2270
 8494SOL    HW227637   4.000   7.927   3.663 -0.2252 -0.1291  0.4580
 8495SOL     OW27638   5.603   9.537   1.075 -0.0163 -0.1404  0.9750
 8495SOL    HW127639   5.514   9.541   1.108 -0.7262 -0.7445 -0.7256
 8495SOL    HW227640   5.602   9.464   1.012  1.6246 -0.0457  0.7811
 8496SOL     OW27641   1.674   2.007   6.993 -0.0316 -0.0961  0.0353
 8496SOL    HW127642   1.661   2.034   7.084 -2.0137 -0.4748 -0.0863
 8496SOL    HW227643   1.669   2.089   6.943  0.9282  0.0958  0.2286
 8497SOL     OW27644   8.659   6.486   8.908 -0.0129 -0.1186 -0.0459
 8497SOL    HW127645   8.715   6.460   8.835 -0.3982  0.1069 -0.4238
 8497SOL    HW227646   8.678   6.422   8.976  0.2486 -0.4114 -0.3888
 8498SOL     OW27647   6.425   0.107   9.302 -0.0997  0.1227 -0.0470
 8498SOL    HW127648   6.378   0.055   9.237  0.8551 -0.4249 -0.3192
 8498SOL    HW227649   6.469   0.175   9.251  2.9208 -1.9327 -0.4156
 8499SOL     OW27650   7.030   2.079   4.339  0.2969 -0.3159 -0.0301
 8499SOL    HW127651   7.057   2.026   4.264  0.7595  0.8002 -0.6730
 8499SOL    HW227652   7.096   2.059   4.406  0.1880 -0.9051 -0.0876
 8500SOL     OW27653   9.322   5.125   2.722  0.0887 -0.5295  0.2092
 8500SOL    HW127654   9.399   5.180   2.732 -1.1626  1.1745  0.8968
 8500SOL    HW227655   9.269   5.144   2.799 -1.5239 -0.8160 -0.7846
 8501SOL     OW27656   1.565   9.393   5.193 -0.9500  0.0258  0.4012
 8501SOL    HW127657   1.584   9.486   5.183 -3.1479  0.6753  1.5996
 8501SOL    HW227658   1.614   9.367   5.271 -0.2106  0.1356 -0.0233
 8502SOL     OW27659   2.516   5.731   8.819  0.0535 -0.3133 -0.1747
 8502SOL    HW127660   2.459   5.808   8.818 -0.6545 -0.8250 -0.3292
 8502SOL    HW227661   2.512   5.696   8.730 -0.5352 -1.1642  0.1739
 8503SOL     OW27662   9.040   3.349   0.118  0.0483  0.3717 -0.2434
 8503SOL    HW127663   8.986   3.273   0.136  0.9816 -0.7693 -1.9719
 8503SOL    HW227664   9.064   3.384   0.204 -0.5131 -1.1946  0.5744
 8504SOL     OW27665   2.550   8.119   6.001 -0.0813  0.0602  0.6423
 8504SOL    HW127666   2.464   8.148   6.031 -0.4049 -1.1024  0.8847
 8504SOL    HW227667   2.572   8.179   5.930 -1.9775 -0.8155 -0.7585
 8505SOL     OW27668   9.580   1.650   2.723  0.3085  0.0357 -0.2440
 8505SOL    HW127669   9.615   1.728   2.767  0.5583 -0.5322  0.5895
 8505SOL    HW227670   9.612   1.576   2.775  0.3327 -0.6522 -1.2044
 8506SOL     OW27671   2.113   5.755   8.235 -0.6151 -0.1734  0.2896
 8506SOL    HW127672   2.075   5.677   8.276  0.0656 -1.2305 -1.0200
 8506SOL    HW227673   2.042   5.793   8.185 -0.2850 -1.5946 -1.3596
 8507SOL     OW27674   3.983   5.719   7.807 -0.4688 -0.4138 -0.2824
 8507SOL    HW127675   4.030   5.732   7.725  0.3342 -0.0028  0.2249
 8507SOL    HW227676   4.034   5.767   7.872 -0.7363 -1.2443  0.5723
 8508SOL     OW27677   4.021   2.077   1.402  0.0422  0.1715  0.7384
 8508SOL    HW127678   3.993   2.101   1.491  0.9874  1.5242  0.7045
 8508SOL    HW227679   4.073   2.151   1.373  1.5769 -1.1714 -0.1283
 8509SOL     OW27680   6.098   2.877   1.681 -0.3037  0.7918  0.2114
 8509SOL    HW127681   6.099   2.962   1.637  2.3733  3.1753  4.2132
 8509SOL    HW227682   6.016   2.876   1.731 -0.2865  1.0990  0.2464
 8510SOL     OW27683   2.461   1.618   6.659 -0.0845 -0.2603  0.4597
 8510SOL    HW127684   2.492   1.528   6.648  0.3022  0.0156 -0.7545
 8510SOL    HW227685   2.539   1.672   6.653 -0.5874  0.3304 -1.2189
 8511SOL     OW27686   4.650   5.363   7.434  0.1283  0.4317  0.5776
 8511SOL    HW127687   4.670   5.378   7.342 -0.2776 -0.3314  0.3607
 8511SOL    HW227688   4.727   5.396   7.481  1.0641 -0.6559 -0.1225
 8512SOL     OW27689   5.265   4.412   0.954  0.1285  0.1858 -0.5056
 8512SOL    HW127690   5.274   4.317   0.953 -0.7167  0.0985 -0.2378
 8512SOL    HW227691   5.171   4.427   0.954  0.2418  1.0360 -1.6262
 8513SOL     OW27692   5.211   2.729   7.616 -0.2913  1.1462  0.2778
 8513SOL    HW127693   5.273   2.774   7.674 -0.5291 -0.2366  1.6805
 8513SOL    HW227694   5.173   2.660   7.671 -1.1643  0.3173 -1.3057
 8514SOL     OW27695   3.339   5.616   3.565 -0.1167 -0.5253 -0.2137
 8514SOL    HW127696   3.304   5.567   3.491  0.4016 -0.3501 -0.5762
 8514SOL    HW227697   3.266   5.621   3.627 -0.9868  0.4898 -1.2781
 8515SOL     OW27698   4.303   4.274   8.872 -0.4800  0.1102 -0.3279
 8515SOL    HW127699   4.207   4.282   8.871 -0.5585 -0.6108  0.2149
 8515SOL    HW227700   4.331   4.311   8.789 -1.3186 -0.6784 -0.9763
 8516SOL     OW27701   1.844   4.469   5.832  0.2264  0.1832 -0.1459
 8516SOL    HW127702   1.909   4.488   5.900 -1.3314  1.7769  1.0045
 8516SOL    HW227703   1.852   4.375   5.816  2.0899  0.1606  0.6892
 8517SOL     OW27704   7.289   0.029   2.981 -0.0329  0.2068  0.3087
 8517SOL    HW127705   7.304   0.040   2.887  0.8673 -1.1723  0.2573
 8517SOL    HW227706   7.353   0.087   3.022  1.6131 -1.3316  0.0472
 8518SOL     OW27707   0.291   6.408   7.600 -0.2368  0.1715  0.5000
 8518SOL    HW127708   0.302   6.486   7.655  0.9534 -0.2232  0.8545
 8518SOL    HW227709   0.199   6.409   7.575 -1.0513 -0.0244  3.1335
 8519SOL     OW27710   3.264   6.862   7.909 -0.1391 -0.7557 -0.6570
 8519SOL    HW127711   3.239   6.784   7.959 -1.0001 -0.0720  0.0184
 8519SOL    HW227712   3.334   6.902   7.961 -0.8954 -0.1548 -0.0661
 8520SOL     OW27713   5.769   9.590   8.105 -0.3295 -0.1185  0.4873
 8520SOL    HW127714   5.832   9.519   8.096  0.1705  0.3576  0.1195
 8520SOL    HW227715   5.818   9.669   8.080 -0.0313  0.7568  3.4117
 8521SOL     OW27716   4.159   3.086   3.407  0.2156 -0.5019 -0.4062
 8521SOL    HW127717   4.178   3.142   3.333 -2.0690 -0.4230 -1.0225
 8521SOL    HW227718   4.218   3.011   3.398  2.9490  1.4545  0.1477
 8522SOL     OW27719   1.943   8.006   5.543  0.1096 -0.0005  0.1112
 8522SOL    HW127720   2.009   7.989   5.610  0.3476  1.0787  0.1624
 8522SOL    HW227721   1.925   8.099   5.550 -1.4379 -0.2778  0.1001
 8523SOL     OW27722   9.490   2.611   0.450 -0.0022  0.2104 -0.3831
 8523SOL    HW127723   9.525   2.548   0.387 -0.6601  0.1812 -0.7325
 8523SOL    HW227724   9.525   2.695   0.422 -0.6424  0.2603 -1.0618
 8524SOL     OW27725   9.253   0.555   1.369  0.0354 -0.4647  0.5059
 8524SOL    HW127726   9.341   0.523   1.350 -0.5608 -1.0175 -1.5109
 8524SOL    HW227727   9.195   0.488   1.335 -1.1973  0.1159  1.3788
 8525SOL     OW27728   0.016   8.390   5.701  0.0377  0.7281 -0.1797
 8525SOL    HW127729  -0.065   8.349   5.670 -0.1708  1.1723 -0.2210
 8525SOL    HW227730   0.019   8.368   5.794  0.0599  0.4006 -0.2546
 8526SOL     OW27731   0.114   2.257   1.688 -0.2051  0.0187 -0.3788
 8526SOL    HW127732   0.200   2.240   1.650  0.0257  1.8902 -0.8169
 8526SOL    HW227733   0.052   2.233   1.620  0.1767  2.4860 -1.7275
 8527SOL     OW27734   6.374   9.482   3.954 -0.0486  0.3981 -0.5550
 8527SOL    HW127735   6.408   9.413   4.011 -0.1066 -1.3141 -2.4593
 8527SOL    HW227736   6.449   9.539   3.938  0.5246 -0.3122 -0.4606
 8528SOL     OW27737   8.714   9.145   7.523  0.1004  0.1315 -0.4746
 8528SOL    HW127738   8.625   9.114   7.508  0.9457 -3.8280  1.3814
 8528SOL    HW227739   8.721   9.156   7.618  1.6566  0.1314 -0.5533
 8529SOL     OW27740   0.841   8.206   5.037  0.5722  0.1652  0.3730
 8529SOL    HW127741   0.900   8.158   5.094 -0.6926 -0.5069  1.1805
 8529SOL    HW227742   0.753   8.185   5.070 -0.2119 -0.0917 -1.6678
 8530SOL     OW27743   4.873   7.581   9.620  0.2933 -0.4304  0.0039
 8530SOL    HW127744   4.881   7.495   9.580  1.1453  0.3720 -1.6154
 8530SOL    HW227745   4.930   7.577   9.697  1.3935 -0.9054 -0.8085
 8531SOL     OW27746   4.393   9.479   2.075  0.5543 -0.3168 -0.5363
 8531SOL    HW127747   4.479   9.445   2.051  0.9861  1.1538 -1.1407
 8531SOL    HW227748   4.409   9.568   2.106 -0.0594 -1.6247  4.4768
 8532SOL     OW27749   9.012   1.393   3.145 -0.7023  0.0796  0.2938
 8532SOL    HW127750   9.087   1.451   3.160 -1.4910  1.3903 -0.6223
 8532SOL    HW227751   8.999   1.349   3.229  1.5255 -0.7441  0.2767
 8533SOL     OW27752   7.838   4.294   7.112 -0.5329  0.0329 -0.7954
 8533SOL    HW127753   7.846   4.242   7.031  0.8227  0.5145 -1.0040
 8533SOL    HW227754   7.883   4.241   7.178  0.2993  0.6473 -0.8664
 8534SOL     OW27755   7.592   3.988   3.741 -0.4190 -0.5431  0.2774
 8534SOL    HW127756   7.549   4.065   3.778 -0.2516 -0.1631 -0.2959
 8534SOL    HW227757   7.635   3.946   3.815 -2.7132 -1.5905  1.0970
 8535SOL     OW27758   5.264   3.585   8.790 -0.1689  0.4648  0.0830
 8535SOL    HW127759   5.294   3.497   8.812  2.1156  0.7378 -1.5166
 8535SOL    HW227760   5.210   3.612   8.864  0.5740 -1.5854  1.4453
 8536SOL     OW27761   4.249   4.868   5.102 -0.3297 -0.1576 -0.0542
 8536SOL    HW127762   4.158   4.895   5.108 -0.2647  0.2336 -0.7404
 8536SOL    HW227763   4.257   4.826   5.017  0.5254  1.4358 -0.8209
 8537SOL     OW27764   1.439   6.048   0.405  0.1052 -0.2640  0.1050
 8537SOL    HW127765   1.489   6.076   0.328 -1.4037  0.0217 -0.8178
 8537SOL    HW227766   1.389   6.126   0.431 -1.0922 -0.9530 -0.0288
 8538SOL     OW27767   2.574   3.062   0.128  0.2334 -0.0604 -0.1826
 8538SOL    HW127768   2.562   2.992   0.192 -0.1125 -0.4700 -0.6815
 8538SOL    HW227769   2.662   3.048   0.094  0.7332  0.6535  0.7763
 8539SOL     OW27770   6.362   8.450   7.095 -0.0733  0.8385 -0.0458
 8539SOL    HW127771   6.304   8.399   7.039 -1.8625  2.4580  0.2155
 8539SOL    HW227772   6.321   8.447   7.182  1.0281  0.8399  0.4989
 8540SOL     OW27773   1.220   1.020   1.542  0.5324  0.2098 -0.8353
 8540SOL    HW127774   1.267   1.103   1.538  2.0317 -0.5769 -0.3331
 8540SOL    HW227775   1.281   0.957   1.503 -0.6434 -0.6335 -1.3633
 8541SOL     OW27776   3.546   7.320   0.211  0.0423  0.3628  0.9025
 8541SOL    HW127777   3.641   7.333   0.217  0.3893 -1.1760 -0.4123
 8541SOL    HW227778   3.536   7.239   0.160 -1.9962  1.5981 -0.8599
 8542SOL     OW27779   7.985   4.834   9.183  0.2904 -0.9802 -0.5714
 8542SOL    HW127780   8.075   4.808   9.163  0.7872  0.5938 -0.5140
 8542SOL    HW227781   7.990   4.927   9.204 -1.1759 -1.1219  0.6558
 8543SOL     OW27782   2.648   6.733   4.972  0.4578 -0.4229  0.1032
 8543SOL    HW127783   2.553   6.720   4.979  0.4233 -0.7110 -0.7095
 8543SOL    HW227784   2.665   6.813   5.021 -0.2092 -0.3781  0.2716
 8544SOL     OW27785   6.444   3.306   6.805 -0.3898 -0.0945  0.2872
 8544SOL    HW127786   6.407   3.327   6.720  0.4285  3.8253  0.7079
 8544SOL    HW227787   6.368   3.289   6.861 -0.9924 -1.1021 -0.7907
 8545SOL     OW27788   9.241   3.990   0.588 -0.2653 -0.3397 -0.2048
 8545SOL    HW127789   9.207   4.070   0.549 -0.3919 -0.4353 -0.2905
 8545SOL    HW227790   9.190   3.979   0.669  0.5589  0.3076  0.4231
 8546SOL     OW27791   9.486   6.483   6.162 -0.9599  0.1396  0.2428
 8546SOL    HW127792   9.421   6.414   6.150 -0.0666 -0.6700 -0.0877
 8546SOL    HW227793   9.533   6.459   6.242 -0.5000  0.2243  0.0057
 8547SOL     OW27794   1.342   8.566   4.260 -0.2502  0.0927  0.1388
 8547SOL    HW127795   1.429   8.566   4.301  0.0984 -1.2567 -0.5492
 8547SOL    HW227796   1.303   8.649   4.288  0.8328  0.2366  1.3514
 8548SOL     OW27797   6.399   0.176   7.474  0.4417  0.1780 -0.1371
 8548SOL    HW127798   6.390   0.267   7.447 -0.2205  0.5754  1.3780
 8548SOL    HW227799   6.309   0.142   7.473  0.4931 -0.0009  0.8362
 8549SOL     OW27800   6.476   9.350   2.551  0.2538  0.2809 -0.0701
 8549SOL    HW127801   6.528   9.322   2.626 -1.3318 -0.7667  0.6805
 8549SOL    HW227802   6.433   9.270   2.520  0.7526  0.7220 -2.0169
 8550SOL     OW27803   4.108   9.565   3.571  0.5788  0.8293 -0.0337
 8550SOL    HW127804   4.114   9.478   3.531 -0.6655  0.8338 -0.2592
 8550SOL    HW227805   4.121   9.626   3.498  2.9008  0.8740  0.3510
 8551SOL     OW27806   3.269   5.620   4.330  0.0920  0.4982  0.3329
 8551SOL    HW127807   3.265   5.564   4.407  0.5277 -0.6272 -0.4332
 8551SOL    HW227808   3.218   5.697   4.353 -1.7485 -0.8333  0.9247
 8552SOL     OW27809   5.522   8.388   9.450 -0.2085 -0.2006  0.0180
 8552SOL    HW127810   5.514   8.472   9.405  0.1254  0.1793  0.6399
 8552SOL    HW227811   5.435   8.371   9.486  0.0186  0.4902  0.9218
 8553SOL     OW27812   8.191   8.237   3.181 -0.1728  0.2457  0.2080
 8553SOL    HW127813   8.265   8.181   3.206  0.1512  0.8483  0.6238
 8553SOL    HW227814   8.134   8.180   3.129  1.5514  0.2694 -1.8534
 8554SOL     OW27815   9.241   8.911   4.379 -0.2913  0.1997  0.6007
 8554SOL    HW127816   9.191   8.868   4.449  1.2883 -0.8729  1.1278
 8554SOL    HW227817   9.197   8.995   4.366 -0.2746  0.7080  3.3358
 8555SOL     OW27818   8.023   7.124   1.178 -0.6744 -0.0438 -0.2465
 8555SOL    HW127819   8.073   7.077   1.111  0.4192  1.3975 -0.4925
 8555SOL    HW227820   8.065   7.099   1.260  1.2110  1.8774 -0.5123
 8556SOL     OW27821   2.657   5.810   2.812  0.2415 -0.5204  0.0636
 8556SOL    HW127822   2.716   5.840   2.743  1.1469  1.6267  1.6574
 8556SOL    HW227823   2.630   5.890   2.857 -0.3810 -1.8256  2.1631
 8557SOL     OW27824   0.242   2.430   2.870  0.2784  0.3323 -0.3017
 8557SOL    HW127825   0.326   2.470   2.892  0.5384  0.2891 -1.1982
 8557SOL    HW227826   0.232   2.358   2.933  0.1355  1.3439  0.8661
 8558SOL     OW27827   7.863   2.382   1.327  0.4571 -0.1945 -0.3551
 8558SOL    HW127828   7.919   2.320   1.374  0.7519  0.8627  0.7125
 8558SOL    HW227829   7.914   2.462   1.322 -0.3879  0.3372 -0.6748
 8559SOL     OW27830   8.620   3.137   0.231  0.0155  0.1462  0.0099
 8559SOL    HW127831   8.711   3.151   0.202  0.0026  1.8106  0.7038
 8559SOL    HW227832   8.623   3.053   0.277  1.2039  0.1789  0.0315
 8560SOL     OW27833   3.091   5.917   0.725  0.3807  0.2064  0.3894
 8560SOL    HW127834   3.035   5.983   0.766  1.0012  1.4077 -0.6224
 8560SOL    HW227835   3.038   5.881   0.654  1.1709  2.0794 -1.2332
 8561SOL     OW27836   1.393   5.699   0.839  1.1220 -0.1527 -0.4608
 8561SOL    HW127837   1.341   5.779   0.839  0.6606 -0.4024 -2.3764
 8561SOL    HW227838   1.423   5.690   0.929 -0.4668  1.0971  0.2475
 8562SOL     OW27839   7.133   7.205   5.054  0.3547  0.1332 -0.6764
 8562SOL    HW127840   7.214   7.256   5.050  0.0912  0.5624 -0.5881
 8562SOL    HW227841   7.085   7.230   4.975 -0.0426  0.4810 -0.3307
 8563SOL     OW27842   4.365   1.216   8.291 -0.3931  0.0901 -0.9391
 8563SOL    HW127843   4.358   1.312   8.292 -0.7838  0.1195  1.6669
 8563SOL    HW227844   4.429   1.197   8.223  0.1432  2.2585 -1.1050
 8564SOL     OW27845   5.753   1.934   2.993 -0.0960 -0.5651 -0.1148
 8564SOL    HW127846   5.679   1.947   3.052  0.0753 -0.1188  0.0036
 8564SOL    HW227847   5.784   2.022   2.973 -0.9249 -0.6460 -1.8704
 8565SOL     OW27848   7.084   3.084   5.884 -0.2284  0.8333  0.1774
 8565SOL    HW127849   7.114   3.153   5.944 -1.7498  1.0157  0.7740
 8565SOL    HW227850   7.004   3.120   5.845 -0.3106 -0.0687 -0.5061
 8566SOL     OW27851   4.645   2.346   1.537  0.0283  0.1667  0.4799
 8566SOL    HW127852   4.628   2.292   1.614  2.5875  2.0057  2.5217
 8566SOL    HW227853   4.558   2.374   1.508 -1.1033 -1.7377  1.7630
 8567SOL     OW27854   1.390   0.291   2.355 -0.2680  0.1502  0.3903
 8567SOL    HW127855   1.373   0.270   2.447 -1.1428  0.1961  0.2440
 8567SOL    HW227856   1.330   0.235   2.306 -1.8280  2.0946 -0.0549
 8568SOL     OW27857   8.490   5.801   6.946  0.2298  0.5135  0.2743
 8568SOL    HW127858   8.408   5.838   6.979 -0.0784  0.7524 -0.7186
 8568SOL    HW227859   8.547   5.796   7.023  0.2743  2.9825  0.4864
 8569SOL     OW27860   7.291   9.238   2.962 -0.7541 -0.5698  0.6752
 8569SOL    HW127861   7.257   9.285   3.038  0.5629  1.3346  0.1659
 8569SOL    HW227862   7.240   9.272   2.889 -0.6799 -0.9275  0.4576
 8570SOL     OW27863   0.996   5.694   2.814 -0.0604  0.2132 -0.2767
 8570SOL    HW127864   0.968   5.705   2.905 -1.0932  0.9593 -0.6570
 8570SOL    HW227865   0.926   5.735   2.763 -0.2632 -1.5420 -1.4838
 8571SOL     OW27866   7.931   3.807   8.184 -0.1572 -0.1348  0.0670
 8571SOL    HW127867   7.920   3.734   8.123 -1.1538  0.4458 -0.4642
 8571SOL    HW227868   8.016   3.790   8.225  0.6837 -0.4081 -1.6667
 8572SOL     OW27869   0.722   8.169   3.860 -0.6811  0.5427  0.3359
 8572SOL    HW127870   0.721   8.137   3.770  1.1428  0.6376  0.2400
 8572SOL    HW227871   0.701   8.262   3.853 -1.3201  0.3887  0.1128
 8573SOL     OW27872   9.191   8.270   4.110  0.1400 -0.5031 -0.3449
 8573SOL    HW127873   9.142   8.263   4.029  0.9022 -2.0623 -0.7014
 8573SOL    HW227874   9.283   8.272   4.082  0.3522  1.6663  0.3435
 8574SOL     OW27875   1.056   8.854   9.499  0.3311  0.2263 -0.0526
 8574SOL    HW127876   1.010   8.936   9.517 -0.6427 -0.3345  0.0612
 8574SOL    HW227877   1.137   8.861   9.549 -0.6249  0.2900  1.5304
 8575SOL     OW27878   0.538   6.195   3.788 -0.1878  0.0406  0.5628
 8575SOL    HW127879   0.507   6.253   3.857  0.8459  0.5120  0.6466
 8575SOL    HW227880   0.624   6.229   3.764 -1.1958  0.9732 -2.2013
 8576SOL     OW27881   5.066   4.200   4.951 -0.3067 -0.2169  0.2858
 8576SOL    HW127882   5.151   4.203   4.907 -1.4144 -1.6800 -2.1857
 8576SOL    HW227883   5.076   4.257   5.027  2.4897  0.6010 -0.5772
 8577SOL     OW27884   8.272   8.338   8.074 -0.6328  1.0566  0.1336
 8577SOL    HW127885   8.238   8.428   8.078  0.1438  1.3388  0.8701
 8577SOL    HW227886   8.255   8.303   8.162 -0.6570  0.5950 -0.0585
 8578SOL     OW27887   5.109   1.471   7.776 -0.2354 -0.6369  0.2805
 8578SOL    HW127888   5.134   1.447   7.687 -2.6531 -1.3446 -0.2783
 8578SOL    HW227889   5.151   1.404   7.831  1.1774 -0.2630 -0.3013
 8579SOL     OW27890   4.262   3.531   5.760  0.1956 -0.5120  0.6997
 8579SOL    HW127891   4.225   3.443   5.755 -0.4173 -0.3024  1.4432
 8579SOL    HW227892   4.195   3.583   5.805  0.1247  0.5703 -0.6083
 8580SOL     OW27893   4.893   3.009   0.998 -0.0590 -0.0180 -0.5621
 8580SOL    HW127894   4.830   2.958   0.948  0.9333 -0.1793 -1.7076
 8580SOL    HW227895   4.909   2.958   1.077 -1.1894 -0.0770 -0.3655
 8581SOL     OW27896   7.884   2.200   1.051  0.2744 -0.1460 -0.4037
 8581SOL    HW127897   7.795   2.181   1.020  1.5021 -0.7333 -3.9992
 8581SOL    HW227898   7.880   2.290   1.083 -1.6936 -0.3513  0.0877
 8582SOL     OW27899   5.863   3.186   6.412 -0.3376 -0.3824 -0.2725
 8582SOL    HW127900   5.918   3.240   6.469 -1.1552 -0.9857  1.1298
 8582SOL    HW227901   5.916   3.108   6.396 -0.5955 -0.7721  0.7210
 8583SOL     OW27902   9.312   1.351   5.041  0.2957 -0.3826  0.4428
 8583SOL    HW127903   9.366   1.293   5.094  0.1294 -1.2807 -0.3420
 8583SOL    HW227904   9.228   1.354   5.087 -0.3768 -2.4127 -0.5176
 8584SOL     OW27905   0.224   8.491   0.600  0.1756 -0.1414  0.7086
 8584SOL    HW127906   0.187   8.553   0.662 -0.4105 -0.5552  0.7840
 8584SOL    HW227907   0.222   8.537   0.516  1.1846  0.5034  1.0225
 8585SOL     OW27908   2.102   4.854   8.789  0.2084  0.4442 -0.4185
 8585SOL    HW127909   2.152   4.779   8.755 -3.3019 -1.4169 -2.0592
 8585SOL    HW227910   2.067   4.823   8.872 -0.6721  0.4846 -0.7606
 8586SOL     OW27911   1.191   4.553   7.966 -0.1366 -0.2668  0.5896
 8586SOL    HW127912   1.119   4.491   7.959  0.9783 -1.3911 -2.7471
 8586SOL    HW227913   1.158   4.633   7.925  0.3284 -0.6417 -0.5436
 8587SOL     OW27914   9.407   3.491   3.299 -0.1054  0.4312  0.2755
 8587SOL    HW127915   9.335   3.553   3.296 -1.6050 -1.2303 -1.9546
 8587SOL    HW227916   9.465   3.517   3.228  0.2834  0.4156  0.5830
 8588SOL     OW27917   2.528   3.768   3.454 -0.3176 -0.3370  0.3451
 8588SOL    HW127918   2.452   3.795   3.507 -0.6976 -0.2738 -0.2200
 8588SOL    HW227919   2.583   3.846   3.449 -1.8241  0.6889 -2.0000
 8589SOL     OW27920   3.822   6.588   0.231 -0.2440  0.0729 -0.1074
 8589SOL    HW127921   3.751   6.635   0.188 -0.2877 -0.0083 -0.1225
 8589SOL    HW227922   3.780   6.513   0.272 -0.3297  0.6039  0.7857
 8590SOL     OW27923   7.031   7.268   4.297 -0.5313 -0.2636 -0.2278
 8590SOL    HW127924   7.033   7.174   4.315  1.1504 -0.4263 -1.0943
 8590SOL    HW227925   7.059   7.309   4.378 -0.8700 -0.5253  0.0236
 8591SOL     OW27926   0.203   6.544   5.607  0.2186  0.7995  0.3773
 8591SOL    HW127927   0.263   6.483   5.651 -0.5928  0.3235  0.8687
 8591SOL    HW227928   0.123   6.492   5.594  0.2801  1.0837 -1.2448
 8592SOL     OW27929   2.202   2.054   3.590 -0.5271 -0.3806 -0.3077
 8592SOL    HW127930   2.293   2.079   3.607 -0.5191  0.0913 -0.9875
 8592SOL    HW227931   2.194   1.966   3.627 -0.3082  0.2658  1.3528
 8593SOL     OW27932   6.111   0.895   2.389  0.1707 -0.3117 -0.2910
 8593SOL    HW127933   6.149   0.819   2.434  0.4849 -1.0155 -1.6742
 8593SOL    HW227934   6.168   0.909   2.314 -0.7043  0.4103 -0.8381
 8594SOL     OW27935   6.685   5.691   7.492  0.0392  0.1924 -0.4737
 8594SOL    HW127936   6.740   5.636   7.436 -0.9715 -0.9965 -0.3602
 8594SOL    HW227937   6.608   5.710   7.439 -3.3009 -4.9203  1.7026
 8595SOL     OW27938   8.589   4.771   3.448  0.2960  0.2067 -0.1626
 8595SOL    HW127939   8.647   4.790   3.374  0.9822 -1.0383  0.0269
 8595SOL    HW227940   8.578   4.676   3.446 -1.7028  0.3853 -0.1408
 8596SOL     OW27941   3.303   7.435   3.139  0.1589 -0.0047 -0.0217
 8596SOL    HW127942   3.227   7.482   3.105  0.5203 -0.9006 -2.2901
 8596SOL    HW227943   3.271   7.387   3.215 -1.5464 -0.3224 -0.9008
 8597SOL     OW27944   6.875   5.963   6.832  0.2431  0.6193  0.0910
 8597SOL    HW127945   6.886   5.868   6.832  1.6256  0.7466  0.7341
 8597SOL    HW227946   6.865   5.986   6.925 -1.2473  1.0009 -0.1455
 8598SOL     OW27947   9.520   0.129   7.885  0.5084  0.3012  0.0386
 8598SOL    HW127948   9.453   0.139   7.953 -1.0641  0.2187 -1.4287
 8598SOL    HW227949   9.485   0.062   7.827  0.2382  2.5393 -2.5879
 8599SOL     OW27950   4.855   4.277   5.481  0.4472 -0.2804 -0.4389
 8599SOL    HW127951   4.899   4.358   5.505 -0.9228 -0.1682  2.0035
 8599SOL    HW227952   4.892   4.254   5.396  1.8766  2.1473 -0.5652
 8600SOL     OW27953   4.624   2.797   5.275  0.0092 -0.0757 -0.2553
 8600SOL    HW127954   4.675   2.827   5.199 -0.3931 -1.4859 -1.1338
 8600SOL    HW227955   4.568   2.871   5.297  0.7064  0.6418 -0.8199
 8601SOL     OW27956   3.247   9.229   0.534 -0.1821  0.3253  0.1599
 8601SOL    HW127957   3.157   9.197   0.529  0.1227 -0.3078 -1.9562
 8601SOL    HW227958   3.254   9.293   0.463  1.5928 -1.1809 -1.1162
 8602SOL     OW27959   8.187   6.317   1.278  0.7234  0.0251  0.1006
 8602SOL    HW127960   8.224   6.240   1.236 -2.1593 -1.0306 -0.7588
 8602SOL    HW227961   8.224   6.391   1.230  1.2762 -0.9713 -1.0361
 8603SOL     OW27962   4.019   3.133   2.565  0.0649 -0.7098  0.3523
 8603SOL    HW127963   3.981   3.059   2.518 -0.0321  0.8543 -2.2828
 8603SOL    HW227964   3.974   3.210   2.529  0.2882  0.6751  2.8258
 8604SOL     OW27965   5.434   6.781   2.232 -0.4945  0.1055  0.0919
 8604SOL    HW127966   5.394   6.868   2.232 -0.6427  0.0803  2.2944
 8604SOL    HW227967   5.523   6.796   2.201 -0.3914  1.1174  0.8381
 8605SOL     OW27968   8.822   5.652   4.604  0.4081  0.0463  0.6297
 8605SOL    HW127969   8.746   5.710   4.604 -0.3899 -0.9451 -0.5053
 8605SOL    HW227970   8.822   5.613   4.691 -1.6437 -1.4656  0.0333
 8606SOL     OW27971   9.162   2.249   9.504 -0.0600  0.5044 -0.7030
 8606SOL    HW127972   9.159   2.253   9.599  0.8649  0.8242 -0.6765
 8606SOL    HW227973   9.166   2.155   9.484  0.4879  0.4600 -0.3955
 8607SOL     OW27974   5.937   1.627   1.658  0.2541  0.1967  0.0419
 8607SOL    HW127975   5.987   1.591   1.732  1.2602  1.0757 -0.1784
 8607SOL    HW227976   5.952   1.566   1.587  0.2451 -0.0370  0.2390
 8608SOL     OW27977   6.373   6.020   0.726 -0.4640  0.3429 -0.1028
 8608SOL    HW127978   6.304   6.085   0.730 -1.6567 -0.7792 -1.2988
 8608SOL    HW227979   6.359   5.965   0.803  0.0084  0.9736  0.4386
 8609SOL     OW27980   5.917   6.268   5.186 -0.8573 -0.6281 -0.0534
 8609SOL    HW127981   5.854   6.300   5.250 -3.4712 -0.6871 -2.3848
 8609SOL    HW227982   6.001   6.272   5.231 -2.1760  1.5756  2.5284
 8610SOL     OW27983   6.325   7.104   5.455  0.2486  0.0794 -0.1174
 8610SOL    HW127984   6.332   7.121   5.549 -1.3883  0.5144 -0.0491
 8610SOL    HW227985   6.329   7.009   5.448 -2.5789 -0.2130  0.7506
 8611SOL     OW27986   6.546   0.931   9.156 -0.0199 -0.6775  0.0417
 8611SOL    HW127987   6.522   1.023   9.168  0.1721 -0.7327  0.9379
 8611SOL    HW227988   6.593   0.908   9.236  1.6982 -0.9978 -1.0171
 8612SOL     OW27989   7.685   0.490   8.006  0.3708 -0.1478 -0.4595
 8612SOL    HW127990   7.676   0.490   8.101  0.1876 -1.6404 -0.4607
 8612SOL    HW227991   7.721   0.404   7.984 -2.3817 -1.0651 -1.9545
 8613SOL     OW27992   4.456   7.989   5.092 -0.3877  0.2097  0.1688
 8613SOL    HW127993   4.526   7.997   5.158 -1.9552 -0.4897  2.0166
 8613SOL    HW227994   4.405   7.913   5.121 -0.4796 -0.8868 -2.5639
 8614SOL     OW27995   5.664   5.703   0.345 -0.1825 -0.1834  0.6217
 8614SOL    HW127996   5.677   5.618   0.303 -1.0617 -1.0399  2.0180
 8614SOL    HW227997   5.722   5.762   0.297  0.4755 -1.5642 -0.3603
 8615SOL     OW27998   9.523   7.945   0.450 -0.5773  0.7088  0.7832
 8615SOL    HW127999   9.478   7.873   0.495 -1.1671  1.0283  0.7084
 8615SOL    HW228000   9.453   7.997   0.411 -0.3195  2.3219  2.3078
 8616SOL     OW28001   8.283   6.397   3.234  0.3106 -0.2973 -0.0715
 8616SOL    HW128002   8.290   6.442   3.150 -2.6061 -0.6193 -0.5923
 8616SOL    HW228003   8.322   6.457   3.297 -0.1642  1.3106 -1.2431
 8617SOL     OW28004   6.011   1.855   5.859  0.4369  0.0330 -0.0199
 8617SOL    HW128005   5.997   1.949   5.845  0.5996  0.0199 -0.2803
 8617SOL    HW228006   5.927   1.822   5.890  0.0423  0.0489 -1.0541
 8618SOL     OW28007   6.363   5.973   6.176  0.2887 -0.3566 -0.1982
 8618SOL    HW128008   6.391   5.908   6.111  1.7714 -0.2011  0.2362
 8618SOL    HW228009   6.427   6.044   6.168  0.3982 -0.2547  1.2999
 8619SOL     OW28010   6.392   4.788   9.612 -0.0573 -0.0370  0.5954
 8619SOL    HW128011   6.318   4.793   9.672  1.0014 -1.3361  2.1057
 8619SOL    HW228012   6.469   4.804   9.667  0.9581 -1.2023 -0.4165
 8620SOL     OW28013   2.008   2.191   2.533 -0.6448  0.3561  0.6190
 8620SOL    HW128014   2.021   2.142   2.614 -0.7864 -0.2459  0.2813
 8620SOL    HW228015   2.049   2.138   2.465 -2.6783 -0.4165 -0.1052
 8621SOL     OW28016   6.320   8.058   3.617  0.1923 -0.0199 -0.2432
 8621SOL    HW128017   6.366   8.112   3.682  2.3091  0.2762 -1.8910
 8621SOL    HW228018   6.256   8.117   3.578  0.0045  0.2519  0.4635
 8622SOL     OW28019   5.695   2.367   5.633 -0.4373  0.6227 -0.0115
 8622SOL    HW128020   5.695   2.418   5.552 -1.1367 -1.0726 -1.1283
 8622SOL    HW228021   5.621   2.401   5.683  0.2479  1.9593  0.1461
 8623SOL     OW28022   3.017   8.449   2.478 -0.2337 -0.9517  0.4238
 8623SOL    HW128023   2.960   8.479   2.407  0.3112  0.7570  0.6573
 8623SOL    HW228024   3.035   8.357   2.458 -1.0326 -0.8219 -1.0027
 8624SOL     OW28025   2.646   8.552   1.815 -0.7077 -0.0830  0.0450
 8624SOL    HW128026   2.713   8.486   1.799  0.6282  1.1553  0.3280
 8624SOL    HW228027   2.675   8.629   1.765 -3.2576 -0.2606 -1.9291
 8625SOL     OW28028   3.060   9.435   1.759  0.3666  0.6189  0.1492
 8625SOL    HW128029   2.965   9.448   1.761  0.3290  0.8497 -1.4516
 8625SOL    HW228030   3.073   9.347   1.795 -0.5842  0.1179 -0.6784
 8626SOL     OW28031   5.845   3.995   7.521  0.2242 -0.3389 -0.7148
 8626SOL    HW128032   5.791   3.937   7.576 -0.4110  0.7265 -0.1934
 8626SOL    HW228033   5.934   3.984   7.555 -0.1915  0.5180  0.7588
 8627SOL     OW28034   4.100   7.595   2.953 -0.0320  0.2093  0.2962
 8627SOL    HW128035   4.076   7.645   3.031 -1.2561 -0.4631  0.3751
 8627SOL    HW228036   4.093   7.657   2.881  1.0509  0.8207  0.6945
 8628SOL     OW28037   6.995   8.114   4.556  0.0427 -0.6908 -0.3413
 8628SOL    HW128038   6.930   8.183   4.570 -0.2754 -1.0991  0.2398
 8628SOL    HW228039   6.957   8.058   4.488 -0.3603 -1.1003  0.2141
 8629SOL     OW28040   3.689   8.821   8.219 -0.3000  0.5254 -0.6002
 8629SOL    HW128041   3.672   8.751   8.281 -0.5858  1.4329  0.3738
 8629SOL    HW228042   3.603   8.848   8.187 -0.2356  0.7970 -0.5519
 8630SOL     OW28043   3.846   3.049   7.998  0.0317  0.4434  0.2328
 8630SOL    HW128044   3.774   2.999   8.036  0.8960 -0.6435  0.4975
 8630SOL    HW228045   3.848   3.021   7.907  1.0304 -0.6748  0.5690
 8631SOL     OW28046   0.952   5.445   1.767  0.2515  0.4942  0.2585
 8631SOL    HW128047   0.944   5.497   1.847 -0.2113 -0.4351  0.8181
 8631SOL    HW228048   0.863   5.440   1.732  0.3779  0.5077 -0.0716
 8632SOL     OW28049   3.814   8.132   7.689 -0.5682  0.1478 -0.2650
 8632SOL    HW128050   3.904   8.106   7.705 -0.7886 -0.4034  0.0953
 8632SOL    HW228051   3.795   8.101   7.600 -0.4598  0.1106 -0.2746
 8633SOL     OW28052   6.242   1.228   2.668  0.3545  0.0261 -0.0363
 8633SOL    HW128053   6.209   1.202   2.582  0.0850  1.3259 -0.3381
 8633SOL    HW228054   6.223   1.153   2.724  1.2973 -1.1852 -1.2713
 8634SOL     OW28055   1.285   0.843   6.581  0.2425 -0.6971  0.1421
 8634SOL    HW128056   1.323   0.927   6.608  0.3303 -0.3262 -1.0970
 8634SOL    HW228057   1.267   0.798   6.664 -2.2301  1.5769  0.9864
 8635SOL     OW28058   8.937   2.944   7.383 -0.1248 -0.3955  0.5084
 8635SOL    HW128059   8.854   2.933   7.336 -0.1279 -0.7209  0.5951
 8635SOL    HW228060   8.959   2.857   7.414 -0.2723 -0.1318  1.3771
 8636SOL     OW28061   6.512   9.289   3.432 -0.3828 -0.5325  0.6817
 8636SOL    HW128062   6.582   9.326   3.486 -1.0101  0.7044  0.6802
 8636SOL    HW228063   6.511   9.196   3.455  1.9453 -0.8260 -0.0833
 8637SOL     OW28064   2.755   0.394   1.201 -0.3637  0.2912  0.0515
 8637SOL    HW128065   2.774   0.327   1.135 -1.3723 -0.7857  0.7941
 8637SOL    HW228066   2.836   0.443   1.211  0.1134 -0.2110 -1.2096
 8638SOL     OW28067   5.994   0.677   3.276  0.5755 -0.1856  0.8980
 8638SOL    HW128068   5.912   0.638   3.245  1.7255 -2.5903  0.6982
 8638SOL    HW228069   6.034   0.713   3.197 -0.5431  1.6120  1.0999
 8639SOL     OW28070   8.456   0.379   7.410 -0.1171 -0.2638  0.2389
 8639SOL    HW128071   8.432   0.288   7.430 -1.5646 -0.0678 -0.5050
 8639SOL    HW228072   8.552   0.376   7.400  0.0213 -1.4404  1.4897
 8640SOL     OW28073   9.478   1.637   5.450  0.7527 -0.1071  0.2864
 8640SOL    HW128074   9.566   1.666   5.427  0.6039  1.7145  1.7586
 8640SOL    HW228075   9.484   1.612   5.542 -0.5898  1.8082  0.9774
 8641SOL     OW28076   3.494   1.938   7.920  0.2902 -0.7499 -0.2972
 8641SOL    HW128077   3.574   1.962   7.873  0.0606  0.2361 -0.2049
 8641SOL    HW228078   3.524   1.909   8.006  0.6202 -1.3862 -0.6209
 8642SOL     OW28079   3.041   5.353   7.699 -0.5055 -0.2711  0.3887
 8642SOL    HW128080   3.089   5.413   7.641 -0.5884 -1.0266 -0.4887
 8642SOL    HW228081   2.956   5.395   7.712  0.5726  1.4413  2.5450
 8643SOL     OW28082   5.055   0.613   1.258 -0.3963  0.3831 -0.7636
 8643SOL    HW128083   5.028   0.579   1.344  0.4000 -1.2856 -1.1357
 8643SOL    HW228084   5.053   0.708   1.268 -0.1055  0.2188  1.1661
 8644SOL     OW28085   6.587   3.895   7.730 -0.1616 -0.1002  0.2317
 8644SOL    HW128086   6.660   3.956   7.738 -0.4182  0.2253  0.1299
 8644SOL    HW228087   6.628   3.809   7.730  0.3506  0.1086 -1.1760
 8645SOL     OW28088   7.567   6.080   1.915  0.2123 -0.6840  0.3423
 8645SOL    HW128089   7.607   6.140   1.852  0.0933  0.2908  1.1729
 8645SOL    HW228090   7.474   6.078   1.891 -0.1886  1.0916  1.5191
 8646SOL     OW28091   1.826   2.967   2.855  0.1819 -0.5753  0.2113
 8646SOL    HW128092   1.836   2.873   2.840 -2.3200 -0.9164  0.2586
 8646SOL    HW228093   1.859   2.980   2.944 -1.5229 -1.9161  1.1286
 8647SOL     OW28094   0.403   7.595   3.283 -0.1885 -0.4872 -0.2303
 8647SOL    HW128095   0.420   7.667   3.343  0.4301 -0.9850  0.2057
 8647SOL    HW228096   0.383   7.638   3.200 -0.9885  0.2032  0.3035
 8648SOL     OW28097   8.297   5.266   5.250 -0.5490  0.3941 -0.0294
 8648SOL    HW128098   8.295   5.172   5.230  1.5379  0.3633 -0.3519
 8648SOL    HW228099   8.241   5.275   5.327 -1.3945 -0.9813 -0.4355
 8649SOL     OW28100   5.271   5.589   2.070  0.6376 -0.1278 -0.0624
 8649SOL    HW128101   5.334   5.596   2.141 -0.6093 -1.1992  1.2067
 8649SOL    HW228102   5.306   5.522   2.012  0.9593 -0.2937  0.3232
 8650SOL     OW28103   8.575   0.301   9.272 -0.0921  0.8267 -0.1192
 8650SOL    HW128104   8.650   0.328   9.324  0.6489 -1.7830  0.3373
 8650SOL    HW228105   8.509   0.274   9.336 -0.5095  0.8568 -0.5245
 8651SOL     OW28106   8.365   9.230   0.866 -0.0756  0.0352 -0.0523
 8651SOL    HW128107   8.450   9.210   0.905 -0.9052  0.6142  2.2149
 8651SOL    HW228108   8.328   9.145   0.844  0.7316 -0.2700 -0.2539
 8652SOL     OW28109   9.536   1.173   4.001 -0.4304 -0.0155 -0.2556
 8652SOL    HW128110   9.498   1.199   4.085 -1.3221  1.9351 -1.1775
 8652SOL    HW228111   9.619   1.219   3.996 -1.7442  2.3908 -1.6471
 8653SOL     OW28112   6.623   2.045   5.780  0.4755 -0.0495 -0.1391
 8653SOL    HW128113   6.551   2.049   5.843  1.9708  1.2423  1.5975
 8653SOL    HW228114   6.659   1.957   5.792 -0.0872 -0.2914 -0.1840
 8654SOL     OW28115   5.083   5.095   9.223  0.3561  0.6783 -0.0924
 8654SOL    HW128116   5.010   5.058   9.273  1.2078  1.7206  2.0984
 8654SOL    HW228117   5.131   5.019   9.191  1.4186 -0.2540  3.2798
 8655SOL     OW28118   4.099   8.256   7.898  0.3411  0.2246  0.0553
 8655SOL    HW128119   4.170   8.312   7.867  0.0828  0.1964 -0.5986
 8655SOL    HW228120   4.084   8.194   7.826 -1.2414  1.0575 -0.3694
 8656SOL     OW28121   5.772   5.713   2.857  0.3493 -0.3420  0.3869
 8656SOL    HW128122   5.847   5.725   2.798  1.3238 -0.9470  1.4490
 8656SOL    HW228123   5.812   5.693   2.942 -1.0125  0.6269  1.2870
 8657SOL     OW28124   3.787   3.236   9.095  0.4566  0.1750 -0.0226
 8657SOL    HW128125   3.750   3.209   9.179 -1.4234  3.3111  0.3073
 8657SOL    HW228126   3.730   3.197   9.029  0.0206  0.2754  0.2900
 8658SOL     OW28127   4.770   8.310   6.874  0.0986 -0.1753 -0.7735
 8658SOL    HW128128   4.720   8.339   6.798  0.2541 -0.2803 -0.9169
 8658SOL    HW228129   4.823   8.237   6.841 -0.4940 -0.8048 -0.3505
 8659SOL     OW28130   7.106   2.972   2.972 -0.0666  0.4034 -0.4078
 8659SOL    HW128131   7.015   2.943   2.980 -0.7481  1.3460 -3.5100
 8659SOL    HW228132   7.103   3.065   2.993  0.2932  0.3405 -0.0657
 8660SOL     OW28133   8.010   5.154   3.895  0.6390 -0.0464 -0.3737
 8660SOL    HW128134   8.005   5.199   3.979 -0.4232  0.4704 -0.6915
 8660SOL    HW228135   8.056   5.072   3.914 -0.3291 -0.3258  0.8772
 8661SOL     OW28136   1.579   3.450   5.546  0.0310  0.0253 -0.2496
 8661SOL    HW128137   1.672   3.462   5.531  0.0602  0.4733  0.2466
 8661SOL    HW228138   1.556   3.516   5.612 -0.9766  1.0451 -1.5736
 8662SOL     OW28139   4.857   1.356   3.261  0.3812 -0.0202 -0.0402
 8662SOL    HW128140   4.908   1.350   3.180  0.1528  1.6349 -0.3399
 8662SOL    HW228141   4.805   1.276   3.262  0.8850 -0.3893 -1.1772
 8663SOL     OW28142   4.263   5.683   2.923 -0.0947  0.0261  0.0791
 8663SOL    HW128143   4.317   5.747   2.969 -0.6207  0.3854  0.2126
 8663SOL    HW228144   4.293   5.598   2.955 -1.4590  0.2900  2.2978
 8664SOL     OW28145   9.266   9.602   3.415  0.1349 -0.4534 -0.0573
 8664SOL    HW128146   9.180   9.643   3.412 -0.0952 -0.9859 -2.1013
 8664SOL    HW228147   9.325   9.671   3.445 -0.8143  0.2440  0.2494
 8665SOL     OW28148   0.093   5.251   4.593  0.3642 -0.1071  0.3909
 8665SOL    HW128149   0.160   5.304   4.550 -0.0361  0.0837 -0.0012
 8665SOL    HW228150   0.010   5.291   4.567  0.0648 -0.8258  0.2147
 8666SOL     OW28151   5.682   7.574   7.116 -0.3710  0.4397  0.1117
 8666SOL    HW128152   5.645   7.652   7.159  0.3143 -0.0958  1.7678
 8666SOL    HW228153   5.626   7.502   7.145 -0.1502  0.1175 -0.2579
 8667SOL     OW28154   4.860   7.048   3.469 -0.0090 -0.4055  0.1586
 8667SOL    HW128155   4.814   6.966   3.455  0.3220 -0.6311  0.3620
 8667SOL    HW228156   4.897   7.040   3.557  1.0351 -0.5426 -0.2798
 8668SOL     OW28157   9.265   6.780   2.984 -0.1035  0.5055 -0.0119
 8668SOL    HW128158   9.293   6.736   2.904 -0.0226  0.2968  0.1311
 8668SOL    HW228159   9.181   6.741   3.005  0.2612 -0.0393  0.4665
 8669SOL     OW28160   1.041   8.851   5.588 -0.1818 -0.0481 -0.1968
 8669SOL    HW128161   1.108   8.902   5.543  1.9310 -1.1731  1.4887
 8669SOL    HW228162   1.085   8.770   5.614 -2.9570 -2.1214 -1.3835
 8670SOL     OW28163   9.525   2.923   9.369 -0.0565 -0.4530  0.1934
 8670SOL    HW128164   9.575   2.986   9.318  0.3285 -0.6698  0.3015
 8670SOL    HW228165   9.476   2.976   9.431  0.3046 -0.2624  0.3172
 8671SOL     OW28166   1.339   7.262   7.920  0.1200  0.5460  0.1257
 8671SOL    HW128167   1.397   7.335   7.896  1.0147  0.2500  1.2893
 8671SOL    HW228168   1.397   7.186   7.922 -0.1684  0.3294  1.8026
 8672SOL     OW28169   1.481   7.253   5.963  0.1972  0.1228  0.5924
 8672SOL    HW128170   1.404   7.204   5.991  0.4990 -0.7273 -0.0340
 8672SOL    HW228171   1.445   7.328   5.915 -0.2518 -1.6108 -1.9360
 8673SOL     OW28172   2.409   7.328   2.386 -0.2436  0.4594 -0.6230
 8673SOL    HW128173   2.331   7.363   2.344  0.4914  2.9340 -0.0964
 8673SOL    HW228174   2.437   7.256   2.328 -2.0003  0.5240 -1.6340
 8674SOL     OW28175   0.972   4.310   3.604  0.0668 -0.4344 -0.0358
 8674SOL    HW128176   0.988   4.218   3.625  0.9272 -0.3806 -0.4269
 8674SOL    HW228177   0.877   4.319   3.611  0.0345 -1.1812  0.6771
 8675SOL     OW28178   0.239   1.850   2.348  0.6553 -0.1032  0.1791
 8675SOL    HW128179   0.251   1.880   2.438 -1.6430  1.2022  0.1163
 8675SOL    HW228180   0.189   1.768   2.357 -0.6260  0.6403  0.1070
 8676SOL     OW28181   2.550   2.556   2.581  0.3015 -0.1893  0.4355
 8676SOL    HW128182   2.526   2.631   2.527  2.4027  1.6207  1.8210
 8676SOL    HW228183   2.520   2.578   2.669  0.9185 -0.9790  0.8617
 8677SOL     OW28184   8.392   5.232   6.588 -0.2949  0.3889 -0.3144
 8677SOL    HW128185   8.375   5.257   6.679  1.3199  2.0833 -0.4173
 8677SOL    HW228186   8.486   5.212   6.587 -0.2562  0.5982 -1.6348
 8678SOL     OW28187   9.055   1.286   0.024  0.0635 -0.1230  0.7182
 8678SOL    HW128188   9.074   1.359  -0.035 -0.2715 -0.5850  0.0150
 8678SOL    HW228189   9.061   1.208  -0.032 -0.9050 -0.5214  1.1377
 8679SOL     OW28190   0.409   6.143   1.958  0.2534  0.0093  0.2280
 8679SOL    HW128191   0.443   6.204   1.892  1.5813 -1.6690 -0.7175
 8679SOL    HW228192   0.460   6.163   2.036  1.6290 -0.6871 -0.4399
 8680SOL     OW28193   7.241   4.702   5.696  0.2392 -0.0925 -0.1183
 8680SOL    HW128194   7.284   4.694   5.781  0.6109 -0.7088 -0.3555
 8680SOL    HW228195   7.193   4.620   5.686 -1.6065  0.8426  0.4512
 8681SOL     OW28196   6.769   3.681   3.658 -0.2641  0.0619  0.1872
 8681SOL    HW128197   6.842   3.740   3.678 -1.6462  1.8293  0.2828
 8681SOL    HW228198   6.722   3.671   3.741 -0.0455 -1.2324  0.1758
 8682SOL     OW28199   6.145   4.596   7.480 -0.0309  0.2562  0.2009
 8682SOL    HW128200   6.221   4.577   7.535 -0.2155 -2.1122 -0.2571
 8682SOL    HW228201   6.170   4.564   7.393 -0.7750  1.3930 -0.4553
 8683SOL     OW28202   6.393   9.074   3.216 -0.2570  0.2944 -0.9344
 8683SOL    HW128203   6.383   9.141   3.148  0.9953 -0.6469 -2.1223
 8683SOL    HW228204   6.392   9.123   3.298  0.3354  1.7588 -1.7504
 8684SOL     OW28205   8.421   7.780   2.767 -0.1739 -0.5698  0.5938
 8684SOL    HW128206   8.418   7.800   2.673 -1.8423 -1.7125  0.3527
 8684SOL    HW228207   8.495   7.721   2.777  0.9573  0.7463  0.2872
 8685SOL     OW28208   5.793   7.915   5.920  0.3948  0.1987  0.5987
 8685SOL    HW128209   5.867   7.919   5.981 -0.8242 -0.0486  2.1484
 8685SOL    HW228210   5.737   7.988   5.945 -1.6770 -1.7167  1.9241
 8686SOL     OW28211   0.737   9.573   7.630  0.5377 -0.0168 -0.2664
 8686SOL    HW128212   0.734   9.525   7.713  0.4013 -0.9657 -0.8021
 8686SOL    HW228213   0.752   9.505   7.564  0.4150  0.6957 -1.0437
 8687SOL     OW28214   6.142   6.688   3.523  0.9097 -0.0857 -0.1222
 8687SOL    HW128215   6.129   6.595   3.500 -1.4315 -0.2328  1.4796
 8687SOL    HW228216   6.234   6.704   3.504  2.3770 -3.7403  2.7525
 8688SOL     OW28217   2.378   3.169   0.628 -0.2545  0.4127  0.0635
 8688SOL    HW128218   2.421   3.108   0.687 -0.2400  0.5708  0.2186
 8688SOL    HW228219   2.410   3.145   0.541 -0.7551 -0.2220  0.0498
 8689SOL     OW28220   2.803   0.468   9.502 -0.2319  0.2576  0.3504
 8689SOL    HW128221   2.895   0.443   9.493 -0.2714  0.0628  0.4642
 8689SOL    HW228222   2.780   0.442   9.592 -0.2509  0.7894  0.5061
 8690SOL     OW28223   1.738   1.849   2.156 -0.3073  0.4647 -0.2280
 8690SOL    HW128224   1.737   1.811   2.244 -0.3502 -1.1026 -0.8829
 8690SOL    HW228225   1.689   1.787   2.102 -2.0449  2.3812 -0.9946
 8691SOL     OW28226   3.504   6.738   6.107  0.1982  0.4342 -0.0488
 8691SOL    HW128227   3.471   6.827   6.118  0.4933  0.4101  1.1556
 8691SOL    HW228228   3.516   6.706   6.196 -1.4180 -1.3756 -0.3986
 8692SOL     OW28229   6.886   6.779   8.191 -0.2806  0.0897 -0.4391
 8692SOL    HW128230   6.914   6.767   8.100 -0.2870  0.0313 -0.4331
 8692SOL    HW228231   6.966   6.768   8.242 -0.4909 -1.1268 -0.3382
 8693SOL     OW28232   6.237   3.368   1.437 -0.0118  0.1390 -0.2926
 8693SOL    HW128233   6.276   3.284   1.415  0.1070  0.7356 -2.5522
 8693SOL    HW228234   6.302   3.411   1.493 -0.6353 -1.7188  2.0197
 8694SOL     OW28235   6.042   0.010   3.774 -0.3174 -0.1211 -0.5671
 8694SOL    HW128236   5.990  -0.070   3.778  0.5339 -0.6571  0.0446
 8694SOL    HW228237   6.064   0.030   3.865  0.3086  0.2538 -0.7897
 8695SOL     OW28238   0.024   3.097   8.299 -0.2346 -0.2351 -0.2110
 8695SOL    HW128239   0.113   3.115   8.330 -0.3636  0.0083  0.0164
 8695SOL    HW228240  -0.033   3.127   8.370 -0.4795 -0.8581 -0.1336
 8696SOL     OW28241   8.575   6.176   2.529 -0.0647 -0.2023 -0.0885
 8696SOL    HW128242   8.544   6.232   2.457  0.9979  0.2474 -0.2097
 8696SOL    HW228243   8.642   6.120   2.489 -0.2374 -0.7122  0.3182
 8697SOL     OW28244   1.754   1.924   7.555 -0.7174  0.6498 -0.2908
 8697SOL    HW128245   1.737   1.953   7.465 -0.8521  0.7539 -0.2323
 8697SOL    HW228246   1.669   1.929   7.598 -0.5909  0.9260 -0.0664
 8698SOL     OW28247   2.259   5.109   7.412  0.1108 -0.2244  0.0703
 8698SOL    HW128248   2.289   5.177   7.352 -2.1434  0.1849 -0.6545
 8698SOL    HW228249   2.327   5.106   7.480  0.9799  1.7274 -0.6429
 8699SOL     OW28250   0.608   8.156   1.863 -0.1535  0.3036  0.4817
 8699SOL    HW128251   0.523   8.193   1.839  0.4911  1.8964  0.5684
 8699SOL    HW228252   0.653   8.144   1.779 -1.1167 -2.3493  0.2496
 8700SOL     OW28253   5.661   1.512   8.693  0.2736  0.2565 -0.3472
 8700SOL    HW128254   5.643   1.534   8.601  0.7699  0.7520 -0.3293
 8700SOL    HW228255   5.757   1.504   8.697  0.2384  0.0350  0.0887
 8701SOL     OW28256   9.379   0.084   6.368 -0.0404  0.5767 -0.7872
 8701SOL    HW128257   9.316   0.102   6.437  3.5334  1.7931  2.5138
 8701SOL    HW228258   9.364   0.153   6.303 -0.2928  2.5609  1.2824
 8702SOL     OW28259   6.141   4.635   3.221  0.3710  0.0460  0.2934
 8702SOL    HW128260   6.097   4.593   3.295  3.0320 -0.6916  1.5854
 8702SOL    HW228261   6.146   4.728   3.246  0.5359 -0.0599  0.6537
 8703SOL     OW28262   8.263   9.198   7.283  0.3759  0.1275 -0.2782
 8703SOL    HW128263   8.317   9.259   7.234  0.6077 -0.8071 -1.2293
 8703SOL    HW228264   8.308   9.114   7.275 -0.1189 -0.2505  0.6942
 8704SOL     OW28265   5.761   0.603   7.750 -0.8864 -0.4066 -0.0695
 8704SOL    HW128266   5.809   0.584   7.670 -0.0271 -2.4381  0.8422
 8704SOL    HW228267   5.782   0.530   7.808 -0.3477  1.6401  2.5191
 8705SOL     OW28268   2.476   8.794   6.075  0.1006  0.2032  0.3419
 8705SOL    HW128269   2.566   8.764   6.062  0.4007  0.9611  0.6580
 8705SOL    HW228270   2.455   8.769   6.165 -0.6686 -1.6428 -0.2975
 8706SOL     OW28271   5.693   2.055   9.610 -0.2050  0.0359 -0.2837
 8706SOL    HW128272   5.771   2.110   9.617 -0.3025  0.2109 -0.5527
 8706SOL    HW228273   5.637   2.084   9.683 -0.3202  0.3978 -0.5131
 8707SOL     OW28274   8.832   6.027   0.484  0.5718 -0.0767  0.4235
 8707SOL    HW128275   8.799   5.969   0.553 -0.0284 -1.9401 -1.3411
 8707SOL    HW228276   8.873   5.968   0.421 -0.6138  1.3290 -1.7961
 8708SOL     OW28277   8.637   2.774   6.589 -0.5930  0.5819 -0.2082
 8708SOL    HW128278   8.582   2.749   6.515  0.4704 -0.2650 -0.7282
 8708SOL    HW228279   8.662   2.692   6.631  1.6775  0.7786 -1.0158
 8709SOL     OW28280   2.945   0.427   7.024 -0.7619  0.2579 -0.5070
 8709SOL    HW128281   2.962   0.416   7.118 -0.8601 -1.1875 -0.6233
 8709SOL    HW228282   2.955   0.520   7.008  0.2702  0.3944  0.7471
 8710SOL     OW28283   6.550   9.097   3.782  0.3556  0.5337  0.6552
 8710SOL    HW128284   6.457   9.122   3.780  0.3800  0.6456 -1.5403
 8710SOL    HW228285   6.583   9.120   3.695  1.9810 -1.1881  0.7461
 8711SOL     OW28286   0.634   1.370   8.882 -0.1303 -0.2254 -0.6360
 8711SOL    HW128287   0.719   1.362   8.925 -0.4778  1.9500  0.6367
 8711SOL    HW228288   0.570   1.353   8.951 -0.7199  0.0510 -1.1020
 8712SOL     OW28289   5.088   2.767   8.840 -0.0662 -0.0686 -0.3801
 8712SOL    HW128290   5.031   2.707   8.793  0.2619 -0.8057  0.1445
 8712SOL    HW228291   5.041   2.787   8.921  0.9321 -1.6740  0.6421
 8713SOL     OW28292   3.139   0.249   5.619  0.0701  0.4674 -0.2864
 8713SOL    HW128293   3.170   0.225   5.706 -2.9375 -0.2913  0.6935
 8713SOL    HW228294   3.122   0.343   5.625  1.3731  0.7421 -0.6076
 8714SOL     OW28295   8.435   1.336   8.062  0.5630 -0.2626 -0.5097
 8714SOL    HW128296   8.441   1.259   8.119 -1.4742  0.0248  0.1739
 8714SOL    HW228297   8.448   1.410   8.121  1.4332 -0.0201 -0.9835
 8715SOL     OW28298   8.154   1.733   3.647 -0.2781  0.1970  0.4079
 8715SOL    HW128299   8.096   1.684   3.590 -0.9788  1.1904  0.2483
 8715SOL    HW228300   8.176   1.671   3.718 -2.3698  0.1097  1.0391
 8716SOL     OW28301   7.934   6.430   8.274 -0.0588  0.5376 -0.2863
 8716SOL    HW128302   7.935   6.506   8.215 -1.0679  0.9070  0.1419
 8716SOL    HW228303   7.843   6.399   8.271  0.0976 -0.0034  0.3607
 8717SOL     OW28304   6.779   0.012   8.355  0.3429 -0.2219 -0.0534
 8717SOL    HW128305   6.711   0.028   8.290 -0.7991 -3.8843 -0.0114
 8717SOL    HW228306   6.733   0.018   8.439 -0.8055 -4.8998 -0.0738
 8718SOL     OW28307   1.143   1.785   0.555  0.3457 -0.3703 -0.2625
 8718SOL    HW128308   1.234   1.774   0.525  0.4461  0.3640 -0.2308
 8718SOL    HW228309   1.144   1.866   0.606  0.0764 -1.3510  1.3636
 8719SOL     OW28310   1.989   2.851   8.276  0.3218  0.3180 -0.1247
 8719SOL    HW128311   2.021   2.883   8.192 -0.1305 -1.5119 -1.0604
 8719SOL    HW228312   1.894   2.845   8.265 -0.0459  2.3861  1.4146
 8720SOL     OW28313   2.734   3.118   4.682  0.1133 -0.4715 -0.0660
 8720SOL    HW128314   2.811   3.078   4.722  1.0428  1.6393  0.3888
 8720SOL    HW228315   2.732   3.083   4.593  1.3179 -0.9454  0.0732
 8721SOL     OW28316   1.734   8.955   1.101  0.0843 -1.0793  0.2315
 8721SOL    HW128317   1.644   8.974   1.073  0.2847 -0.6832 -0.1574
 8721SOL    HW228318   1.772   8.907   1.027  1.0201  1.1051 -0.7818
 8722SOL     OW28319   6.462   0.591   1.930 -0.2099 -0.2097 -0.6369
 8722SOL    HW128320   6.416   0.675   1.930 -0.0105  0.2123  4.2698
 8722SOL    HW228321   6.555   0.614   1.923 -0.2642 -0.3159 -1.9147
 8723SOL     OW28322   4.915   8.739   1.564  0.3557  0.1338  0.0724
 8723SOL    HW128323   4.970   8.687   1.623  0.0461  0.8989  1.0761
 8723SOL    HW228324   4.843   8.681   1.541  0.0337  0.0774  1.1440
 8724SOL     OW28325   0.098   2.397   1.163 -0.1267 -0.5993  0.4068
 8724SOL    HW128326   0.126   2.308   1.186 -0.8473 -0.5464  1.5717
 8724SOL    HW228327   0.024   2.414   1.221  1.6791  1.7885  2.1734
 8725SOL     OW28328   8.741   2.711   2.917 -0.0136 -0.4865 -0.2313
 8725SOL    HW128329   8.774   2.774   2.854  3.6508 -1.8828  0.0532
 8725SOL    HW228330   8.755   2.625   2.876  0.4351 -1.3183  1.5247
 8726SOL     OW28331   6.485   3.722   0.477  0.2381  0.0239  0.2080
 8726SOL    HW128332   6.485   3.776   0.556 -0.4357  2.6657 -1.4933
 8726SOL    HW228333   6.506   3.782   0.406  0.4685 -2.1842 -1.7290
 8727SOL     OW28334   6.996   6.844   1.636  0.4441  0.4779  0.3258
 8727SOL    HW128335   6.923   6.782   1.635 -0.5326  1.5359 -2.1284
 8727SOL    HW228336   7.074   6.788   1.624 -0.3542 -0.3915 -1.1790
 8728SOL     OW28337   3.182   9.152   2.754  0.3799  0.2143 -0.0712
 8728SOL    HW128338   3.209   9.220   2.692 -2.0867  2.1595  0.7862
 8728SOL    HW228339   3.147   9.083   2.698 -2.1582  2.0878 -1.0320
 8729SOL     OW28340   4.423   1.333   0.844  0.2774  0.5111 -0.0318
 8729SOL    HW128341   4.446   1.271   0.914  0.9949  1.1020  0.2707
 8729SOL    HW228342   4.340   1.300   0.810 -0.2739  0.4073  1.3382
 8730SOL     OW28343   2.003   3.686   7.516  0.4026 -0.1098  0.1898
 8730SOL    HW128344   2.054   3.767   7.525 -0.4718  0.2938  2.1447
 8730SOL    HW228345   2.041   3.642   7.441  0.7304  2.2405 -1.1189
 8731SOL     OW28346   6.386   9.036   1.566  0.7166 -0.2962  0.0986
 8731SOL    HW128347   6.412   9.100   1.632 -0.1469  0.3392 -0.1586
 8731SOL    HW228348   6.468   9.012   1.522  0.7987  2.4734 -1.4417
 8732SOL     OW28349   0.331   4.999   8.696  0.4383  0.0985  0.4561
 8732SOL    HW128350   0.303   5.011   8.787  1.0699  2.5479  0.3799
 8732SOL    HW228351   0.310   5.081   8.653  1.5962 -0.4475 -1.2505
 8733SOL     OW28352   7.919   0.104   8.138  0.1717 -0.2847  0.2130
 8733SOL    HW128353   7.869   0.153   8.073 -1.9352 -0.2635  1.7813
 8733SOL    HW228354   7.856   0.044   8.177  1.4679 -0.5405  2.0162
 8734SOL     OW28355   0.735   5.647   1.635 -0.3182  0.7201  0.6508
 8734SOL    HW128356   0.661   5.626   1.693 -0.4803 -0.7498 -0.0363
 8734SOL    HW228357   0.806   5.673   1.694 -0.7475  0.1112  1.4518
 8735SOL     OW28358   4.504   6.872   2.106 -0.3841 -0.2226 -0.0424
 8735SOL    HW128359   4.578   6.820   2.075  0.0425 -0.4465  1.2739
 8735SOL    HW228360   4.543   6.936   2.166 -1.1284  0.3664 -0.1777
 8736SOL     OW28361   3.044   2.966   7.924 -0.3038  0.1726  0.0696
 8736SOL    HW128362   2.979   2.950   7.993  0.4930 -0.5594  0.6862
 8736SOL    HW228363   3.022   3.052   7.889 -0.9749  0.3897  0.9769
 8737SOL     OW28364   4.273   5.818   8.241 -0.3569 -0.3145  0.2694
 8737SOL    HW128365   4.318   5.898   8.268  1.4940 -0.5642 -1.7239
 8737SOL    HW228366   4.219   5.794   8.315  0.6923  1.6101  1.7488
 8738SOL     OW28367   9.250   3.552   8.576 -0.1145  0.0771  0.0860
 8738SOL    HW128368   9.313   3.607   8.622  0.0474  0.4627 -0.5903
 8738SOL    HW228369   9.199   3.510   8.646  0.5467  0.1591  0.6219
 8739SOL     OW28370   0.446   0.002   9.177  0.1106 -0.3501 -0.5623
 8739SOL    HW128371   0.449  -0.021   9.084 -3.6990  0.0738 -0.9619
 8739SOL    HW228372   0.435  -0.081   9.222  0.6250 -0.4365 -0.5857
 8740SOL     OW28373   2.654   2.913   1.874  1.0614 -0.4520  0.1719
 8740SOL    HW128374   2.651   2.994   1.823 -0.1875 -0.9498 -0.6105
 8740SOL    HW228375   2.742   2.911   1.911  0.6057  2.1264  1.6677
 8741SOL     OW28376   6.509   9.146   5.395  0.9696  0.8972 -0.4377
 8741SOL    HW128377   6.472   9.215   5.340 -0.3926  0.0112 -0.6937
 8741SOL    HW228378   6.443   9.131   5.463  2.5743  1.8884  1.4349
 8742SOL     OW28379   2.940   6.653   1.744  0.1836 -0.0075  0.3393
 8742SOL    HW128380   3.003   6.615   1.804 -0.7662 -1.4149  0.4932
 8742SOL    HW228381   2.993   6.696   1.676  1.2648  0.2257  1.3108
 8743SOL     OW28382   2.126   3.042   2.450  0.3928  0.2940  0.2757
 8743SOL    HW128383   2.087   3.044   2.362 -0.0840  0.0512  0.4800
 8743SOL    HW228384   2.119   2.951   2.478 -1.0386  0.6560  1.2526
 8744SOL     OW28385   6.052   5.182   3.866 -0.4317 -0.0273 -0.8138
 8744SOL    HW128386   6.118   5.145   3.808 -0.5985 -1.4037 -0.1872
 8744SOL    HW228387   6.101   5.208   3.944 -0.4346  0.2719 -0.9118
 8745SOL     OW28388   1.469   8.445   1.865  0.2967 -0.4192 -0.4010
 8745SOL    HW128389   1.536   8.433   1.798  1.4506 -1.1751  0.8391
 8745SOL    HW228390   1.439   8.535   1.853  2.7022  0.5237  0.0102
 8746SOL     OW28391   7.399   3.565   6.853  0.4297 -0.1653 -0.1647
 8746SOL    HW128392   7.387   3.650   6.810  1.0609 -0.7905 -1.6544
 8746SOL    HW228393   7.314   3.521   6.844 -0.8745  1.3183  3.1730
 8747SOL     OW28394   0.794   4.323   8.686  0.1096 -0.0282 -0.0180
 8747SOL    HW128395   0.865   4.260   8.680  0.2169  0.1981 -1.3414
 8747SOL    HW228396   0.804   4.361   8.774  1.5335 -0.1014 -0.1226
 8748SOL     OW28397   1.516   2.812   7.592 -0.1195  0.3571  0.4444
 8748SOL    HW128398   1.576   2.885   7.609  0.3894 -0.1092  0.6893
 8748SOL    HW228399   1.561   2.735   7.628 -0.4846 -0.1338 -0.1248
 8749SOL     OW28400   7.065   4.526   4.924 -0.1918  0.5246  0.1071
 8749SOL    HW128401   7.147   4.492   4.959 -0.0285  0.5884 -0.2097
 8749SOL    HW228402   7.090   4.574   4.845 -0.6631 -0.5771 -0.7460
 8750SOL     OW28403   5.620   4.395   3.504  0.4159 -0.0181  0.7946
 8750SOL    HW128404   5.575   4.318   3.469 -2.4482  1.6180  0.5970
 8750SOL    HW228405   5.627   4.454   3.429 -0.5771  1.2583  1.6804
 8751SOL     OW28406   7.852   7.656   5.808  0.0904  0.0129  0.3114
 8751SOL    HW128407   7.888   7.744   5.820  1.5279 -0.5676  0.4913
 8751SOL    HW228408   7.765   7.670   5.769  0.1995  1.5041  0.5557
 8752SOL     OW28409   7.378   5.056   6.357  0.2715 -0.2700  0.0268
 8752SOL    HW128410   7.347   5.123   6.296 -2.6922 -2.5649 -1.2747
 8752SOL    HW228411   7.346   5.084   6.442 -1.8064 -0.4138 -0.6521
 8753SOL     OW28412   8.593   1.878   5.207  0.1984  0.0731  0.1691
 8753SOL    HW128413   8.574   1.925   5.288 -0.6530 -0.8547  0.5233
 8753SOL    HW228414   8.537   1.920   5.141  1.9524  1.8116 -0.3254
 8754SOL     OW28415   9.234   7.252   6.007  0.0818 -0.2540 -0.2355
 8754SOL    HW128416   9.174   7.184   5.974 -0.0172  0.4294 -1.5218
 8754SOL    HW228417   9.306   7.252   5.944 -0.3204  1.3823 -0.7374
 8755SOL     OW28418   4.459   5.195   0.410  0.1950  0.1631 -0.4133
 8755SOL    HW128419   4.428   5.204   0.320  0.7059  2.0022 -0.4512
 8755SOL    HW228420   4.554   5.201   0.404  0.3871 -1.7119  0.0841
 8756SOL     OW28421   6.136   8.234   6.140  0.1531 -0.1446  0.0252
 8756SOL    HW128422   6.197   8.307   6.133  0.3060 -0.3114 -0.4416
 8756SOL    HW228423   6.113   8.230   6.232  1.6437 -0.7268  0.4003
 8757SOL     OW28424   6.651   6.871   3.722 -0.5011 -0.6305 -0.5269
 8757SOL    HW128425   6.576   6.813   3.737 -0.0769 -1.2231 -0.6848
 8757SOL    HW228426   6.712   6.819   3.671 -0.0869 -0.0593 -0.6234
 8758SOL     OW28427   4.884   0.496   8.320 -0.7184  0.1117  0.4680
 8758SOL    HW128428   4.978   0.511   8.324 -0.4711 -1.4905  1.4620
 8758SOL    HW228429   4.854   0.505   8.410 -1.3588 -0.3573  0.3076
 8759SOL     OW28430   2.376   0.110   7.988 -0.6843  0.0716  0.0550
 8759SOL    HW128431   2.456   0.134   8.035 -0.1147 -0.9434 -0.3588
 8759SOL    HW228432   2.305   0.136   8.047 -0.0356  0.5609  0.6344
 8760SOL     OW28433   3.960   1.397   2.797  0.1726 -0.5190 -0.0705
 8760SOL    HW128434   3.873   1.389   2.837 -1.0051  0.8741 -2.1473
 8760SOL    HW228435   3.994   1.308   2.795 -0.8248 -0.9758  1.5525
 8761SOL     OW28436   2.465   8.915   8.497  0.6788  0.0916  0.2434
 8761SOL    HW128437   2.440   9.002   8.465 -0.6520 -0.0780  0.7676
 8761SOL    HW228438   2.560   8.920   8.508  0.8821  0.8759 -1.5370
 8762SOL     OW28439   0.752   7.004   3.991  0.5184 -0.2260  0.1039
 8762SOL    HW128440   0.790   7.092   3.987  1.5303 -0.6940 -1.3941
 8762SOL    HW228441   0.804   6.953   3.930 -1.5301 -1.3342 -0.7985
 8763SOL     OW28442   3.601   8.392   2.354 -0.1527  0.4966 -0.0441
 8763SOL    HW128443   3.596   8.361   2.263  2.0462  0.3625 -0.1705
 8763SOL    HW228444   3.553   8.475   2.353  0.7354  1.0376 -1.6031
 8764SOL     OW28445   5.343   0.498   1.792  0.0387 -0.2683 -0.7369
 8764SOL    HW128446   5.328   0.406   1.771  0.2720 -0.2745 -0.8716
 8764SOL    HW228447   5.436   0.503   1.813 -0.1194 -0.2070 -0.0108
 8765SOL     OW28448   3.375   7.092   8.400  0.0300  0.0947 -0.1588
 8765SOL    HW128449   3.405   7.033   8.469 -2.3873 -1.1068 -0.0279
 8765SOL    HW228450   3.440   7.163   8.399  2.4994 -1.9881  0.3734
 8766SOL     OW28451   6.190   2.129   0.435  0.2400 -0.4850 -0.7084
 8766SOL    HW128452   6.126   2.093   0.373 -0.5057 -1.6471  0.6854
 8766SOL    HW228453   6.178   2.224   0.429 -0.6832 -0.6327 -1.4467
 8767SOL     OW28454   1.462   0.372   1.057 -0.3097 -0.3911  0.1930
 8767SOL    HW128455   1.435   0.283   1.035 -0.6739 -0.0457 -0.8344
 8767SOL    HW228456   1.508   0.403   0.978 -0.8190  0.5737  0.2524
 8768SOL     OW28457   5.698   3.422   5.666  0.1825  0.4766  0.6313
 8768SOL    HW128458   5.724   3.513   5.661 -0.5771  0.6758  0.1990
 8768SOL    HW228459   5.640   3.409   5.591 -1.1537  0.1276  1.6867
 8769SOL     OW28460   2.748   0.719   5.409  0.1388 -0.3136  0.7185
 8769SOL    HW128461   2.784   0.633   5.386 -1.8843 -0.5107 -2.1748
 8769SOL    HW228462   2.653   0.706   5.411 -0.2417  1.9166 -0.0865
 8770SOL     OW28463   7.745   0.512   6.703  0.1913 -0.1445  0.5153
 8770SOL    HW128464   7.677   0.446   6.718 -0.5605  0.1636 -1.2784
 8770SOL    HW228465   7.708   0.592   6.739 -0.4026  0.0014 -0.3707
 8771SOL     OW28466   3.099   5.549   2.865 -0.1823  0.2954 -0.1724
 8771SOL    HW128467   3.109   5.478   2.801  2.2892  1.2224 -0.9479
 8771SOL    HW228468   3.098   5.628   2.811  1.3250  1.0628  0.8842
 8772SOL     OW28469   8.856   6.533   6.503 -0.1951 -0.9078 -0.1088
 8772SOL    HW128470   8.893   6.542   6.591 -0.6172  1.5378 -0.1219
 8772SOL    HW228471   8.767   6.503   6.517  0.2755 -2.2583  0.1632
 8773SOL     OW28472   6.674   3.524   4.818  0.5691 -0.8532  0.1042
 8773SOL    HW128473   6.624   3.473   4.882 -2.5737  0.6518 -0.9566
 8773SOL    HW228474   6.643   3.492   4.734  1.0586  0.4839 -0.6013
 8774SOL     OW28475   4.272   5.916   4.817  0.2411  0.6810  0.3862
 8774SOL    HW128476   4.302   5.877   4.900  0.5829  0.2161  0.0468
 8774SOL    HW228477   4.347   5.965   4.785  0.2380  0.5335  0.1530
 8775SOL     OW28478   0.587   6.634   8.825  0.3260  0.1068 -0.0143
 8775SOL    HW128479   0.585   6.728   8.806 -1.0204  0.1958  0.4149
 8775SOL    HW228480   0.642   6.626   8.902  0.8866  0.4768 -0.3696
 8776SOL     OW28481   5.055   2.988   0.214  0.0912 -0.5950 -0.7203
 8776SOL    HW128482   4.979   2.995   0.156 -0.5136 -2.6472 -0.2529
 8776SOL    HW228483   5.130   2.989   0.155 -0.2086  1.7729 -1.1665
 8777SOL     OW28484   5.533   7.689   6.573  0.3107 -0.1071 -0.1986
 8777SOL    HW128485   5.543   7.598   6.546  0.9794  0.0327 -0.4308
 8777SOL    HW228486   5.579   7.694   6.657  0.2043  0.0046 -0.1457
 8778SOL     OW28487   6.205   8.251   8.918 -0.0829  0.2603  0.2311
 8778SOL    HW128488   6.143   8.180   8.898 -0.8051  0.5252  1.4035
 8778SOL    HW228489   6.247   8.271   8.835 -0.5076 -0.9464 -0.2965
 8779SOL     OW28490   1.691   1.209   3.588 -0.4542  0.6672 -0.1535
 8779SOL    HW128491   1.786   1.209   3.582 -0.4768  1.6074 -0.8082
 8779SOL    HW228492   1.661   1.227   3.499 -1.1181  3.9414  0.5707
 8780SOL     OW28493   3.447   0.772   5.544  0.0197  0.0281  0.3976
 8780SOL    HW128494   3.504   0.827   5.598  1.5774 -1.4855  0.3582
 8780SOL    HW228495   3.491   0.688   5.540  0.2116  0.1327 -3.5267
 8781SOL     OW28496   8.973   2.200   8.282 -0.1812 -0.4363 -0.0551
 8781SOL    HW128497   9.050   2.239   8.323 -0.5641  2.1066 -1.5365
 8781SOL    HW228498   9.000   2.185   8.191 -0.7484 -1.7107 -0.0311
 8782SOL     OW28499   9.414   3.140   4.980 -0.0665  0.5020 -0.6420
 8782SOL    HW128500   9.408   3.233   4.957 -0.6863  0.7206  0.3714
 8782SOL    HW228501   9.499   3.112   4.946  0.9909  1.9162  0.7230
 8783SOL     OW28502   0.014   0.608   8.537  0.0753  0.3358 -0.2500
 8783SOL    HW128503   0.022   0.512   8.537 -0.7621  0.2448 -1.0907
 8783SOL    HW228504   0.025   0.632   8.445 -0.9215  0.9229 -0.2242
 8784SOL     OW28505   0.686   7.381   5.056 -0.3543 -0.5431 -0.1371
 8784SOL    HW128506   0.601   7.414   5.026 -0.7791 -1.3846  0.1137
 8784SOL    HW228507   0.745   7.456   5.047 -1.0199 -0.0771 -0.7364
 8785SOL     OW28508   5.588   5.092   5.852 -0.2326  0.2819 -0.8613
 8785SOL    HW128509   5.582   5.008   5.898 -1.8368  0.6726 -0.2848
 8785SOL    HW228510   5.594   5.068   5.760 -1.7956 -0.5067 -0.8028
 8786SOL     OW28511   3.792   3.801   3.335 -0.0716 -0.4417  0.2209
 8786SOL    HW128512   3.721   3.787   3.272  0.1058  0.0568 -0.0905
 8786SOL    HW228513   3.767   3.746   3.410 -0.3407 -0.9507 -0.2285
 8787SOL     OW28514   1.901   7.844   6.679 -0.3625  0.0126  0.7427
 8787SOL    HW128515   1.979   7.830   6.733 -0.9840 -3.5372  0.9695
 8787SOL    HW228516   1.906   7.776   6.612 -1.2600  2.2985 -1.8393
 8788SOL     OW28517   1.571   7.876   6.119  0.6526 -0.5266  0.3246
 8788SOL    HW128518   1.639   7.941   6.135  0.4272 -0.3249  0.4797
 8788SOL    HW228519   1.569   7.866   6.024 -0.0027  0.4519  0.2192
 8789SOL     OW28520   4.188   4.988   3.857  0.5683  0.5991 -0.2533
 8789SOL    HW128521   4.139   4.911   3.830 -2.4320  2.5506 -0.7784
 8789SOL    HW228522   4.214   5.030   3.775  4.5543 -1.0330 -0.0561
 8790SOL     OW28523   5.420   2.192   0.053 -0.2550 -0.1314 -0.6260
 8790SOL    HW128524   5.467   2.240  -0.015  0.0800  1.0610  0.4075
 8790SOL    HW228525   5.398   2.259   0.119 -1.2360 -1.1088  0.0750
 8791SOL     OW28526   8.882   2.492   7.708 -0.2737  0.1215 -0.3007
 8791SOL    HW128527   8.806   2.537   7.673 -0.2413  0.2095 -0.2586
 8791SOL    HW228528   8.861   2.477   7.800  0.5796  1.9305  0.2245
 8792SOL     OW28529   4.016   8.516   7.213 -0.6008 -0.3262 -0.5955
 8792SOL    HW128530   4.025   8.585   7.279  0.0848 -1.7022  0.8237
 8792SOL    HW228531   3.938   8.468   7.240  0.5270 -1.8199  0.1655
 8793SOL     OW28532   0.361   6.193   2.263  0.6779 -0.3297 -0.0740
 8793SOL    HW128533   0.455   6.210   2.270  0.8601 -1.1297 -0.4588
 8793SOL    HW228534   0.319   6.278   2.279  1.4307 -0.1374  0.9754
 8794SOL     OW28535   0.722   5.524   6.798 -0.1089  0.1248  0.0883
 8794SOL    HW128536   0.638   5.565   6.778 -0.1187  1.0439  1.8539
 8794SOL    HW228537   0.700   5.446   6.848  0.0485 -0.5795 -0.8936
 8795SOL     OW28538   4.900   7.844   4.418  0.1722  0.2219  0.0887
 8795SOL    HW128539   4.825   7.836   4.359 -0.1400  1.2876  0.3142
 8795SOL    HW228540   4.890   7.773   4.481 -1.0365  0.7354  0.5103
 8796SOL     OW28541   5.056   6.279   6.118  0.1358  0.1799 -0.4388
 8796SOL    HW128542   5.108   6.292   6.197  0.2522  1.3228 -0.6864
 8796SOL    HW228543   5.110   6.225   6.061  0.0025 -0.7555  0.2984
 8797SOL     OW28544   4.444   4.332   3.368  0.4942 -0.7860 -0.2201
 8797SOL    HW128545   4.467   4.347   3.277  0.9119 -0.3928 -0.0547
 8797SOL    HW228546   4.351   4.353   3.373  0.0801 -2.3559 -0.8856
 8798SOL     OW28547   0.359   1.273   4.142  0.6805 -0.0888 -0.1153
 8798SOL    HW128548   0.413   1.332   4.089  0.6815  0.1322  0.1267
 8798SOL    HW228549   0.391   1.286   4.232  2.4036 -2.3151 -0.3390
 8799SOL     OW28550   5.341   8.021   2.033 -0.0513  0.3497  0.1893
 8799SOL    HW128551   5.296   8.091   2.080 -1.1394 -0.5194  0.4716
 8799SOL    HW228552   5.298   8.016   1.948 -1.4669 -1.3773  0.9443
 8800SOL     OW28553   0.974   1.836   7.913  0.4860  0.9185 -0.5830
 8800SOL    HW128554   0.887   1.873   7.898  0.3349 -0.0765 -2.5068
 8800SOL    HW228555   1.028   1.872   7.843  0.6067 -1.4816 -1.8301
 8801SOL     OW28556   0.854   7.516   5.969  0.2062  0.6624  0.0982
 8801SOL    HW128557   0.901   7.546   6.046 -0.0091  1.8964 -0.2175
 8801SOL    HW228558   0.807   7.438   5.998  3.3001 -1.3627  0.1170
 8802SOL     OW28559   9.075   1.228   5.146 -0.1848 -0.1648  0.1799
 8802SOL    HW128560   9.006   1.268   5.199 -0.5459 -1.5458  0.8051
 8802SOL    HW228561   9.072   1.135   5.169  0.8361 -0.5110 -0.9681
 8803SOL     OW28562   4.459   0.935   3.790 -0.4768  0.4757  0.5165
 8803SOL    HW128563   4.549   0.902   3.783 -0.3473  1.0085 -0.3625
 8803SOL    HW228564   4.422   0.884   3.862  0.4185  0.0008  0.6661
 8804SOL     OW28565   8.212   6.313   3.851 -0.0049 -0.4530 -0.2665
 8804SOL    HW128566   8.226   6.408   3.845  1.8265 -0.4730  2.2478
 8804SOL    HW228567   8.131   6.305   3.903 -0.0979 -0.2593 -0.3794
 8805SOL     OW28568   9.014   0.971   1.404  0.3869  0.2032 -0.2264
 8805SOL    HW128569   8.972   0.960   1.490  0.7378 -1.5430 -0.2400
 8805SOL    HW228570   9.102   1.001   1.424  1.1330 -2.0620  0.2064
 8806SOL     OW28571   6.460   5.367   0.445 -0.1712 -0.5129 -0.1615
 8806SOL    HW128572   6.441   5.459   0.463  0.7646 -0.5128  0.9847
 8806SOL    HW228573   6.434   5.320   0.524 -2.4255 -1.5502 -1.4120
 8807SOL     OW28574   2.722   4.545   1.444  0.0332 -0.0976  0.1882
 8807SOL    HW128575   2.683   4.458   1.445 -1.7072  0.6110 -1.2695
 8807SOL    HW228576   2.652   4.603   1.414  0.6621  2.0848  2.5815
 8808SOL     OW28577   8.621   2.591   5.576  0.6809 -0.3428 -0.3011
 8808SOL    HW128578   8.598   2.507   5.616  0.9799 -0.6138 -0.6837
 8808SOL    HW228579   8.648   2.568   5.487  0.5808  0.1824 -0.4691
 8809SOL     OW28580   8.938   0.330   0.918 -0.0902  0.3757  0.0188
 8809SOL    HW128581   8.898   0.278   0.987 -0.3872 -0.1773 -0.5684
 8809SOL    HW228582   8.898   0.417   0.927  0.0484  0.3717  0.6880
 8810SOL     OW28583   3.229   6.860   0.845 -0.0203 -0.6417 -0.4207
 8810SOL    HW128584   3.267   6.948   0.856 -2.4903  0.6591 -1.4799
 8810SOL    HW228585   3.259   6.832   0.759 -0.3682 -0.2009 -0.6902
 8811SOL     OW28586   2.589   1.617   2.418  0.4290  0.0531  0.0130
 8811SOL    HW128587   2.617   1.610   2.509  0.5123 -0.3117 -0.0367
 8811SOL    HW228588   2.500   1.582   2.417  0.7982 -0.9338 -0.2168
 8812SOL     OW28589   7.400   6.559   7.146 -0.5407  0.1307 -0.3016
 8812SOL    HW128590   7.437   6.605   7.070 -1.4260  0.2840 -0.6476
 8812SOL    HW228591   7.366   6.629   7.201  0.3763  0.0431  0.4078
 8813SOL     OW28592   8.173   4.586   3.127  0.1784  0.7100 -0.2939
 8813SOL    HW128593   8.120   4.517   3.087  0.0253 -0.1995  1.3526
 8813SOL    HW228594   8.134   4.598   3.214  1.6130  1.2500  0.3010
 8814SOL     OW28595   2.217   0.152   8.486 -0.4323 -0.4631 -0.1432
 8814SOL    HW128596   2.160   0.154   8.562 -0.9953 -0.3700 -0.5604
 8814SOL    HW228597   2.207   0.064   8.450  1.5103 -1.2860  1.1170
 8815SOL     OW28598   6.985   0.425   6.898  0.5111 -0.3115  0.4626
 8815SOL    HW128599   6.967   0.504   6.846  0.7806 -0.4738  0.1157
 8815SOL    HW228600   7.045   0.374   6.844 -1.2532 -1.7526 -0.2477
 8816SOL     OW28601   6.701   1.557   5.449  0.8498 -0.2696  0.3840
 8816SOL    HW128602   6.714   1.648   5.425  1.6537 -0.4072  0.2775
 8816SOL    HW228603   6.702   1.557   5.545 -0.3708 -0.0050  0.4149
 8817SOL     OW28604   6.685   9.371   3.659 -0.4765 -0.1342 -0.4985
 8817SOL    HW128605   6.642   9.354   3.743 -3.7459  3.8313 -1.0410
 8817SOL    HW228606   6.735   9.452   3.673  0.3750 -0.3538 -1.9854
 8818SOL     OW28607   3.596   9.472   5.396  0.4653  0.5976  0.4456
 8818SOL    HW128608   3.597   9.401   5.459  1.8618 -0.8623 -1.1099
 8818SOL    HW228609   3.615   9.551   5.447  0.0458 -0.3012  2.0394
 8819SOL     OW28610   2.779   2.131   9.192  0.6168  0.1685 -0.2933
 8819SOL    HW128611   2.842   2.078   9.142  0.3403 -0.0370 -0.4281
 8819SOL    HW228612   2.791   2.220   9.160  0.0660 -0.0431 -1.1211
 8820SOL     OW28613   0.296   6.928   2.744  0.1336  0.4851  0.4793
 8820SOL    HW128614   0.212   6.883   2.733 -0.3742  1.3450  0.7345
 8820SOL    HW228615   0.311   6.929   2.839  0.7284 -0.1883  0.3964
 8821SOL     OW28616   3.306   1.902   7.466 -0.4302  0.0076 -0.0069
 8821SOL    HW128617   3.336   1.825   7.417  2.2591  2.2263 -2.1998
 8821SOL    HW228618   3.219   1.921   7.430 -0.0243 -0.5323 -1.3576
 8822SOL     OW28619   2.075   7.651   1.199  0.6321  0.3976  0.0377
 8822SOL    HW128620   2.149   7.596   1.175 -0.2570 -0.0660 -1.8448
 8822SOL    HW228621   2.049   7.694   1.117  0.0875  2.1457  1.0648
 8823SOL     OW28622   7.919   0.263   6.503 -0.0105 -0.3017  0.4075
 8823SOL    HW128623   7.983   0.294   6.439  1.3874  2.5434  2.9498
 8823SOL    HW228624   7.949   0.176   6.528  0.9913 -0.3127 -0.7725
 8824SOL     OW28625   2.134   5.217   1.373  0.4244 -0.7805  0.7123
 8824SOL    HW128626   2.150   5.312   1.377 -0.3269 -0.6480  0.7577
 8824SOL    HW228627   2.042   5.210   1.349  0.7612 -1.5140 -0.4365
 8825SOL     OW28628   8.874   0.823   5.551  0.2346  0.4808 -0.1003
 8825SOL    HW128629   8.907   0.738   5.579 -1.6626 -0.0999  0.5207
 8825SOL    HW228630   8.952   0.870   5.521  1.5912 -0.8066  1.2053
 8826SOL     OW28631   8.664   9.345   8.564  0.1125 -0.3263  0.0522
 8826SOL    HW128632   8.652   9.310   8.476  2.7969 -0.0652 -0.5111
 8826SOL    HW228633   8.662   9.269   8.621 -0.7182 -0.6026 -0.3363
 8827SOL     OW28634   0.988   6.139   4.906  0.0651 -0.0349 -0.1796
 8827SOL    HW128635   0.979   6.066   4.967 -0.3749  0.8250  0.8089
 8827SOL    HW228636   1.015   6.098   4.824  3.4722 -0.9870  1.2566
 8828SOL     OW28637   7.674   0.072   6.525 -0.4822  0.0155  0.0597
 8828SOL    HW128638   7.761   0.087   6.563 -0.3246 -1.3537  0.2997
 8828SOL    HW228639   7.683   0.097   6.433  0.6606 -1.6987 -0.3335
 8829SOL     OW28640   9.401   5.919   8.439  0.4268  0.6325  0.0534
 8829SOL    HW128641   9.372   5.913   8.531 -0.6819 -0.3531 -0.3349
 8829SOL    HW228642   9.361   5.843   8.397  2.0610  0.2866 -0.9618
 8830SOL     OW28643   1.101   2.145   1.156 -0.2579 -0.6508  0.1897
 8830SOL    HW128644   1.160   2.218   1.175 -0.3547 -0.7934  1.0885
 8830SOL    HW228645   1.068   2.119   1.241  1.3281 -3.0726  0.1392
 8831SOL     OW28646   5.340   1.806   8.668 -0.4789 -0.1855  0.1532
 8831SOL    HW128647   5.342   1.727   8.723 -0.8934  0.7603  1.5842
 8831SOL    HW228648   5.247   1.823   8.655 -0.4062 -1.0952 -1.9534
 8832SOL     OW28649   4.540   3.656   2.847  0.3147 -0.5463  0.4498
 8832SOL    HW128650   4.536   3.572   2.893  0.9421 -0.7850  0.0745
 8832SOL    HW228651   4.484   3.643   2.770  0.9214 -0.8449  0.0487
 8833SOL     OW28652   3.185   6.936   7.496 -0.3513 -0.2117 -0.3367
 8833SOL    HW128653   3.174   7.031   7.494  0.0260 -0.1789 -1.0265
 8833SOL    HW228654   3.247   6.917   7.426  1.0591 -0.7742  1.0079
 8834SOL     OW28655   8.355   0.478   8.029 -0.2073 -0.0612 -0.3647
 8834SOL    HW128656   8.408   0.417   8.081 -0.1179 -0.0034 -0.3877
 8834SOL    HW228657   8.313   0.423   7.963 -0.3665 -0.1432 -0.1941
 8835SOL     OW28658   1.617   9.499   6.964 -0.1689 -0.1295  0.4324
 8835SOL    HW128659   1.613   9.536   6.876  0.7659  0.4090  0.5997
 8835SOL    HW228660   1.630   9.574   7.022  2.8629 -0.7044  0.6800
 8836SOL     OW28661   7.500   2.926   0.756  0.1062  0.4192 -0.5930
 8836SOL    HW128662   7.541   2.863   0.815  1.5278  1.7889 -0.0495
 8836SOL    HW228663   7.448   2.983   0.813 -1.1051 -0.1725 -1.0702
 8837SOL     OW28664   9.401   5.012   6.652 -0.6503 -0.2715  0.2513
 8837SOL    HW128665   9.428   5.103   6.665 -0.7004 -0.2173 -0.0247
 8837SOL    HW228666   9.371   4.983   6.738  0.2643 -0.3243  0.5626
 8838SOL     OW28667   9.001   3.394   7.358  0.4503  0.5716  0.7787
 8838SOL    HW128668   8.926   3.436   7.316 -0.2238  0.2539  1.6555
 8838SOL    HW228669   9.049   3.354   7.285 -1.5830 -1.3700  0.4066
 8839SOL     OW28670   2.674   0.143   0.108  0.1472 -0.1009 -0.1198
 8839SOL    HW128671   2.694   0.120   0.199  0.0658 -1.3455 -0.3908
 8839SOL    HW228672   2.735   0.089   0.057 -0.7154 -0.4279 -0.8245
 8840SOL     OW28673   8.822   3.753   7.468  0.2803  0.4985 -0.2747
 8840SOL    HW128674   8.810   3.840   7.429  0.1668 -0.6778 -3.0918
 8840SOL    HW228675   8.914   3.733   7.453 -0.1601 -0.6880 -1.6634
 8841SOL     OW28676   7.691   5.980   4.118  0.0190 -0.2914 -0.5772
 8841SOL    HW128677   7.599   6.000   4.101  0.3871  1.2141 -1.0030
 8841SOL    HW228678   7.692   5.946   4.207 -0.9546 -0.3127 -0.5667
 8842SOL     OW28679   7.889   0.116   1.305  0.0886  0.6309 -0.5583
 8842SOL    HW128680   7.976   0.117   1.345 -0.8622 -1.6568  1.8459
 8842SOL    HW228681   7.843   0.189   1.347  0.2503  0.5806 -0.2879
 8843SOL     OW28682   9.261   3.197   5.249  0.4819 -0.0893  0.2201
 8843SOL    HW128683   9.324   3.156   5.189 -0.1985  1.6602 -1.8269
 8843SOL    HW228684   9.290   3.287   5.257 -1.6959  0.7727 -0.7832
 8844SOL     OW28685   1.670   1.512   7.189  0.3056  0.0021 -0.6624
 8844SOL    HW128686   1.623   1.469   7.117  0.7581 -2.9854  0.6551
 8844SOL    HW228687   1.763   1.502   7.166  0.6244 -3.5688  1.4368
 8845SOL     OW28688   0.969   0.027   6.382 -0.8136  0.0633  0.5493
 8845SOL    HW128689   1.023   0.105   6.381 -0.4248 -0.1485  1.9703
 8845SOL    HW228690   0.917   0.035   6.462 -1.4774 -0.6649  0.2057
 8846SOL     OW28691   0.419   7.103   8.000 -0.0786  0.1446  0.3811
 8846SOL    HW128692   0.439   7.046   8.074 -1.8840  0.9022  1.5177
 8846SOL    HW228693   0.344   7.155   8.029 -0.8244  0.5033 -1.9700
 8847SOL     OW28694   2.300   6.212   9.451 -0.6218 -0.2595 -0.4155
 8847SOL    HW128695   2.306   6.187   9.358  1.3246  0.6068 -0.5632
 8847SOL    HW228696   2.361   6.284   9.460  0.3478 -1.2722  1.8735
 8848SOL     OW28697   4.001   2.561   6.192  0.0211 -0.1437 -0.3199
 8848SOL    HW128698   4.017   2.503   6.118 -0.0890  0.9321 -1.2022
 8848SOL    HW228699   3.907   2.576   6.192  0.1277  0.5747 -0.5217
 8849SOL     OW28700   6.632   2.262   5.621  0.6143 -0.2691 -0.0643
 8849SOL    HW128701   6.641   2.179   5.667  0.4870  0.2382  0.9133
 8849SOL    HW228702   6.722   2.297   5.618  0.9485 -1.1925 -1.9781
 8850SOL     OW28703   6.889   6.237   8.671  0.1068  0.1297 -0.3355
 8850SOL    HW128704   6.976   6.271   8.649  0.2878 -1.1733 -1.7817
 8850SOL    HW228705   6.849   6.218   8.587 -0.9789 -0.7812  0.3612
 8851SOL     OW28706   3.628   4.313   7.512 -0.0433 -0.6430 -0.5291
 8851SOL    HW128707   3.546   4.318   7.463 -1.0556 -0.7906  1.0487
 8851SOL    HW228708   3.624   4.227   7.555  0.5992 -0.3525  0.1250
 8852SOL     OW28709   0.228   3.742   1.002  0.1976 -0.2934  0.4371
 8852SOL    HW128710   0.280   3.818   0.977  0.9642 -0.2326  2.1278
 8852SOL    HW228711   0.292   3.672   1.013  0.0864 -0.0665  3.1579
 8853SOL     OW28712   7.957   0.186   7.729  0.0921 -0.1139  0.4903
 8853SOL    HW128713   8.037   0.234   7.704  1.5703 -2.3140  0.6608
 8853SOL    HW228714   7.949   0.118   7.662 -0.8363 -0.7790  1.2508
 8854SOL     OW28715   9.510   8.702   3.018 -0.6542  0.4562 -0.8065
 8854SOL    HW128716   9.528   8.762   2.946  0.6580  0.8773 -0.1527
 8854SOL    HW228717   9.525   8.754   3.097  2.2232 -1.0981 -0.1797
 8855SOL     OW28718   1.486   8.033   5.719 -0.3545 -0.2303  0.3313
 8855SOL    HW128719   1.475   7.944   5.686  0.8231 -0.0546 -0.5809
 8855SOL    HW228720   1.527   8.022   5.805  1.8113 -0.5553 -0.6709
 8856SOL     OW28721   8.341   2.614   4.082 -0.1591 -0.2710 -0.0577
 8856SOL    HW128722   8.266   2.668   4.105  0.2646 -0.0751  0.9120
 8856SOL    HW228723   8.346   2.619   3.986  0.2040  1.8841  0.0265
 8857SOL     OW28724   7.714   5.423   5.771 -0.1667  0.3721  0.0915
 8857SOL    HW128725   7.709   5.374   5.689  1.0625  1.1045 -0.4459
 8857SOL    HW228726   7.791   5.387   5.816 -0.8458 -0.0457  0.9555
 8858SOL     OW28727   4.545   1.730   7.533 -0.1911 -0.1738  0.1982
 8858SOL    HW128728   4.513   1.750   7.446 -0.5959 -0.5257  0.2651
 8858SOL    HW228729   4.575   1.814   7.567 -0.8031  0.1174  0.0358
 8859SOL     OW28730   8.127   3.513   4.283  0.0661  0.0470 -0.0091
 8859SOL    HW128731   8.200   3.453   4.268  0.1061  0.2594 -0.7074
 8859SOL    HW228732   8.168   3.590   4.323  0.4399  0.6675 -1.5191
 8860SOL     OW28733   2.293   3.413   7.983  0.2516  0.0972 -0.0603
 8860SOL    HW128734   2.303   3.500   7.945  0.2379  0.7215  1.3389
 8860SOL    HW228735   2.211   3.380   7.945  0.4879  0.4961 -0.9470
 8861SOL     OW28736   5.063   3.785   1.504 -0.4826 -0.3081  1.1382
 8861SOL    HW128737   5.018   3.706   1.476 -3.5384  1.5468  0.3334
 8861SOL    HW228738   5.041   3.794   1.597 -1.2712  0.2290  0.9137
 8862SOL     OW28739   9.402   9.223   8.954 -0.4277  0.0670 -0.2399
 8862SOL    HW128740   9.496   9.235   8.968 -0.4448 -2.4062  3.3795
 8862SOL    HW228741   9.394   9.134   8.922 -1.5796  0.2540 -0.4964
 8863SOL     OW28742   7.827   3.199   0.427  0.0638 -0.0358  0.3219
 8863SOL    HW128743   7.888   3.247   0.482 -1.4106  0.1011  1.9163
 8863SOL    HW228744   7.769   3.155   0.488 -1.5312 -0.0397 -1.1128
 8864SOL     OW28745   7.038   2.556   0.143 -0.5155  0.2717  0.0042
 8864SOL    HW128746   7.071   2.467   0.139 -0.4778  0.2794  0.1385
 8864SOL    HW228747   7.091   2.599   0.210  0.0102  0.6203 -0.6162
 8865SOL     OW28748   1.410   3.048   3.816 -0.8436  0.2291 -0.1922
 8865SOL    HW128749   1.445   3.111   3.753 -1.7227  0.8202 -0.1079
 8865SOL    HW228750   1.479   3.039   3.882 -0.9468  1.6207  0.1429
 8866SOL     OW28751   9.023   8.167   3.630  0.1777 -0.1186 -0.0523
 8866SOL    HW128752   9.111   8.203   3.629 -0.4958  2.0583  3.0669
 8866SOL    HW228753   8.966   8.243   3.624 -1.4033 -1.0429  1.9330
 8867SOL     OW28754   0.317   8.235   1.924 -0.2407  0.3127  0.0186
 8867SOL    HW128755   0.298   8.326   1.946  0.2784  0.3815  0.2034
 8867SOL    HW228756   0.263   8.184   1.985 -0.1025  0.5036  0.3046
 8868SOL     OW28757   6.171   3.332   0.787 -0.1186  0.3094 -0.7205
 8868SOL    HW128758   6.120   3.292   0.857  0.9394 -0.6082 -0.4334
 8868SOL    HW228759   6.112   3.394   0.746 -1.8702 -1.5957 -1.2290
 8869SOL     OW28760   8.890   4.333   8.480 -0.0866 -0.2103  0.0160
 8869SOL    HW128761   8.909   4.356   8.571 -0.4826  0.4685 -0.0688
 8869SOL    HW228762   8.863   4.241   8.484 -0.1500 -0.1743  0.5875
 8870SOL     OW28763   7.297   3.104   3.229 -0.3166  0.4176  0.3699
 8870SOL    HW128764   7.242   3.182   3.219  0.6082  1.0788  0.2146
 8870SOL    HW228765   7.359   3.109   3.157  0.5628  0.2279  1.0849
 8871SOL     OW28766   9.246   6.569   8.468  0.4631 -0.3224  0.1186
 8871SOL    HW128767   9.296   6.649   8.447 -0.1731  0.0586  0.0229
 8871SOL    HW228768   9.155   6.598   8.469  0.2688 -0.9490  0.6006
 8872SOL     OW28769   8.037   1.526   1.069  0.1275 -0.0964  0.3687
 8872SOL    HW128770   7.952   1.565   1.049  0.7118  0.5913 -0.9571
 8872SOL    HW228771   8.054   1.467   0.995 -0.8983 -3.3112  2.4932
 8873SOL     OW28772   6.617   0.117   5.682 -0.0164 -0.3592 -0.1219
 8873SOL    HW128773   6.639   0.043   5.626  1.0230  0.6085 -1.0363
 8873SOL    HW228774   6.597   0.189   5.621  0.2692  0.4660  0.7303
 8874SOL     OW28775   5.136   2.355   7.339 -0.2807  0.7717 -0.3494
 8874SOL    HW128776   5.078   2.302   7.393 -2.1860  0.2371 -2.7463
 8874SOL    HW228777   5.087   2.435   7.321  0.4027  1.0572 -1.0475
 8875SOL     OW28778   8.557   6.544   2.051 -0.2695  0.1506  0.0553
 8875SOL    HW128779   8.624   6.610   2.066  0.1362 -0.2896  0.2359
 8875SOL    HW228780   8.534   6.514   2.139 -2.0953  1.6375  0.1355
 8876SOL     OW28781   4.098   6.964   3.682  0.0686  0.6388 -0.1229
 8876SOL    HW128782   4.169   7.013   3.724  0.8788 -0.2195 -0.4818
 8876SOL    HW228783   4.098   6.879   3.725  1.5726 -0.6431 -2.4555
 8877SOL     OW28784   3.837   9.538   8.773  0.4535  0.7825  0.1368
 8877SOL    HW128785   3.807   9.595   8.844 -0.1409 -0.3571  0.8403
 8877SOL    HW228786   3.883   9.596   8.712  1.8729  1.6320  1.9401
 8878SOL     OW28787   3.106   8.406   3.439  0.2809 -0.6384 -0.2574
 8878SOL    HW128788   3.067   8.480   3.484  1.6504  0.2022 -0.3748
 8878SOL    HW228789   3.169   8.370   3.502  0.9366 -0.5433 -0.8394
 8879SOL     OW28790   4.925   1.103   0.317 -0.0744 -0.4836  0.1884
 8879SOL    HW128791   4.956   1.110   0.407 -0.4141  1.0606  0.2280
 8879SOL    HW228792   4.844   1.053   0.323 -0.5716  0.3731  0.8886
 8880SOL     OW28793   7.985   4.839   2.648  0.2640 -0.0360 -0.0049
 8880SOL    HW128794   7.900   4.857   2.609  0.0205  0.6323  0.8037
 8880SOL    HW228795   8.034   4.794   2.579 -0.4195  0.4031 -0.7967
 8881SOL     OW28796   6.073   5.703   2.783  0.2384 -0.4844  0.3435
 8881SOL    HW128797   6.128   5.643   2.733  2.9481  1.5893  0.5614
 8881SOL    HW228798   6.082   5.675   2.873  0.0496 -0.7844  0.2704
 8882SOL     OW28799   5.225   8.767   0.591  0.2307 -0.1959  0.2605
 8882SOL    HW128800   5.250   8.705   0.522 -0.6545 -0.2319 -0.0422
 8882SOL    HW228801   5.239   8.853   0.552 -3.2501 -0.1260 -1.2279
 8883SOL     OW28802   6.355   2.980   6.220 -0.2501  0.1084  0.2135
 8883SOL    HW128803   6.295   2.916   6.180 -1.0118  0.8239  0.1990
 8883SOL    HW228804   6.420   2.926   6.265  1.2270 -0.7711 -2.7533
 8884SOL     OW28805   8.622   0.150   6.284 -0.0611  0.0069 -0.0012
 8884SOL    HW128806   8.602   0.199   6.204 -1.3614 -1.9687 -0.9521
 8884SOL    HW228807   8.537   0.120   6.316  0.6669 -1.6471  0.5151
 8885SOL     OW28808   8.859   3.213   1.536 -0.1411  0.0845  0.3746
 8885SOL    HW128809   8.798   3.214   1.462 -0.6576  1.7522  0.7641
 8885SOL    HW228810   8.946   3.213   1.496 -0.3964 -0.5923 -0.1984
 8886SOL     OW28811   2.443   1.395   3.984 -0.3679  0.3595  0.1003
 8886SOL    HW128812   2.462   1.388   4.077 -0.3358  0.6775  0.1174
 8886SOL    HW228813   2.397   1.313   3.963  0.8554 -0.3572  0.0967
 8887SOL     OW28814   4.521   3.325   1.621  0.4062 -0.0786  0.2399
 8887SOL    HW128815   4.535   3.367   1.537 -0.9823  1.4394  0.7201
 8887SOL    HW228816   4.609   3.319   1.660  1.0911 -1.0220 -1.3645
 8888SOL     OW28817   2.847   6.912   4.337  0.1037  0.8372 -0.2193
 8888SOL    HW128818   2.768   6.860   4.322 -0.4805  1.5732  0.2409
 8888SOL    HW228819   2.909   6.851   4.377 -0.7544  0.6207  0.7974
 8889SOL     OW28820   8.690   8.002   9.004  0.2201  0.0968  0.0143
 8889SOL    HW128821   8.763   8.017   9.064 -0.0217  1.9317 -0.0958
 8889SOL    HW228822   8.729   8.008   8.917 -0.1107  1.7338 -0.0632
 8890SOL     OW28823   4.425   8.872   3.285  0.2977  0.0300  0.8079
 8890SOL    HW128824   4.429   8.928   3.363  0.0670  0.3784  0.5676
 8890SOL    HW228825   4.349   8.903   3.236  1.6965  1.2910 -0.6826
 8891SOL     OW28826   6.646   1.620   8.668 -0.1875  0.1467 -0.2332
 8891SOL    HW128827   6.645   1.631   8.763  0.6269  0.2968 -0.2304
 8891SOL    HW228828   6.731   1.656   8.641 -0.0885 -0.5835 -0.9291
 8892SOL     OW28829   6.409   7.168   4.738  0.0059 -0.3684 -0.2381
 8892SOL    HW128830   6.334   7.135   4.787  1.0118 -0.6879  1.1799
 8892SOL    HW228831   6.374   7.236   4.681 -1.4829 -1.1308 -0.2699
 8893SOL     OW28832   4.521   2.774   6.299  0.1168 -0.1234  0.5433
 8893SOL    HW128833   4.587   2.801   6.362  1.5420 -2.0052 -0.0647
 8893SOL    HW228834   4.502   2.683   6.321  1.1734 -1.0729 -2.0939
 8894SOL     OW28835   9.264   6.580   5.641  0.5644 -0.1003  0.3881
 8894SOL    HW128836   9.282   6.593   5.548  0.4506  1.0117  0.4996
 8894SOL    HW228837   9.271   6.668   5.679 -0.0506 -0.4287  1.3087
 8895SOL     OW28838   2.963   0.596   9.187 -0.1931 -0.5307  0.0497
 8895SOL    HW128839   2.990   0.643   9.266 -1.9264  1.1898 -0.2708
 8895SOL    HW228840   3.006   0.643   9.116 -0.6931 -0.4017 -0.1729
 8896SOL     OW28841   5.555   0.582   1.148  0.1422 -0.2225  0.5271
 8896SOL    HW128842   5.541   0.490   1.170 -1.2768  0.1512  1.2811
 8896SOL    HW228843   5.521   0.631   1.223  1.0941  0.9226  0.2509
 8897SOL     OW28844   2.490   5.612   2.712 -0.0046 -0.6069  0.1013
 8897SOL    HW128845   2.534   5.681   2.763  0.8982 -1.2597  0.2414
 8897SOL    HW228846   2.553   5.589   2.644 -0.7854 -0.4720 -0.6848
 8898SOL     OW28847   7.480   2.298   6.635 -0.1402  0.5412 -0.0108
 8898SOL    HW128848   7.457   2.209   6.660  1.5828  0.4751  1.5235
 8898SOL    HW228849   7.535   2.330   6.706  2.0786  1.6568 -2.0766
 8899SOL     OW28850   5.758   1.356   7.243  0.3156  0.4518 -0.2189
 8899SOL    HW128851   5.823   1.304   7.196 -0.8812 -0.6700 -0.7040
 8899SOL    HW228852   5.709   1.401   7.174  0.4685  1.1805  0.1335
 8900SOL     OW28853   2.037   8.145   8.074 -0.4864  0.5496 -1.1172
 8900SOL    HW128854   2.130   8.168   8.070 -0.1303 -0.8803 -1.3953
 8900SOL    HW228855   2.034   8.060   8.117 -1.6037  0.2357 -1.7543
 8901SOL     OW28856   0.739   2.666   1.442  0.1533 -0.4746  0.5102
 8901SOL    HW128857   0.674   2.600   1.419 -0.7812 -0.0088  1.7122
 8901SOL    HW228858   0.690   2.749   1.444  0.9931  0.0335  0.4581
 8902SOL     OW28859   9.469   2.116   0.275  0.1521  0.1162  0.3614
 8902SOL    HW128860   9.544   2.092   0.221 -1.2677  2.3635 -2.9547
 8902SOL    HW228861   9.410   2.040   0.269  1.0077 -0.6032  0.7964
 8903SOL     OW28862   8.674   8.346   2.792 -0.0313  0.3453 -0.2899
 8903SOL    HW128863   8.732   8.285   2.837 -0.1609 -0.7933 -1.5701
 8903SOL    HW228864   8.613   8.289   2.744 -0.6840  1.4927 -0.8688
 8904SOL     OW28865   7.996   7.959   8.541  0.3219 -0.7480 -0.2830
 8904SOL    HW128866   8.001   7.864   8.535 -0.1696 -0.7583 -0.6323
 8904SOL    HW228867   7.929   7.983   8.477  1.6781 -0.0036 -1.4842
 8905SOL     OW28868   8.922   8.691   4.638 -0.3415  0.2743  0.1269
 8905SOL    HW128869   8.942   8.634   4.564  1.2356  1.7082 -0.6223
 8905SOL    HW228870   8.929   8.634   4.715 -0.6921 -0.9435 -0.7300
 8906SOL     OW28871   3.876   0.247   5.968 -0.8180 -0.3654 -0.2752
 8906SOL    HW128872   3.846   0.265   6.057 -2.4236  1.4131 -1.1233
 8906SOL    HW228873   3.971   0.263   5.971 -0.7901 -0.6705  1.1612
 8907SOL     OW28874   8.864   6.510   6.914 -0.9103 -0.0319  0.0113
 8907SOL    HW128875   8.932   6.502   6.847 -2.1608  0.0374 -1.2912
 8907SOL    HW228876   8.826   6.422   6.921 -3.0264  0.6615 -1.8341
 8908SOL     OW28877   1.163   1.391   9.118  0.0177  0.2259 -0.0486
 8908SOL    HW128878   1.245   1.432   9.089  0.4738 -0.5369  0.1428
 8908SOL    HW228879   1.180   1.368   9.210 -0.4299  0.0936  0.0001
 8909SOL     OW28880   0.555   6.700   2.277 -0.0403  0.1718  0.2185
 8909SOL    HW128881   0.545   6.657   2.192  2.5721  2.8157 -1.6613
 8909SOL    HW228882   0.471   6.744   2.292 -0.4806 -0.1587 -1.1369
 8910SOL     OW28883   4.406   7.222   0.355  0.3528 -0.3408  0.2710
 8910SOL    HW128884   4.382   7.313   0.371  0.0849 -0.3579 -0.0317
 8910SOL    HW228885   4.455   7.196   0.433  0.2225 -0.0113  0.4628
 8911SOL     OW28886   9.049   1.005   5.431 -0.3770 -0.3435  0.5895
 8911SOL    HW128887   9.132   1.041   5.400 -0.2417 -0.4725  0.8044
 8911SOL    HW228888   8.984   1.073   5.409 -0.0819  0.1745  1.2607
 8912SOL     OW28889   0.198   1.961   8.034 -0.6918  0.2351  0.2699
 8912SOL    HW128890   0.207   2.001   8.121  0.9648 -0.7530  0.6050
 8912SOL    HW228891   0.174   2.033   7.977 -1.9971  0.8860  1.5589
 8913SOL     OW28892   6.923   9.276   1.288  0.1144 -0.6323 -0.1005
 8913SOL    HW128893   6.900   9.258   1.379  2.6550  0.5579  0.8654
 8913SOL    HW228894   6.897   9.367   1.274  3.1908  0.5248  0.8126
 8914SOL     OW28895   3.969   5.444   2.176  0.4660  0.2364 -0.5181
 8914SOL    HW128896   4.007   5.469   2.092  1.6018  0.9201  0.1797
 8914SOL    HW228897   3.877   5.469   2.169  0.7808  1.2666 -1.1814
 8915SOL     OW28898   8.786   1.279   1.076 -0.4482 -0.4566 -0.4814
 8915SOL    HW128899   8.732   1.352   1.045 -1.8187 -1.3590 -0.3148
 8915SOL    HW228900   8.840   1.255   1.001  0.8342  1.4027 -0.2214
 8916SOL     OW28901   4.319   5.124   6.826  0.0525  0.4439 -0.2788
 8916SOL    HW128902   4.257   5.051   6.828 -0.2197  0.6898  1.0891
 8916SOL    HW228903   4.359   5.125   6.913 -2.5126  4.0627  1.0881
 8917SOL     OW28904   5.400   4.428   5.134  0.1873 -0.2476  0.1188
 8917SOL    HW128905   5.453   4.440   5.054  0.7189  0.3469  0.5475
 8917SOL    HW228906   5.404   4.334   5.152  0.8152 -0.2589 -0.0550
 8918SOL     OW28907   2.121   1.442   2.720 -0.1947 -0.3041  0.5252
 8918SOL    HW128908   2.170   1.418   2.641  0.5957  0.9600  0.5940
 8918SOL    HW228909   2.136   1.370   2.780  0.2000 -0.7214 -0.0604
 8919SOL     OW28910   6.922   8.049   8.556  1.1595 -0.7397 -0.2692
 8919SOL    HW128911   7.017   8.056   8.545  1.4471  0.8189  2.3462
 8919SOL    HW228912   6.900   7.963   8.521  3.7117 -1.5931  0.0199
 8920SOL     OW28913   7.922   2.239   7.158  0.2134 -0.5226  0.2478
 8920SOL    HW128914   7.864   2.313   7.141  1.5720  1.0937  2.1906
 8920SOL    HW228915   7.915   2.224   7.252  2.5317 -0.5801  0.4597
 8921SOL     OW28916   0.248   3.618   7.455 -0.8740  0.0591  0.2727
 8921SOL    HW128917   0.267   3.535   7.498 -0.8789 -1.1179 -1.8785
 8921SOL    HW228918   0.303   3.682   7.501  0.0352 -1.3237  1.1789
 8922SOL     OW28919   0.447   3.231   3.664  0.1320  0.0789 -0.2701
 8922SOL    HW128920   0.401   3.151   3.637  0.3615 -0.1151 -0.0864
 8922SOL    HW228921   0.499   3.255   3.588 -0.3367  0.3484 -0.5116
 8923SOL     OW28922   0.741   7.585   6.937  0.0981 -0.3637 -0.8047
 8923SOL    HW128923   0.692   7.599   7.018  0.7463 -0.3527 -0.4034
 8923SOL    HW228924   0.832   7.574   6.966  0.2052 -1.2905 -1.4535
 8924SOL     OW28925   7.774   0.829   1.567 -0.3919 -0.0895 -0.0386
 8924SOL    HW128926   7.751   0.808   1.658  2.0192 -0.6596  0.5081
 8924SOL    HW228927   7.743   0.753   1.517 -0.4870 -0.4340  0.5257
 8925SOL     OW28928   2.823   6.720   1.081  0.1996  0.1946 -0.5429
 8925SOL    HW128929   2.745   6.760   1.042  0.4721 -0.4851 -1.8676
 8925SOL    HW228930   2.791   6.642   1.125  0.1546 -0.2643 -1.3710
 8926SOL     OW28931   5.189   4.963   3.687  0.2067 -0.4094  0.2378
 8926SOL    HW128932   5.120   5.027   3.672  1.3777  0.7563 -0.3721
 8926SOL    HW228933   5.259   4.988   3.627  1.5105 -1.0100  1.4407
 8927SOL     OW28934   3.849   7.123   0.717 -0.0943 -0.0479  0.7110
 8927SOL    HW128935   3.925   7.157   0.766 -0.7278  0.0184  1.6777
 8927SOL    HW228936   3.826   7.195   0.658 -0.7874  0.8400  2.0192
 8928SOL     OW28937   8.025   2.852   1.019 -0.0505  0.3160  0.1896
 8928SOL    HW128938   7.947   2.820   0.974 -0.7599  0.2733  1.4094
 8928SOL    HW228939   8.083   2.777   1.023 -0.1497  0.2117 -0.2786
 8929SOL     OW28940   9.239   6.875   5.689 -0.6085 -0.0131 -0.2534
 8929SOL    HW128941   9.198   6.900   5.772 -0.5454  0.4386 -0.3550
 8929SOL    HW228942   9.302   6.945   5.671 -1.2687  0.3830 -1.1418
 8930SOL     OW28943   9.131   7.231   8.401 -0.0438  0.4920  0.0958
 8930SOL    HW128944   9.132   7.201   8.492  0.3841  0.6280  0.1416
 8930SOL    HW228945   9.171   7.318   8.405 -1.0597  0.9805 -0.0712
 8931SOL     OW28946   0.321   7.920   7.491  0.2221 -0.5573 -0.0705
 8931SOL    HW128947   0.338   7.832   7.526  3.2405 -0.2696 -0.5398
 8931SOL    HW228948   0.368   7.979   7.550  1.0225  0.4129 -1.6207
 8932SOL     OW28949   4.488   1.798   6.775 -0.2865  0.0377  0.2624
 8932SOL    HW128950   4.470   1.737   6.704 -1.5115  1.5891 -0.8391
 8932SOL    HW228951   4.403   1.813   6.816 -0.2741  1.9240 -0.3064
 8933SOL     OW28952   4.385   1.560   4.178  0.7122 -0.3713  0.7100
 8933SOL    HW128953   4.306   1.519   4.144  0.7942 -1.3082  1.5956
 8933SOL    HW228954   4.365   1.578   4.270  2.1064 -2.3210  1.4800
 8934SOL     OW28955   2.090   0.147   8.129 -0.3484  0.2619  0.2666
 8934SOL    HW128956   2.075   0.241   8.125  1.5748  0.6251  0.6583
 8934SOL    HW228957   2.012   0.108   8.088 -2.3217  1.8866  2.2050
 8935SOL     OW28958   6.640   7.381   0.527 -0.3388  0.4665 -0.1683
 8935SOL    HW128959   6.731   7.398   0.503  0.7488 -4.9679 -1.2716
 8935SOL    HW228960   6.589   7.432   0.464  1.9333  2.1052 -0.8273
 8936SOL     OW28961   7.062   9.386   1.716  0.2361  0.4524  0.2925
 8936SOL    HW128962   7.061   9.319   1.785 -1.6039 -0.5203 -0.6038
 8936SOL    HW228963   7.028   9.341   1.639 -1.7279  2.5772 -0.1768
 8937SOL     OW28964   7.669   4.226   8.958 -0.2858  0.4755  0.0784
 8937SOL    HW128965   7.716   4.145   8.978  0.5251  1.1351  0.9734
 8937SOL    HW228966   7.598   4.229   9.022 -1.0072 -0.0682 -0.6809
 8938SOL     OW28967   8.334   2.631   2.325 -0.3018  0.0268  0.0423
 8938SOL    HW128968   8.332   2.697   2.395  0.4239 -0.2366  0.3257
 8938SOL    HW228969   8.384   2.672   2.255  0.3374 -0.2964  0.3036
 8939SOL     OW28970   3.876   4.354   3.777  0.0929 -0.3382 -0.0993
 8939SOL    HW128971   3.793   4.322   3.743 -1.1343 -0.0056  2.3564
 8939SOL    HW228972   3.931   4.276   3.784 -0.4922 -0.7935 -0.4848
 8940SOL     OW28973   8.502   0.944   5.999 -0.6460  0.4366 -0.0646
 8940SOL    HW128974   8.429   0.910   6.051 -2.3566  1.7004 -1.5102
 8940SOL    HW228975   8.545   1.007   6.056 -0.0153 -1.0506  1.1648
 8941SOL     OW28976   1.672   2.921   8.277 -0.2447 -0.2913  0.0106
 8941SOL    HW128977   1.708   2.919   8.189  0.1570 -1.2910  0.1842
 8941SOL    HW228978   1.674   2.830   8.306  0.8910  0.1709  1.5485
 8942SOL     OW28979   4.165   7.219   8.483 -0.2545  0.0341 -0.1421
 8942SOL    HW128980   4.157   7.209   8.388  1.8815  0.4410 -0.4240
 8942SOL    HW228981   4.092   7.169   8.519 -1.8428  0.8908 -2.0110
 8943SOL     OW28982   0.616   2.064   5.946 -0.6542 -0.1949  0.4553
 8943SOL    HW128983   0.690   2.018   5.907  0.2702  1.3557  0.2591
 8943SOL    HW228984   0.618   2.039   6.038 -0.1056 -0.4606  0.3778
 8944SOL     OW28985   5.366   4.841   0.061  0.2685  0.1249 -0.3271
 8944SOL    HW128986   5.348   4.747   0.065 -2.2884  0.5552  0.4970
 8944SOL    HW228987   5.348   4.865  -0.029 -1.5408  0.1722  0.0034
 8945SOL     OW28988   2.425   3.006   8.450  0.4098 -0.1213 -0.4390
 8945SOL    HW128989   2.484   2.989   8.523  1.5481 -0.8993 -1.4944
 8945SOL    HW228990   2.357   2.939   8.458  0.4734 -0.1368 -0.0341
 8946SOL     OW28991   9.518   1.329   9.228  0.7848 -0.0234 -0.3278
 8946SOL    HW128992   9.567   1.409   9.246  1.7478 -0.4227 -1.0605
 8946SOL    HW228993   9.585   1.265   9.202  0.1929 -1.4936  1.5701
 8947SOL     OW28994   1.344   1.186   3.344 -0.3055 -0.0254 -0.0738
 8947SOL    HW128995   1.318   1.237   3.267 -0.3198  0.8637  0.4998
 8947SOL    HW228996   1.339   1.249   3.416  0.3147 -0.6850  0.5511
 8948SOL     OW28997   8.194   5.999   7.731  0.4955 -0.7192 -0.7113
 8948SOL    HW128998   8.288   6.015   7.737  0.2998 -0.1824  1.8795
 8948SOL    HW228999   8.166   5.986   7.821 -2.3803  1.9934 -1.0492
 8949SOL     OW29000   0.787   5.757   7.365 -0.8113  0.1202  0.6803
 8949SOL    HW129001   0.821   5.742   7.277  1.8230 -0.8613  1.7583
 8949SOL    HW229002   0.732   5.680   7.383  1.0732 -1.2375  0.9230
 8950SOL     OW29003   4.966   8.436   5.459 -0.4358  0.5841 -0.6966
 8950SOL    HW129004   4.939   8.355   5.502  0.0497  0.2495 -1.0113
 8950SOL    HW229005   4.908   8.503   5.495 -1.1405  0.0244 -0.7620
 8951SOL     OW29006   1.981   1.312   4.541 -0.0547 -0.2180  0.1444
 8951SOL    HW129007   1.955   1.309   4.449  0.0687 -1.9770  0.1254
 8951SOL    HW229008   2.073   1.339   4.540  0.5155 -2.0451 -0.4261
 8952SOL     OW29009   8.645   1.760   6.464  0.3810  0.1094 -0.1706
 8952SOL    HW129010   8.689   1.844   6.468 -0.4566  0.5036  1.3198
 8952SOL    HW229011   8.577   1.765   6.531 -1.8417 -0.5191 -2.2214
 8953SOL     OW29012   0.543   0.661   9.600  0.3568 -0.2680 -0.6455
 8953SOL    HW129013   0.511   0.648   9.511 -1.8161  0.1038  0.0277
 8953SOL    HW229014   0.549   0.573   9.637  0.6883 -0.3826 -0.9726
 8954SOL     OW29015   4.160   6.195   5.501  0.2736  0.5725 -0.0946
 8954SOL    HW129016   4.113   6.135   5.559  1.2990 -1.1228 -0.9284
 8954SOL    HW229017   4.232   6.229   5.554  0.7521 -0.3718 -0.1134
 8955SOL     OW29018   0.520   9.584   8.380 -0.8676 -0.5084  0.4364
 8955SOL    HW129019   0.522   9.514   8.315  0.0332  0.6535 -0.8250
 8955SOL    HW229020   0.554   9.543   8.460  2.4675 -0.8416 -1.0060
 8956SOL     OW29021   5.395   2.624   3.260  0.1940  0.0625 -0.3616
 8956SOL    HW129022   5.430   2.557   3.201 -0.4329 -0.8719  0.2905
 8956SOL    HW229023   5.343   2.575   3.324 -1.5231  1.2747 -0.7307
 8957SOL     OW29024   2.476   7.669   8.014 -0.2038 -0.3388 -0.1947
 8957SOL    HW129025   2.516   7.716   8.087 -1.4139 -0.5109  0.5979
 8957SOL    HW229026   2.512   7.712   7.936 -1.4789  2.1636  0.4819
 8958SOL     OW29027   4.667   0.380   7.399  0.7717 -0.1999  0.5613
 8958SOL    HW129028   4.661   0.289   7.429  1.5597  0.0321  1.4762
 8958SOL    HW229029   4.717   0.424   7.468 -0.1671  1.0744  0.4491
 8959SOL     OW29030   9.470   9.410   8.292 -0.1121 -0.1043 -0.4621
 8959SOL    HW129031   9.422   9.338   8.334 -1.1627  0.8572  0.0148
 8959SOL    HW229032   9.481   9.475   8.361  2.1609 -0.3921 -0.4757
 8960SOL     OW29033   6.086   0.068   6.775  0.8147  0.5582 -0.6478
 8960SOL    HW129034   6.113  -0.007   6.828 -3.2321  0.6608  1.9491
 8960SOL    HW229035   6.143   0.139   6.805  2.3109 -0.6339 -0.5540
 8961SOL     OW29036   0.275   0.885   0.818  0.0180 -0.5051  0.3570
 8961SOL    HW129037   0.354   0.928   0.787  0.3684 -1.1229  0.3597
 8961SOL    HW229038   0.260   0.922   0.906 -1.2071  1.5332 -0.6406
 8962SOL     OW29039   2.295   4.862   2.826 -0.0835  0.4433  0.4887
 8962SOL    HW129040   2.231   4.931   2.809 -0.3482  0.1598  0.3126
 8962SOL    HW229041   2.246   4.780   2.815  0.7798  0.1590 -1.6971
 8963SOL     OW29042   5.675   3.063   7.331  0.1773  0.2263  0.0328
 8963SOL    HW129043   5.751   3.016   7.365  2.2336  1.2395 -2.7943
 8963SOL    HW229044   5.697   3.083   7.240 -3.4463  0.7530 -0.8940
 8964SOL     OW29045   8.702   4.336   5.812  0.0351 -0.0726  0.0851
 8964SOL    HW129046   8.726   4.244   5.825 -0.6304 -0.1729  0.6968
 8964SOL    HW229047   8.696   4.346   5.718 -0.5735 -0.8487  0.0322
 8965SOL     OW29048   6.755   4.616   1.230  0.0505  0.6114 -0.6083
 8965SOL    HW129049   6.742   4.539   1.285  0.4221  1.1419  0.2572
 8965SOL    HW229050   6.724   4.590   1.144 -0.3040 -0.3353 -0.2104
 8966SOL     OW29051   2.193   1.911   3.025  0.5364  0.4862 -0.0914
 8966SOL    HW129052   2.281   1.906   3.061 -0.2557 -1.2479  1.8323
 8966SOL    HW229053   2.143   1.961   3.091 -0.8342 -2.2932  1.1249
 8967SOL     OW29054   2.406   6.866   4.633  0.4729 -0.1576  0.1657
 8967SOL    HW129055   2.485   6.912   4.662  0.6864  0.4581 -1.3206
 8967SOL    HW229056   2.417   6.777   4.667  1.3692  0.1528  0.7303
 8968SOL     OW29057   7.516   6.143   3.645 -0.7434  0.3828 -0.1867
 8968SOL    HW129058   7.600   6.107   3.616 -1.1243  1.1390 -2.4103
 8968SOL    HW229059   7.534   6.177   3.733  0.4749 -2.1184  0.6428
 8969SOL     OW29060   5.444   5.351   2.719  0.0151 -0.2614  0.3945
 8969SOL    HW129061   5.441   5.443   2.692 -1.2324 -0.4291 -0.1010
 8969SOL    HW229062   5.535   5.337   2.746  0.2508  1.0823  0.3686
 8970SOL     OW29063   7.355   9.098   5.818 -0.7714 -0.0674  0.3991
 8970SOL    HW129064   7.344   9.193   5.817 -0.3488 -0.0046  0.9894
 8970SOL    HW229065   7.332   9.070   5.730 -1.2795  0.5382  0.3295
 8971SOL     OW29066   2.638   1.191   7.399  0.2920 -0.0502 -0.1943
 8971SOL    HW129067   2.722   1.207   7.443  0.0827  0.4916  0.0164
 8971SOL    HW229068   2.574   1.239   7.452  0.0657  0.8283 -1.2228
 8972SOL     OW29069   6.888   2.288   9.625 -0.3552  0.2225  0.2704
 8972SOL    HW129070   6.936   2.329   9.697  1.3667  1.2759 -1.3730
 8972SOL    HW229071   6.804   2.333   9.624  0.2710  1.4475  0.5415
 8973SOL     OW29072   0.769   6.354   7.090 -0.2030 -0.1642  0.3770
 8973SOL    HW129073   0.829   6.283   7.114 -1.0961 -1.2859 -0.5735
 8973SOL    HW229074   0.736   6.329   7.004 -0.9402  1.1700  0.2493
 8974SOL     OW29075   8.636   4.643   8.740  0.5653 -0.1942  0.2879
 8974SOL    HW129076   8.609   4.730   8.770 -0.8546 -0.3576 -0.4196
 8974SOL    HW229077   8.583   4.582   8.791  0.4355 -0.5762 -0.2842
 8975SOL     OW29078   5.567   5.659   9.250 -0.5816 -0.5129  0.2266
 8975SOL    HW129079   5.529   5.572   9.244 -0.7107 -0.3523 -3.4217
 8975SOL    HW229080   5.662   5.645   9.245 -0.6419 -0.4573 -1.7184
 8976SOL     OW29081   5.787   3.570   9.582 -0.0098 -1.0968 -0.4105
 8976SOL    HW129082   5.748   3.528   9.659 -1.3501 -0.9829 -1.0068
 8976SOL    HW229083   5.772   3.507   9.511 -1.2302 -0.0450 -1.1284
 8977SOL     OW29084   0.224   6.652   7.447  0.1276  0.4975 -0.1340
 8977SOL    HW129085   0.218   6.588   7.376 -0.5432 -0.8774  1.0921
 8977SOL    HW229086   0.318   6.666   7.459  0.2411  1.0080 -1.4878
 8978SOL     OW29087   5.774   6.293   9.355  0.2298  0.8015 -0.4384
 8978SOL    HW129088   5.807   6.359   9.416  0.1448  1.4478 -1.0692
 8978SOL    HW229089   5.814   6.211   9.383 -1.4963  0.6514  1.8040
 8979SOL     OW29090   5.695   8.049   7.595  0.0985  0.0818  0.5629
 8979SOL    HW129091   5.696   8.024   7.503  2.4996 -1.0386  0.8018
 8979SOL    HW229092   5.646   8.131   7.597 -1.6195 -0.8129 -1.3961
 8980SOL     OW29093   5.352   6.580   1.915 -0.2435 -0.1376  0.0329
 8980SOL    HW129094   5.421   6.521   1.946  1.1527  2.8293  3.1813
 8980SOL    HW229095   5.287   6.578   1.985 -1.5805 -0.0731 -1.1831
 8981SOL     OW29096   1.782   2.720   8.738 -0.0783  0.2130 -0.9469
 8981SOL    HW129097   1.782   2.792   8.675 -0.8280  1.7135  0.6884
 8981SOL    HW229098   1.700   2.732   8.787  0.5949 -0.7638  0.4597
 8982SOL     OW29099   4.560   7.287   4.574  0.2748 -0.6059 -0.6984
 8982SOL    HW129100   4.515   7.219   4.523 -0.4288  0.5346 -1.6513
 8982SOL    HW229101   4.490   7.342   4.608  0.8633  0.2171 -0.7855
 8983SOL     OW29102   1.438   2.192   6.433  0.1293 -0.1025  0.3251
 8983SOL    HW129103   1.391   2.116   6.468  0.9087 -0.2704  1.0438
 8983SOL    HW229104   1.525   2.159   6.411 -0.4201 -0.0929 -2.1931
 8984SOL     OW29105   6.341   8.109   4.680  0.3041  0.6599 -0.4243
 8984SOL    HW129106   6.318   8.202   4.677  0.1698  0.6033 -2.2510
 8984SOL    HW229107   6.304   8.072   4.599  0.1797 -1.0311  0.3690
 8985SOL     OW29108   1.799   1.290   4.039 -0.3249  0.3569 -0.0314
 8985SOL    HW129109   1.796   1.199   4.011  1.0667  0.3423 -0.2039
 8985SOL    HW229110   1.868   1.330   3.986 -0.4758  1.3524  0.4877
 8986SOL     OW29111   6.317   5.910   1.537 -0.2372 -0.1145  0.0824
 8986SOL    HW129112   6.341   5.919   1.630  1.6407 -1.6968 -0.1620
 8986SOL    HW229113   6.389   5.952   1.490  0.3585 -1.8795 -0.6666
 8987SOL     OW29114   0.590   2.264   1.201  0.3145  0.2619 -0.2650
 8987SOL    HW129115   0.682   2.242   1.187  0.8604  1.2786  1.4160
 8987SOL    HW229116   0.558   2.198   1.264 -0.4525 -0.7606 -1.6743
 8988SOL     OW29117   7.752   0.008   8.626 -0.5421  0.3026  0.0661
 8988SOL    HW129118   7.718   0.057   8.700  0.5724  1.0158  0.1409
 8988SOL    HW229119   7.818   0.066   8.587  1.3128 -1.3631  0.5471
 8989SOL     OW29120   2.063   2.038   6.301  0.8343  0.6461  0.1330
 8989SOL    HW129121   2.076   2.131   6.282  1.1909  0.2670 -1.6486
 8989SOL    HW229122   2.120   1.993   6.239 -0.2400 -0.7939  0.1509
 8990SOL     OW29123   4.011   2.297   2.433  0.7885  0.1446 -0.0629
 8990SOL    HW129124   3.964   2.255   2.362  0.2236  1.2958 -0.3977
 8990SOL    HW229125   4.042   2.380   2.396  0.1725  0.9343  1.1016
 8991SOL     OW29126   9.389   2.672   6.368  0.2533  0.1278  0.3771
 8991SOL    HW129127   9.442   2.686   6.446 -0.7269  0.2225  1.0398
 8991SOL    HW229128   9.304   2.644   6.401 -1.1819  3.0860 -0.4401
 8992SOL     OW29129   8.422   4.264   3.121 -0.2109 -0.3404 -0.5725
 8992SOL    HW129130   8.441   4.346   3.167 -1.1978 -1.0815  1.2293
 8992SOL    HW229131   8.368   4.291   3.047 -0.0700  0.6974 -0.3225
 8993SOL     OW29132   3.076   5.505   8.782  0.0916  0.3386 -0.0662
 8993SOL    HW129133   3.098   5.412   8.783 -0.8858 -0.0164  3.4468
 8993SOL    HW229134   2.983   5.507   8.759  1.0449  1.0355 -4.9881
 8994SOL     OW29135   0.386   5.289   9.622  0.0683 -0.4975 -0.0574
 8994SOL    HW129136   0.455   5.228   9.597  0.8421  0.3216  0.0429
 8994SOL    HW229137   0.414   5.324   9.706  0.2381  0.8568 -0.6489
 8995SOL     OW29138   0.406   7.471   1.605 -0.4871  0.1104  0.1927
 8995SOL    HW129139   0.494   7.447   1.635 -0.5218 -0.0997  0.1278
 8995SOL    HW229140   0.374   7.530   1.672 -0.0369  0.7179 -0.1207
 8996SOL     OW29141   5.747   6.483   4.348  0.1645 -0.2097  0.4995
 8996SOL    HW129142   5.779   6.398   4.378 -2.3140 -0.5517  2.4400
 8996SOL    HW229143   5.700   6.463   4.267  1.3285 -0.3258 -0.1666
 8997SOL     OW29144   6.389   3.711   1.283 -0.1903 -0.7839  0.3658
 8997SOL    HW129145   6.325   3.781   1.299  0.1005 -0.6948  1.2023
 8997SOL    HW229146   6.389   3.661   1.364  0.2852 -1.2053  0.1059
 8998SOL     OW29147   9.501   7.618   3.287  0.4255  0.4419 -0.6446
 8998SOL    HW129148   9.543   7.549   3.236 -0.1043  0.4099 -1.0451
 8998SOL    HW229149   9.573   7.660   3.335  1.0424  0.9719 -2.0055
 8999SOL     OW29150   7.815   3.926   0.369  0.3149 -0.1622  0.3402
 8999SOL    HW129151   7.753   3.983   0.324  1.5241  1.0469  0.1378
 8999SOL    HW229152   7.783   3.837   0.351 -0.6223  0.3817 -0.8370
 9000SOL     OW29153   3.655   4.014   0.814  0.2672  0.5698 -1.0008
 9000SOL    HW129154   3.642   3.937   0.758 -0.1135 -0.8772  0.9808
 9000SOL    HW229155   3.567   4.050   0.826  0.1320 -0.0084 -0.1682
 9001SOL     OW29156   8.594   2.718   3.137  0.0762 -0.6723  0.0154
 9001SOL    HW129157   8.503   2.739   3.113  0.1234  1.9991  1.7344
 9001SOL    HW229158   8.642   2.724   3.054 -1.2556 -2.1546 -0.9334
 9002SOL     OW29159   4.570   7.624   0.266  0.1769 -0.1150  0.1253
 9002SOL    HW129160   4.480   7.593   0.273  0.3379 -1.4058 -2.3171
 9002SOL    HW229161   4.611   7.598   0.349 -2.0854  2.2430  2.1366
 9003SOL     OW29162   1.567   7.228   4.575  0.5475 -0.1178 -0.1834
 9003SOL    HW129163   1.574   7.324   4.566 -0.6826 -0.0732 -1.0229
 9003SOL    HW229164   1.645   7.194   4.531  1.0268  0.4963  0.1740
 9004SOL     OW29165   3.454   0.338   8.468  0.5851  0.0688  0.6361
 9004SOL    HW129166   3.488   0.354   8.557 -0.6602  0.0296  1.1375
 9004SOL    HW229167   3.470   0.420   8.422  1.7498 -0.0940  0.7130
 9005SOL     OW29168   3.752   4.895   7.971  0.0800 -0.2245 -0.2579
 9005SOL    HW129169   3.830   4.871   7.921 -0.4227 -1.1709 -0.6179
 9005SOL    HW229170   3.691   4.929   7.905 -0.7633 -1.9079 -0.4171
 9006SOL     OW29171   7.279   9.022   6.975 -0.7500 -0.5311  0.0921
 9006SOL    HW129172   7.353   9.058   7.024 -0.4925 -1.2422  0.2357
 9006SOL    HW229173   7.238   8.959   7.036 -0.7648 -1.0076 -0.4045
 9007SOL     OW29174   4.261   3.528   7.499 -0.2928  0.0939 -0.3331
 9007SOL    HW129175   4.277   3.436   7.479 -3.0465 -0.5277 -0.0020
 9007SOL    HW229176   4.214   3.527   7.582  0.5074  1.8832  0.1905
 9008SOL     OW29177   4.486   5.492   3.656 -0.1054 -0.3072  0.3915
 9008SOL    HW129178   4.427   5.566   3.670  0.1936 -0.1324  0.7348
 9008SOL    HW229179   4.470   5.434   3.731  0.0056 -0.3598  0.3741
 9009SOL     OW29180   4.971   0.882   1.233 -0.2245 -0.5842 -0.3196
 9009SOL    HW129181   4.916   0.957   1.253 -0.8156 -0.4456 -2.2910
 9009SOL    HW229182   5.047   0.919   1.187  0.7865 -0.9467  0.9758
 9010SOL     OW29183   0.609   7.344   0.713  0.3376 -0.1187 -0.5940
 9010SOL    HW129184   0.540   7.332   0.778  1.3009  0.7932  0.6667
 9010SOL    HW229185   0.564   7.374   0.634 -0.6298  1.5551  0.5369
 9011SOL     OW29186   7.443   8.465   4.044 -0.5949 -0.7027  0.0604
 9011SOL    HW129187   7.505   8.406   4.001  1.0701  2.6723 -2.8058
 9011SOL    HW229188   7.481   8.482   4.130  2.7690  1.2213 -1.5810
 9012SOL     OW29189   6.073   8.679   5.070 -0.1288 -0.6741  0.1895
 9012SOL    HW129190   6.018   8.613   5.112 -2.3273  1.4041  0.7754
 9012SOL    HW229191   6.019   8.758   5.069  1.6985  0.6546 -2.1679
 9013SOL     OW29192   7.813   2.554   3.587 -0.0541 -0.0436 -0.0858
 9013SOL    HW129193   7.825   2.550   3.492 -2.6358  1.0086 -0.5541
 9013SOL    HW229194   7.733   2.606   3.598 -0.0207 -0.4560  2.6574
 9014SOL     OW29195   7.417   1.106   4.500 -0.8030 -0.1576 -0.3358
 9014SOL    HW129196   7.452   1.035   4.447 -1.0982 -0.5552 -0.0148
 9014SOL    HW229197   7.449   1.186   4.459  1.6000 -0.4986  0.7089
 9015SOL     OW29198   6.746   4.703   3.016 -0.2793  0.0099  0.2054
 9015SOL    HW129199   6.753   4.747   3.100 -1.4393 -1.1955  0.9712
 9015SOL    HW229200   6.836   4.682   2.991  0.1430  1.1597  0.6855
 9016SOL     OW29201   3.111   4.200   3.682 -0.2070 -0.1661 -0.1519
 9016SOL    HW129202   3.155   4.284   3.695  2.0393 -0.7832 -2.7567
 9016SOL    HW229203   3.138   4.146   3.757  0.9150  0.4751 -0.0792
 9017SOL     OW29204   8.761   6.152   5.711 -0.2861  0.0785  0.1736
 9017SOL    HW129205   8.807   6.172   5.792 -0.3330  1.5154 -0.1244
 9017SOL    HW229206   8.763   6.056   5.705  2.3187  0.0493  0.3880
 9018SOL     OW29207   1.108   0.278   6.348 -0.4265 -0.0365 -0.0108
 9018SOL    HW129208   1.083   0.314   6.433 -0.7482  1.3938 -0.6852
 9018SOL    HW229209   1.203   0.269   6.353 -0.6172 -1.7002  1.1348
 9019SOL     OW29210   1.158   0.789   0.379  0.2376  0.5046  0.5925
 9019SOL    HW129211   1.195   0.877   0.378  1.6786 -0.0297  2.3262
 9019SOL    HW229212   1.227   0.733   0.344  0.4668 -0.2779  2.1954
 9020SOL     OW29213   5.508   8.890   4.215  0.0216 -0.0426  0.0126
 9020SOL    HW129214   5.571   8.819   4.203  1.0437  0.4024  2.2504
 9020SOL    HW229215   5.427   8.847   4.243  0.1132 -0.4393 -0.3389
 9021SOL     OW29216   0.537   3.829   3.709  0.3707  0.0133 -0.5378
 9021SOL    HW129217   0.495   3.781   3.638  0.0411 -0.3061 -0.1273
 9021SOL    HW229218   0.503   3.918   3.700  0.9241  0.1678 -1.2497
 9022SOL     OW29219   0.073   7.798   3.411 -0.2177 -0.0507 -0.2442
 9022SOL    HW129220   0.114   7.806   3.325  2.6063 -0.9438  0.9119
 9022SOL    HW229221   0.090   7.882   3.454 -0.7628  0.0438 -0.2067
 9023SOL     OW29222   9.226   2.948   4.279  0.0708 -0.5146  0.6500
 9023SOL    HW129223   9.170   2.983   4.209 -0.0163 -0.8232  0.5628
 9023SOL    HW229224   9.213   3.008   4.352  0.2373 -0.1356  0.3707
 9024SOL     OW29225   0.783   3.218   0.147 -0.0312  0.6174  0.0081
 9024SOL    HW129226   0.802   3.162   0.071 -0.1803  1.1961 -0.4622
 9024SOL    HW229227   0.813   3.167   0.222  0.6070  0.2559 -0.4791
 9025SOL     OW29228   5.593   9.257   7.530 -0.1749  0.0786 -0.5322
 9025SOL    HW129229   5.599   9.222   7.619  0.4100  0.9294 -0.2212
 9025SOL    HW229230   5.670   9.221   7.485 -0.3310 -0.1483 -0.6163
 9026SOL     OW29231   3.352   1.861   2.733 -0.1840  0.2464  0.7028
 9026SOL    HW129232   3.397   1.921   2.792 -1.4038  0.7243  1.1906
 9026SOL    HW229233   3.386   1.774   2.757  0.7590  0.6175  0.7575
 9027SOL     OW29234   0.316   6.312   8.094  0.3717 -0.5497 -0.1694
 9027SOL    HW129235   0.288   6.225   8.064 -0.6470 -0.6062  0.8584
 9027SOL    HW229236   0.275   6.322   8.180  2.8651 -0.2490  1.0866
 9028SOL     OW29237   4.492   5.353   7.142  0.0471 -0.8373  0.0213
 9028SOL    HW129238   4.581   5.320   7.156 -0.3548 -0.9944  2.7816
 9028SOL    HW229239   4.438   5.274   7.133 -0.0371 -0.7977  0.1661
 9029SOL     OW29240   2.079   7.046   8.217 -0.3550  0.4001  0.2501
 9029SOL    HW129241   2.150   6.984   8.203 -1.5708 -0.8379 -0.6209
 9029SOL    HW229242   2.089   7.110   8.146 -1.2826 -0.9216 -1.1231
 9030SOL     OW29243   2.981   9.144   0.503 -0.0218  0.2943 -0.4146
 9030SOL    HW129244   2.959   9.060   0.544  1.7308 -0.3246 -0.6670
 9030SOL    HW229245   2.896   9.183   0.483 -0.8839 -1.3523 -0.1807
 9031SOL     OW29246   0.908   0.530   4.984  0.0293  0.4252 -0.0203
 9031SOL    HW129247   0.827   0.572   4.956  0.0963 -0.0452 -0.9619
 9031SOL    HW229248   0.976   0.569   4.929  0.5127  1.0607  0.9904
 9032SOL     OW29249   5.845   6.644   3.768  0.3056  0.0108  0.6107
 9032SOL    HW129250   5.827   6.622   3.677  1.2546  1.7008 -0.0304
 9032SOL    HW229251   5.772   6.700   3.795  1.2766  1.6135  0.0376
 9033SOL     OW29252   8.371   8.381   1.878  0.6838 -0.5062  0.3491
 9033SOL    HW129253   8.355   8.330   1.958  0.3988  0.4451  0.9172
 9033SOL    HW229254   8.466   8.379   1.868  0.8423  0.3860  1.4300
 9034SOL     OW29255   9.011   7.937   8.628  0.1229 -0.0805 -0.0277
 9034SOL    HW129256   8.944   7.877   8.663  0.7804  0.1535  1.7572
 9034SOL    HW229257   9.014   7.917   8.535 -1.8486 -0.6766 -0.0278
 9035SOL     OW29258   2.546   4.765   7.476  0.4369  0.5828  1.0451
 9035SOL    HW129259   2.484   4.749   7.547 -1.5420  0.7028 -0.5633
 9035SOL    HW229260   2.541   4.687   7.422 -1.0376  1.9795 -0.9886
 9036SOL     OW29261   2.384   8.521   7.283 -0.2025  0.0939 -0.0764
 9036SOL    HW129262   2.362   8.445   7.229 -2.1169  0.4764  0.0755
 9036SOL    HW229263   2.440   8.486   7.352  1.1972 -0.6444 -1.5133
 9037SOL     OW29264   6.928   8.908   6.897 -0.5603 -0.3269  0.2316
 9037SOL    HW129265   6.915   8.909   6.802  1.9251  0.7596 -0.1921
 9037SOL    HW229266   6.915   8.998   6.924  1.3930 -0.0419  0.4054
 9038SOL     OW29267   8.818   4.109   0.317  0.0403 -0.2575 -0.2826
 9038SOL    HW129268   8.737   4.058   0.312 -0.7161  0.6102  1.8719
 9038SOL    HW229269   8.788   4.199   0.334  1.4381  0.0969  0.4434
 9039SOL     OW29270   0.767   7.611   3.099  0.2694 -0.1057 -0.5364
 9039SOL    HW129271   0.745   7.520   3.082  1.4061 -0.6283  0.5840
 9039SOL    HW229272   0.833   7.633   3.033  1.6464 -0.8404  0.5233
 9040SOL     OW29273   2.792   2.589   0.384  0.1432  0.0844  0.2084
 9040SOL    HW129274   2.732   2.660   0.366 -0.1354  0.0731  1.0413
 9040SOL    HW229275   2.843   2.579   0.304  0.4240  1.4491  0.2020
 9041SOL     OW29276   1.122   4.323   2.981 -0.4888 -0.6824 -0.0579
 9041SOL    HW129277   1.036   4.320   3.022 -0.1699 -0.4954  0.6279
 9041SOL    HW229278   1.150   4.232   2.977 -0.1371 -0.6272  0.9648
 9042SOL     OW29279   8.005   5.051   7.944 -0.2323  0.4412 -0.1101
 9042SOL    HW129280   7.936   4.984   7.950 -0.1459  0.2765 -0.8577
 9042SOL    HW229281   7.968   5.119   7.888  0.3623  0.1510 -0.8708
 9043SOL     OW29282   8.509   5.795   2.713 -0.0574 -0.1356  0.0698
 9043SOL    HW129283   8.604   5.786   2.718 -0.2117 -1.4187  1.7859
 9043SOL    HW229284   8.476   5.730   2.775 -2.0105  1.5400  0.8999
 9044SOL     OW29285   6.419   0.941   3.578  0.1605  0.2480 -0.0070
 9044SOL    HW129286   6.378   1.007   3.523 -0.4698 -0.4498 -0.4055
 9044SOL    HW229287   6.510   0.968   3.585  0.2992  0.2816 -1.5252
 9045SOL     OW29288   6.525   6.928   7.100 -0.4288 -0.3337  0.4576
 9045SOL    HW129289   6.455   6.880   7.055  0.1399 -0.0016 -0.8269
 9045SOL    HW229290   6.606   6.887   7.069  0.1051  1.7327 -1.1039
 9046SOL     OW29291   4.689   5.849   8.662  0.3539 -0.0411 -0.3389
 9046SOL    HW129292   4.696   5.879   8.571  1.5435  0.4228 -0.1155
 9046SOL    HW229293   4.602   5.811   8.668 -0.3353  1.3074 -1.2726
 9047SOL     OW29294   3.860   9.076   9.398  0.4316  0.6532  0.1156
 9047SOL    HW129295   3.897   9.133   9.331 -2.0480  0.0718 -1.9354
 9047SOL    HW229296   3.767   9.101   9.402 -0.2031 -1.5376  0.9403
 9048SOL     OW29297   0.333   4.803   3.590  0.0464  0.0474  0.1843
 9048SOL    HW129298   0.387   4.881   3.584  1.6172 -1.0142 -0.0355
 9048SOL    HW229299   0.337   4.764   3.503 -2.5626  0.8364 -0.3781
 9049SOL     OW29300   5.373   2.147   1.070 -0.0026 -0.1219  0.3358
 9049SOL    HW129301   5.466   2.128   1.063  0.0546  0.6984 -1.8196
 9049SOL    HW229302   5.335   2.067   1.107  1.1925 -1.5732 -1.4162
 9050SOL     OW29303   2.938   3.568   6.204 -0.1605  0.3271  0.2719
 9050SOL    HW129304   2.964   3.554   6.295  0.2864  0.1185  0.1184
 9050SOL    HW229305   2.885   3.492   6.182 -1.3779  1.0122  0.7490
 9051SOL     OW29306   5.211   7.674   4.213  0.0213 -0.1006 -0.6059
 9051SOL    HW129307   5.262   7.753   4.201  0.8027 -0.4968  0.0215
 9051SOL    HW229308   5.143   7.678   4.146  0.3998  0.8161 -0.9373
 9052SOL     OW29309   1.364   6.982   3.119 -0.4081  0.0623 -0.4618
 9052SOL    HW129310   1.355   7.000   3.212 -0.7265  0.2737 -0.5319
 9052SOL    HW229311   1.339   7.064   3.076 -0.4638 -0.0978 -0.7394
 9053SOL     OW29312   0.799   9.196   4.500  0.4427 -0.6247 -0.6863
 9053SOL    HW129313   0.848   9.276   4.520 -1.0030 -0.1347  1.1930
 9053SOL    HW229314   0.783   9.201   4.406  0.3527  1.3456 -0.6148
 9054SOL     OW29315   3.594   2.121   6.810  0.3856 -0.3869 -0.2340
 9054SOL    HW129316   3.669   2.112   6.751  0.5081  0.1254 -0.1604
 9054SOL    HW229317   3.520   2.139   6.752  0.2839 -1.0866 -0.3214
 9055SOL     OW29318   3.195   4.137   2.958 -0.4458  0.1166  0.1228
 9055SOL    HW129319   3.115   4.107   2.915 -0.4595  2.5106 -1.6918
 9055SOL    HW229320   3.243   4.056   2.977 -3.2575 -1.3955  1.3582
 9056SOL     OW29321   3.467   3.424   1.740  0.4185 -0.4457 -0.1511
 9056SOL    HW129322   3.458   3.512   1.777  1.7093 -0.4208  0.1338
 9056SOL    HW229323   3.378   3.400   1.716  0.2916  2.1267 -2.9860
 9057SOL     OW29324   2.447   8.117   8.293 -0.0216 -0.0393 -0.5066
 9057SOL    HW129325   2.432   8.023   8.283 -1.5245 -0.0540  1.4202
 9057SOL    HW229326   2.386   8.157   8.231  1.5084 -0.2800 -2.2729
 9058SOL     OW29327   7.903   5.687   5.723 -0.0536 -0.0443 -0.5743
 9058SOL    HW129328   7.823   5.641   5.748 -0.2584 -0.0325 -1.2095
 9058SOL    HW229329   7.973   5.622   5.734 -0.1649 -0.0948 -0.1518
 9059SOL     OW29330   6.255   5.565   9.039 -0.2942  0.6831  0.3341
 9059SOL    HW129331   6.163   5.563   9.063 -0.4391  0.7237 -0.2001
 9059SOL    HW229332   6.266   5.491   8.979 -0.5807  2.1700 -1.6528
 9060SOL     OW29333   0.152   5.086   2.798 -0.7491  0.5939  0.0519
 9060SOL    HW129334   0.178   5.161   2.850 -2.4039  1.3129 -0.0973
 9060SOL    HW229335   0.135   5.016   2.862 -0.8433  0.8701  0.3276
 9061SOL     OW29336   2.612   3.886   2.307  0.3977 -0.3661  0.3080
 9061SOL    HW129337   2.632   3.795   2.327 -1.9485 -1.5198 -2.0275
 9061SOL    HW229338   2.656   3.903   2.224  0.9247  0.7304  0.7832
 9062SOL     OW29339   9.392   8.610   6.326 -0.3032  0.0891  0.7386
 9062SOL    HW129340   9.329   8.553   6.369  0.0082 -1.4750 -0.7741
 9062SOL    HW229341   9.475   8.562   6.331  0.1832  0.8655  0.2956
 9063SOL     OW29342   6.638   3.790   2.870  0.3103 -0.4019 -0.0922
 9063SOL    HW129343   6.710   3.808   2.931 -2.0728  0.6477  2.6521
 9063SOL    HW229344   6.563   3.836   2.907 -1.5205 -0.2658 -3.5594
 9064SOL     OW29345   7.121   0.079   6.099 -0.0643  0.0548 -0.0486
 9064SOL    HW129346   7.132   0.088   6.005 -0.1943  0.7429 -0.0002
 9064SOL    HW229347   7.044   0.023   6.109 -3.5850  4.2599 -0.4186
 9065SOL     OW29348   5.991   4.796   0.423 -1.0102 -0.3845  0.0947
 9065SOL    HW129349   5.898   4.819   0.418 -0.6075  1.2388 -0.6789
 9065SOL    HW229350   6.035   4.879   0.444  0.7552  0.2847 -4.8283
 9066SOL     OW29351   4.964   3.160   3.853  0.2066  0.1086 -0.3349
 9066SOL    HW129352   5.040   3.165   3.795  1.0960  0.4259  0.8159
 9066SOL    HW229353   4.932   3.250   3.859 -0.2593 -0.0160 -0.7755
 9067SOL     OW29354   6.949   8.873   9.040 -0.0067 -0.8561  0.2284
 9067SOL    HW129355   6.858   8.882   9.068  0.1374 -1.3036  0.8600
 9067SOL    HW229356   6.991   8.955   9.065 -0.5620 -0.0234 -1.4105
 9068SOL     OW29357   7.477   0.411   0.950  0.5567 -0.5628  0.0214
 9068SOL    HW129358   7.410   0.345   0.968  0.2071 -0.3492 -0.4952
 9068SOL    HW229359   7.544   0.365   0.899  0.6160 -0.6734  0.1973
 9069SOL     OW29360   6.922   7.383   3.616  0.4255  0.0059 -0.0101
 9069SOL    HW129361   6.995   7.433   3.579  0.7392 -0.2460  0.2566
 9069SOL    HW229362   6.860   7.448   3.648 -0.2297  0.2517 -1.6870
 9070SOL     OW29363   1.804   1.997   6.441 -0.1087 -0.1765 -0.3462
 9070SOL    HW129364   1.759   2.069   6.396  0.0340 -0.7120 -1.3953
 9070SOL    HW229365   1.891   1.995   6.401 -0.0990 -0.8996 -0.3076
 9071SOL     OW29366   0.690   3.369   9.345  0.1484  0.0147  0.3207
 9071SOL    HW129367   0.652   3.410   9.423  2.2718  0.0984  1.3671
 9071SOL    HW229368   0.781   3.351   9.369  0.8287 -0.0875 -2.1029
 9072SOL     OW29369   3.174   0.024   4.029 -0.5186  0.6942  0.5827
 9072SOL    HW129370   3.267   0.024   4.005 -0.3237  0.6876  1.3048
 9072SOL    HW229371   3.151  -0.069   4.034  0.2211  0.5663  3.2223
 9073SOL     OW29372   6.870   2.504   1.830  0.3336 -0.4562 -0.3847
 9073SOL    HW129373   6.803   2.508   1.761 -0.4510  0.3786  0.3949
 9073SOL    HW229374   6.912   2.590   1.827 -0.4727  0.0170  0.8920
 9074SOL     OW29375   5.041   4.946   3.238 -0.2054  0.4855 -0.3382
 9074SOL    HW129376   4.992   4.907   3.165  1.0540 -0.4151 -0.7451
 9074SOL    HW229377   4.981   4.941   3.312  0.0411 -2.9804 -0.1744
 9075SOL     OW29378   6.205   7.863   2.301  0.5239 -0.6128  0.0282
 9075SOL    HW129379   6.133   7.892   2.357  1.2933  1.4565  0.0352
 9075SOL    HW229380   6.186   7.901   2.215  1.2019 -0.6968 -0.1680
 9076SOL     OW29381   8.066   1.713   9.208 -0.0981 -0.4136 -0.0532
 9076SOL    HW129382   8.076   1.808   9.217  2.5205 -0.7149  1.1243
 9076SOL    HW229383   8.045   1.684   9.297  0.6074 -1.0759 -0.1014
 9077SOL     OW29384   5.466   4.726   7.302 -0.3589 -0.0109 -0.0618
 9077SOL    HW129385   5.409   4.714   7.378 -1.3250 -2.1765 -1.0655
 9077SOL    HW229386   5.419   4.787   7.246 -0.1987  0.6567  0.5120
 9078SOL     OW29387   5.627   1.101   9.394  0.2219  0.1112  0.1452
 9078SOL    HW129388   5.700   1.051   9.358  1.3842 -0.9822  3.6458
 9078SOL    HW229389   5.562   1.034   9.419 -0.6211  0.8262 -0.0652
 9079SOL     OW29390   0.040   5.864   3.192  0.1618  0.6701  0.4437
 9079SOL    HW129391  -0.013   5.822   3.259 -0.8724 -1.7370 -1.7390
 9079SOL    HW229392   0.012   5.825   3.110  2.9640  1.7872 -1.2102
 9080SOL     OW29393   5.865   5.118   9.353  0.1222 -0.0870  1.0382
 9080SOL    HW129394   5.903   5.063   9.421 -1.5830 -3.7938 -0.7267
 9080SOL    HW229395   5.934   5.179   9.330  1.1866  0.5365  5.0930
 9081SOL     OW29396   2.370   6.680   1.752  0.0104 -0.3468  0.2514
 9081SOL    HW129397   2.293   6.625   1.737 -0.3138 -0.0985  0.9431
 9081SOL    HW229398   2.352   6.761   1.703 -0.3086 -0.1740  0.6460
 9082SOL     OW29399   8.859   0.372   8.224  0.9900 -0.4626 -0.4242
 9082SOL    HW129400   8.865   0.326   8.141 -0.2000 -1.1130 -0.1784
 9082SOL    HW229401   8.905   0.315   8.286 -0.4698 -1.3889 -0.1226
 9083SOL     OW29402   7.408   0.731   5.958  0.0677 -0.1589  0.1694
 9083SOL    HW129403   7.425   0.670   5.886  0.6849 -0.5141  0.6024
 9083SOL    HW229404   7.322   0.705   5.991  1.0617 -1.9986  1.4915
 9084SOL     OW29405   0.091   9.325   8.287 -0.3098 -0.5323  0.6526
 9084SOL    HW129406  -0.000   9.320   8.259  0.5832 -1.1653 -2.5904
 9084SOL    HW229407   0.111   9.237   8.319 -0.2139 -1.1771 -1.0696
 9085SOL     OW29408   3.878   5.272   3.864 -0.5259  0.2924 -0.0517
 9085SOL    HW129409   3.971   5.247   3.865 -0.8792 -1.1542 -0.9584
 9085SOL    HW229410   3.832   5.191   3.844 -1.9905  1.0456  0.1593
 9086SOL     OW29411   1.187   5.615   7.099  0.5894  0.4484  0.5749
 9086SOL    HW129412   1.121   5.621   7.030  1.3712  0.4115 -0.1811
 9086SOL    HW229413   1.140   5.574   7.173  0.0091 -0.4274 -0.2534
 9087SOL     OW29414   5.653   1.179   3.674 -0.1903 -0.6196 -0.0418
 9087SOL    HW129415   5.675   1.232   3.598  0.2384  0.7236  0.9856
 9087SOL    HW229416   5.735   1.170   3.722 -0.6436 -0.6609  0.7352
 9088SOL     OW29417   2.505   2.592   4.627 -0.0147 -0.1656  0.7543
 9088SOL    HW129418   2.534   2.619   4.540  0.3939  1.0643  1.2417
 9088SOL    HW229419   2.464   2.671   4.664 -1.6648 -1.1266  1.0722
 9089SOL     OW29420   1.675   4.913   8.699  0.2304  0.4829  0.3708
 9089SOL    HW129421   1.647   4.831   8.660  2.4527 -0.0504 -0.2601
 9089SOL    HW229422   1.620   4.922   8.777 -0.9167 -0.9440 -0.2207
 9090SOL     OW29423   0.847   7.558   1.533  0.4677  0.2712 -0.1185
 9090SOL    HW129424   0.797   7.571   1.453  0.4541  1.3931  0.0606
 9090SOL    HW229425   0.937   7.541   1.503  0.1260 -1.1438 -0.4181
 9091SOL     OW29426   5.151   7.761   7.744  0.6095  1.0422  0.3653
 9091SOL    HW129427   5.191   7.722   7.822  1.9967  2.0650  0.2189
 9091SOL    HW229428   5.181   7.853   7.747 -0.3159  1.3898 -0.7262
 9092SOL     OW29429   2.091   9.284   1.279  0.3292 -0.5708  0.7449
 9092SOL    HW129430   2.020   9.239   1.325 -0.5169 -2.0791 -1.8009
 9092SOL    HW229431   2.049   9.359   1.237  0.6930 -0.2554  0.9359
 9093SOL     OW29432   0.750   9.077   3.689  0.6823 -0.0165  0.2243
 9093SOL    HW129433   0.668   9.096   3.643  0.6509 -0.5553  0.0535
 9093SOL    HW229434   0.810   9.049   3.619  0.7079 -0.6053  0.4776
 9094SOL     OW29435   9.456   6.630   5.114 -0.4048  0.2052  0.5013
 9094SOL    HW129436   9.463   6.674   5.029 -2.0052 -0.3381  0.0493
 9094SOL    HW229437   9.457   6.537   5.093 -0.6757  0.0655  1.0923
 9095SOL     OW29438   9.501   2.242   4.769  0.3081  0.1822  0.4982
 9095SOL    HW129439   9.427   2.303   4.762  1.8308  2.2367  1.1667
 9095SOL    HW229440   9.494   2.206   4.858 -0.2609 -0.1493  0.3191
 9096SOL     OW29441   4.080   9.416   2.033  0.3370 -0.3588 -0.3714
 9096SOL    HW129442   4.018   9.397   1.963  0.1546  0.5542 -0.4781
 9096SOL    HW229443   4.047   9.497   2.073  1.4523  0.1465 -0.4357
 9097SOL     OW29444   2.239   2.797   7.048 -0.3538 -0.2476  0.3666
 9097SOL    HW129445   2.214   2.837   6.965  0.9124  1.1234  0.6149
 9097SOL    HW229446   2.187   2.716   7.052 -0.2206 -0.5071 -1.8811
 9098SOL     OW29447   4.244   8.421   1.586 -0.2917 -0.0477 -0.2965
 9098SOL    HW129448   4.228   8.433   1.493 -0.1204  2.1021 -0.1041
 9098SOL    HW229449   4.263   8.328   1.596  1.6705  0.0021 -2.7190
 9099SOL     OW29450   6.242   0.973   8.792 -0.0437  0.5524 -0.1191
 9099SOL    HW129451   6.331   0.951   8.822 -1.0053 -4.7696 -0.1334
 9099SOL    HW229452   6.249   0.973   8.697 -0.0769 -0.6127 -0.1452
 9100SOL     OW29453   5.572   4.898   5.578 -0.3691  0.0176  0.4885
 9100SOL    HW129454   5.521   4.976   5.559 -1.7750 -1.0763 -0.4896
 9100SOL    HW229455   5.521   4.826   5.540  1.2132 -1.3016  0.7269
 9101SOL     OW29456   8.116   4.776   8.285 -0.3501  0.1642  0.0430
 9101SOL    HW129457   8.165   4.711   8.334 -0.2958  0.1758  0.0020
 9101SOL    HW229458   8.050   4.726   8.237  0.0677  0.0832 -0.4511
 9102SOL     OW29459   2.224   7.913   4.310  0.3091  0.0660  0.3130
 9102SOL    HW129460   2.271   7.864   4.378  0.0302  1.8637  1.8729
 9102SOL    HW229461   2.148   7.859   4.290  2.1555 -2.1842 -1.1856
 9103SOL     OW29462   6.602   2.397   8.265  0.7094  0.2653  0.9456
 9103SOL    HW129463   6.593   2.479   8.216  4.1130  0.6331  0.6885
 9103SOL    HW229464   6.644   2.423   8.347  1.4941 -1.1727  1.0242
 9104SOL     OW29465   2.768   4.181   7.108 -0.1486 -0.1536 -0.1194
 9104SOL    HW129466   2.784   4.163   7.201  1.5613 -0.9651 -0.5393
 9104SOL    HW229467   2.676   4.161   7.095 -0.3470 -0.2913  1.3361
 9105SOL     OW29468   1.531   2.480   7.691  0.1411 -0.0087  0.1337
 9105SOL    HW129469   1.443   2.444   7.679 -0.8925  2.7597 -1.6180
 9105SOL    HW229470   1.588   2.422   7.641 -1.5398  0.9429 -3.1985
 9106SOL     OW29471   4.419   8.726   8.447  0.0944 -0.3340 -0.5672
 9106SOL    HW129472   4.345   8.685   8.402 -0.7525 -2.4331  2.4618
 9106SOL    HW229473   4.476   8.652   8.470  2.4811  1.0882 -1.5611
 9107SOL     OW29474   1.934   2.169   8.628 -0.2768 -0.1277 -0.2318
 9107SOL    HW129475   1.965   2.158   8.538 -0.5109 -2.1095 -0.0950
 9107SOL    HW229476   1.840   2.186   8.619 -0.4537 -1.1164 -0.3418
 9108SOL     OW29477   8.836   7.742   8.744 -0.0838 -0.0820 -0.2891
 9108SOL    HW129478   8.777   7.706   8.810  0.4008  1.4079  1.0239
 9108SOL    HW229479   8.891   7.668   8.719  1.1718 -0.2678  2.6120
 9109SOL     OW29480   7.774   6.238   6.637 -0.0792 -0.4457  0.1771
 9109SOL    HW129481   7.824   6.284   6.570  0.1819 -1.3764 -0.2688
 9109SOL    HW229482   7.827   6.162   6.660 -0.6072 -0.6540  0.7511
 9110SOL     OW29483   1.265   3.264   7.499  0.0222  0.6154  0.0421
 9110SOL    HW129484   1.246   3.263   7.405  0.1530  0.7328  0.0140
 9110SOL    HW229485   1.277   3.171   7.522 -0.1371  0.5769 -0.0302
 9111SOL     OW29486   9.391   2.594   8.620 -0.1349 -0.3199 -0.2368
 9111SOL    HW129487   9.333   2.637   8.682  0.1135  0.0634 -0.2703
 9111SOL    HW229488   9.470   2.647   8.619  0.6875 -1.4760  0.6821
 9112SOL     OW29489   7.592   4.617   1.562  0.8003  0.5297  0.5461
 9112SOL    HW129490   7.583   4.617   1.658  2.6447 -2.5314  0.8649
 9112SOL    HW229491   7.686   4.601   1.548  0.2295 -1.2668 -1.7076
 9113SOL     OW29492   0.732   0.541   5.664 -0.0278 -0.6023  0.3682
 9113SOL    HW129493   0.729   0.636   5.648  0.8070 -0.6259  0.0243
 9113SOL    HW229494   0.641   0.513   5.654 -0.2315  0.1087  0.1158
 9114SOL     OW29495   8.867   0.493   6.671 -0.1693  0.1160  0.2955
 9114SOL    HW129496   8.778   0.458   6.660  0.1841 -0.3177 -1.5934
 9114SOL    HW229497   8.920   0.416   6.691  0.2057 -0.1364 -1.4440
 9115SOL     OW29498   4.126   6.135   1.182  0.2827 -0.0891  0.0325
 9115SOL    HW129499   4.099   6.099   1.267 -0.3750 -1.0708 -0.5613
 9115SOL    HW229500   4.072   6.213   1.171  0.3077 -0.0082  0.4791
 9116SOL     OW29501   4.631   8.664   7.235  0.1507 -0.5957 -0.5696
 9116SOL    HW129502   4.707   8.616   7.204  0.0058 -1.1196 -0.1419
 9116SOL    HW229503   4.584   8.601   7.290  1.8105  1.0058  3.0295
 9117SOL     OW29504   7.798   5.359   8.156 -0.3786 -0.6686  0.0945
 9117SOL    HW129505   7.880   5.398   8.186  0.4253 -2.1331 -0.0921
 9117SOL    HW229506   7.763   5.422   8.093  0.0258  0.4950  1.0017
 9118SOL     OW29507   3.243   5.031   7.008  0.3179 -0.6708  0.6259
 9118SOL    HW129508   3.239   4.936   7.006  0.6493 -0.6697 -1.3341
 9118SOL    HW229509   3.151   5.059   7.013  0.1953 -1.0772  0.6714
 9119SOL     OW29510   8.543   9.045   1.401  0.1788 -0.0542 -0.2024
 9119SOL    HW129511   8.618   8.987   1.410  1.6026  1.3742 -2.0442
 9119SOL    HW229512   8.535   9.088   1.487  0.5436 -1.2501  0.4449
 9120SOL     OW29513   7.202   8.730   1.668  0.2960  0.3872  0.0770
 9120SOL    HW129514   7.149   8.699   1.595  1.2184  0.4728 -0.6379
 9120SOL    HW229515   7.138   8.750   1.737 -0.9020  2.9798 -1.6416
 9121SOL     OW29516   8.000   2.472   4.072 -0.2184  0.4923  0.1285
 9121SOL    HW129517   7.920   2.521   4.091 -0.5916  0.6375 -1.6404
 9121SOL    HW229518   7.994   2.451   3.979  2.2416  1.3391 -0.2920
 9122SOL     OW29519   1.970   3.687   1.272  0.7403 -0.2546  0.0960
 9122SOL    HW129520   1.945   3.596   1.261 -0.1184  0.0048 -0.1420
 9122SOL    HW229521   2.066   3.686   1.269  0.7150 -0.8935 -2.0914
 9123SOL     OW29522   8.052   4.631   8.799  0.2118  0.2670  0.2297
 9123SOL    HW129523   8.106   4.695   8.754  0.3203 -1.0043 -1.5374
 9123SOL    HW229524   7.968   4.675   8.812  0.2829  0.7808 -0.9544
 9124SOL     OW29525   1.542   4.833   6.629  0.1782 -0.2402  0.2777
 9124SOL    HW129526   1.573   4.784   6.705 -0.6189 -0.9038  0.2015
 9124SOL    HW229527   1.447   4.820   6.630  0.2883 -1.9901 -1.9257
 9125SOL     OW29528   8.679   0.241   1.557  0.0104 -0.1527 -0.3588
 9125SOL    HW129529   8.629   0.292   1.493  0.2041  0.7876  0.2225
 9125SOL    HW229530   8.746   0.301   1.589 -1.2272  0.0329  2.0913
 9126SOL     OW29531   7.602   7.870   4.256  0.2933  0.4131 -0.1738
 9126SOL    HW129532   7.579   7.959   4.230  0.3653  0.6106  0.4108
 9126SOL    HW229533   7.608   7.875   4.352  0.2419 -0.2329 -0.1357
 9127SOL     OW29534   2.463   6.491   0.383 -0.3468 -0.7278 -0.1370
 9127SOL    HW129535   2.485   6.581   0.405  0.2381 -0.7921 -0.4549
 9127SOL    HW229536   2.457   6.446   0.468 -0.1680 -0.5020 -0.0048
 9128SOL     OW29537   3.716   1.254   4.936  0.0696  0.6516 -0.2080
 9128SOL    HW129538   3.693   1.321   5.000  0.3301  0.9609 -0.4333
 9128SOL    HW229539   3.642   1.193   4.938 -0.5058  1.3238 -0.5114
 9129SOL     OW29540   9.058   7.809   2.964  0.2464  0.1594 -0.2957
 9129SOL    HW129541   9.067   7.759   2.883 -1.8541  1.1912 -1.2556
 9129SOL    HW229542   9.093   7.895   2.943 -1.9082  0.9845 -0.7535
 9130SOL     OW29543   2.520   7.987   7.599 -0.1392 -0.6578  0.6264
 9130SOL    HW129544   2.456   8.049   7.636 -1.3040 -3.1384  3.1137
 9130SOL    HW229545   2.603   8.034   7.603 -1.3480  1.7767 -0.3684
 9131SOL     OW29546   5.819   8.563   0.280 -0.3046  0.0917  0.2685
 9131SOL    HW129547   5.761   8.526   0.213 -0.7505  0.3871  0.4867
 9131SOL    HW229548   5.904   8.569   0.238 -0.9827  2.1411 -0.9623
 9132SOL     OW29549   5.013   4.086   5.264 -0.0429 -0.2880  0.1150
 9132SOL    HW129550   5.074   4.153   5.295 -0.5277  0.8064 -1.2207
 9132SOL    HW229551   5.069   4.012   5.240  0.6112  0.0809  0.4707
 9133SOL     OW29552   7.128   4.027   2.899 -0.2093  0.0503  0.3902
 9133SOL    HW129553   7.036   4.043   2.876 -0.3340 -2.5525 -1.3244
 9133SOL    HW229554   7.178   4.072   2.832 -0.3208 -0.4998 -0.0660
 9134SOL     OW29555   2.920   3.242   4.979  0.2498 -0.1418 -0.7209
 9134SOL    HW129556   2.993   3.292   5.016 -1.7808  0.7705  2.5096
 9134SOL    HW229557   2.869   3.308   4.931  0.8835 -0.5395 -1.9809
 9135SOL     OW29558   9.218   2.741   0.480  0.0325  0.1206 -0.0980
 9135SOL    HW129559   9.310   2.715   0.475  0.0117  0.2950 -2.2000
 9135SOL    HW229560   9.220   2.826   0.524  0.9851  0.5820 -1.0020
 9136SOL     OW29561   7.929   2.999   9.567  0.0315  0.4502  0.0763
 9136SOL    HW129562   7.866   3.060   9.606  1.3536  0.9886  1.4491
 9136SOL    HW229563   8.014   3.041   9.579  0.7793 -0.7684 -0.7685
 9137SOL     OW29564   4.608   3.968   8.620  0.4025 -0.4987 -0.4795
 9137SOL    HW129565   4.524   3.924   8.609  0.0082  0.0688  0.1707
 9137SOL    HW229566   4.629   4.002   8.533  0.3434 -1.3073 -0.8170
 9138SOL     OW29567   3.295   0.501   1.397  0.0488 -0.3371 -0.0175
 9138SOL    HW129568   3.376   0.544   1.370  0.4272 -0.7875  0.3709
 9138SOL    HW229569   3.239   0.573   1.428  0.4079 -0.0524 -0.0185
 9139SOL     OW29570   1.674   0.191   4.572  0.0982  0.6597  0.5211
 9139SOL    HW129571   1.590   0.190   4.617 -0.0008 -1.8100  0.4013
 9139SOL    HW229572   1.734   0.146   4.632  0.7965  0.4712 -0.2971
 9140SOL     OW29573   4.616   2.882   8.318  0.4634 -0.3834  0.4043
 9140SOL    HW129574   4.616   2.904   8.411 -1.5198  0.5428  0.2525
 9140SOL    HW229575   4.525   2.897   8.291  1.5962  2.5091 -2.3941
 9141SOL     OW29576   2.390   2.000   4.315 -0.3393  0.1199 -0.3119
 9141SOL    HW129577   2.324   2.069   4.306 -0.0813  0.3135 -0.7732
 9141SOL    HW229578   2.341   1.919   4.306 -0.5853  0.2521 -0.1785
 9142SOL     OW29579   0.128   9.004   0.772 -0.1127  0.2689  0.3887
 9142SOL    HW129580   0.152   9.044   0.689 -1.3914 -0.5745 -0.4210
 9142SOL    HW229581   0.074   8.929   0.748  1.4438 -1.4386  1.8714
 9143SOL     OW29582   6.109   1.910   9.119 -0.0287 -0.4367  0.1349
 9143SOL    HW129583   6.191   1.904   9.167 -1.2177  0.4317  2.4415
 9143SOL    HW229584   6.064   1.828   9.139  0.0705 -0.7250 -0.7731
 9144SOL     OW29585   7.476   4.798   8.522  0.6649  0.5643 -0.5279
 9144SOL    HW129586   7.461   4.730   8.456  0.5254 -0.1300  0.1987
 9144SOL    HW229587   7.552   4.766   8.572  0.9368  1.2145 -0.5273
 9145SOL     OW29588   2.738   2.408   3.360  0.0911  0.5400  0.4608
 9145SOL    HW129589   2.717   2.369   3.274 -1.1569  0.2997  0.8618
 9145SOL    HW229590   2.762   2.333   3.414 -1.7574  0.3302  1.0697
 9146SOL     OW29591   0.432   4.340   4.867 -0.3703 -0.4694 -0.5317
 9146SOL    HW129592   0.517   4.352   4.824 -0.6368  1.0940 -0.6659
 9146SOL    HW229593   0.435   4.250   4.900  1.7570 -0.1193  0.3790
 9147SOL     OW29594   4.103   9.097   3.864  0.0334  1.2669 -0.2241
 9147SOL    HW129595   4.193   9.066   3.876 -0.5948  0.3302  3.2330
 9147SOL    HW229596   4.110   9.166   3.798  2.9493 -0.0298 -1.4564
 9148SOL     OW29597   5.514   2.274   8.225 -0.7756  0.5396  0.1113
 9148SOL    HW129598   5.527   2.280   8.319  1.9899  1.4167 -0.2296
 9148SOL    HW229599   5.563   2.348   8.189 -0.8720 -0.3656 -2.0913
 9149SOL     OW29600   0.650   9.419   1.521  0.3987 -0.2326 -0.7005
 9149SOL    HW129601   0.710   9.383   1.455  0.3771 -1.3602 -0.1250
 9149SOL    HW229602   0.565   9.422   1.477  0.4804 -0.5411 -0.8852
 9150SOL     OW29603   9.219   0.578   2.140  0.1622 -0.1570 -0.2742
 9150SOL    HW129604   9.213   0.519   2.065 -0.4924  1.4350 -1.5148
 9150SOL    HW229605   9.278   0.647   2.112 -1.9147  1.7391 -0.2812
 9151SOL     OW29606   0.802   0.417   9.401  0.1202 -0.3664  0.3010
 9151SOL    HW129607   0.806   0.332   9.445 -1.7180 -0.2320  0.8285
 9151SOL    HW229608   0.775   0.478   9.470 -1.5301  0.0855 -0.7005
 9152SOL     OW29609   6.298   7.841   6.670 -0.5518  0.0778  0.0946
 9152SOL    HW129610   6.310   7.757   6.625 -0.1760  0.6223 -0.8671
 9152SOL    HW229611   6.218   7.877   6.632 -0.2708  0.5101 -0.1012
 9153SOL     OW29612   3.896   0.338   9.128  0.6468 -0.3939 -0.3205
 9153SOL    HW129613   3.859   0.382   9.204  0.4964  1.2952 -1.3075
 9153SOL    HW229614   3.930   0.256   9.161  0.6703  0.3364  1.5777
 9154SOL     OW29615   0.850   2.148   9.349  0.2399 -0.1281 -0.2962
 9154SOL    HW129616   0.922   2.165   9.410  0.4425  0.9242 -0.8188
 9154SOL    HW229617   0.890   2.152   9.262 -0.3738  0.0705 -0.5747
 9155SOL     OW29618   1.516   9.000   0.943  0.4788 -0.1376  0.2492
 9155SOL    HW129619   1.454   8.930   0.964  0.4969  0.0788  1.0333
 9155SOL    HW229620   1.463   9.067   0.900 -0.3614  1.1366  3.0877
 9156SOL     OW29621   8.886   0.531   0.658  0.0808  0.0704  0.2426
 9156SOL    HW129622   8.802   0.536   0.612 -0.3715 -1.2719  0.8454
 9156SOL    HW229623   8.910   0.622   0.675 -0.3470  0.5461 -1.5129
 9157SOL     OW29624   8.318   3.668   8.018 -0.5931 -0.2734 -0.0701
 9157SOL    HW129625   8.335   3.611   8.093  0.7711  1.1265  0.7490
 9157SOL    HW229626   8.225   3.692   8.027 -1.0819 -1.9896 -0.2146
 9158SOL     OW29627   8.786   7.299   4.965 -0.0183  0.0791  0.1110
 9158SOL    HW129628   8.718   7.352   5.007 -0.5382 -0.0118 -0.5803
 9158SOL    HW229629   8.759   7.209   4.981 -0.1115  0.0434 -0.2420
 9159SOL     OW29630   7.224   5.206   8.827 -0.0141 -0.1428 -0.1507
 9159SOL    HW129631   7.312   5.209   8.792  0.2299 -0.3801  0.4292
 9159SOL    HW229632   7.170   5.170   8.757  0.4520 -0.5485 -0.2983
 9160SOL     OW29633   2.219   5.617   2.549  0.8551 -0.2476  0.0415
 9160SOL    HW129634   2.293   5.616   2.610  0.5750  0.4531  0.4100
 9160SOL    HW229635   2.151   5.666   2.595  0.3214 -0.4886 -0.4784
 9161SOL     OW29636   0.297   3.650   9.582 -0.5864  0.0829 -0.1685
 9161SOL    HW129637   0.231   3.713   9.612 -1.3211  0.2935 -2.0737
 9161SOL    HW229638   0.259   3.612   9.502  0.6252 -1.4801 -0.0511
 9162SOL     OW29639   9.092   9.390   5.371 -0.1788  0.0453 -0.4730
 9162SOL    HW129640   9.115   9.362   5.459  0.9146  0.7411 -0.5310
 9162SOL    HW229641   9.134   9.475   5.360 -2.9188  1.5208 -0.5099
 9163SOL     OW29642   4.350   4.054   3.973 -0.1064 -0.2553  0.4919
 9163SOL    HW129643   4.350   4.148   3.993  1.8038 -0.0390 -0.3021
 9163SOL    HW229644   4.359   4.050   3.878 -1.8364 -1.2829  0.3310
 9164SOL     OW29645   9.633   2.622   5.691  0.3009  0.5541  0.1728
 9164SOL    HW129646   9.559   2.602   5.747  0.4603  1.3327  0.6867
 9164SOL    HW229647   9.597   2.625   5.602  0.2110 -1.5819  0.0839
 9165SOL     OW29648   1.382   3.343   7.758 -0.2013  0.1151 -0.0529
 9165SOL    HW129649   1.354   3.305   7.675 -1.3133  1.2488 -0.2212
 9165SOL    HW229650   1.389   3.268   7.817 -2.4172 -0.3947 -0.3467
 9166SOL     OW29651   6.288   0.433   2.644 -0.1606 -0.0761 -0.5124
 9166SOL    HW129652   6.248   0.351   2.674 -0.3309  0.8023  1.9123
 9166SOL    HW229653   6.370   0.438   2.692 -1.0844  2.0757  0.9835
 9167SOL     OW29654   2.556   3.983   2.615  0.2027  0.0445 -0.0036
 9167SOL    HW129655   2.646   3.972   2.584 -0.2116 -0.3379 -1.0808
 9167SOL    HW229656   2.519   4.050   2.558  0.4045  1.7291  1.7334
 9168SOL     OW29657   0.449   0.257   5.536  0.1615 -0.5509 -0.6284
 9168SOL    HW129658   0.404   0.272   5.453  0.6928 -0.7699 -0.9594
 9168SOL    HW229659   0.380   0.231   5.597 -0.4352  0.8202 -0.6692
 9169SOL     OW29660   8.880   5.699   9.254 -0.2994  0.8619 -0.2425
 9169SOL    HW129661   8.821   5.641   9.302 -2.2754  1.9556 -1.2511
 9169SOL    HW229662   8.960   5.648   9.244 -1.3386 -1.0109  0.4501
 9170SOL     OW29663   4.927   7.171   9.281 -0.0348  0.1779 -0.3515
 9170SOL    HW129664   4.890   7.134   9.201 -1.4688  0.1223  0.3175
 9170SOL    HW229665   4.981   7.244   9.251 -0.5744  0.1787 -1.3683
 9171SOL     OW29666   9.566   3.237   3.632  0.4995 -0.5423  0.2630
 9171SOL    HW129667   9.657   3.264   3.618  0.8644 -0.2851  2.6878
 9171SOL    HW229668   9.571   3.142   3.641  0.8089 -0.3867  1.9807
 9172SOL     OW29669   0.109   1.143   1.556  0.2758 -0.6143 -0.8631
 9172SOL    HW129670   0.146   1.141   1.644  1.2542  0.8473 -1.1949
 9172SOL    HW229671   0.158   1.077   1.508 -3.6393 -5.2682  0.7700
 9173SOL     OW29672   1.552   3.718   8.037  0.2234 -0.1274 -0.8116
 9173SOL    HW129673   1.491   3.652   8.003 -0.8866  0.7811 -0.6672
 9173SOL    HW229674   1.542   3.714   8.132 -0.5325  0.8399 -0.8340
 9174SOL     OW29675   6.478   3.511   7.094  0.2409  0.2293  0.2634
 9174SOL    HW129676   6.398   3.464   7.070  0.8163 -0.6108 -0.0312
 9174SOL    HW229677   6.514   3.542   7.011 -0.0091  1.0010  0.4339
 9175SOL     OW29678   9.522   2.978   4.195  0.7308 -0.1723  0.3369
 9175SOL    HW129679   9.428   2.989   4.206  0.6915 -0.0419 -0.1050
 9175SOL    HW229680   9.537   2.884   4.206  0.5911 -0.1563  0.6837
 9176SOL     OW29681   7.517   6.528   4.860 -0.2524  0.0555 -0.2996
 9176SOL    HW129682   7.611   6.519   4.842 -0.1151  2.5622 -1.3190
 9176SOL    HW229683   7.502   6.473   4.937  1.5425 -2.1965 -1.4334
 9177SOL     OW29684   5.649   1.552   8.425 -0.6426 -0.2142 -0.1978
 9177SOL    HW129685   5.687   1.640   8.429  1.3556 -1.0366  0.4237
 9177SOL    HW229686   5.717   1.499   8.382 -1.1196 -1.7648  0.8873
 9178SOL     OW29687   6.247   7.916   1.628  0.2447 -0.4787 -0.0432
 9178SOL    HW129688   6.226   7.959   1.544  0.9285 -0.1456 -0.0580
 9178SOL    HW229689   6.317   7.970   1.664  0.0272 -0.6908  0.6956
 9179SOL     OW29690   9.497   8.982   2.987  0.1472  0.5259 -0.3110
 9179SOL    HW129691   9.519   8.999   3.079  1.3947 -0.1788 -0.4493
 9179SOL    HW229692   9.581   8.958   2.947 -0.8288 -2.0318 -0.9725
 9180SOL     OW29693   7.331   3.797   7.144 -0.5354  0.4879 -0.4349
 9180SOL    HW129694   7.381   3.767   7.068  1.4688  0.6184  0.7705
 9180SOL    HW229695   7.250   3.831   7.106 -0.2610 -0.7920 -2.3726
 9181SOL     OW29696   8.543   5.338   8.734 -0.3774 -0.1418 -0.1116
 9181SOL    HW129697   8.464   5.324   8.681 -1.0572 -1.1169  1.1083
 9181SOL    HW229698   8.534   5.276   8.807 -0.6618  2.6572  2.4420
 9182SOL     OW29699   1.552   4.824   9.533 -0.5106 -0.6932  0.6951
 9182SOL    HW129700   1.577   4.886   9.602 -1.0973  1.8483 -1.2390
 9182SOL    HW229701   1.633   4.778   9.512  0.6168  1.3165  0.4206
 9183SOL     OW29702   2.308   5.250   1.006  0.3586  0.2927  0.0279
 9183SOL    HW129703   2.403   5.257   1.011  0.2476  1.6906  1.2365
 9183SOL    HW229704   2.291   5.157   0.992  1.9466  0.3804 -3.5840
 9184SOL     OW29705   8.364   7.833   3.082  0.0391  0.1382  0.0692
 9184SOL    HW129706   8.291   7.894   3.091 -1.2232 -1.2215 -0.4513
 9184SOL    HW229707   8.395   7.845   2.992  0.9150  1.1610  0.4824
 9185SOL     OW29708   1.619   3.758   8.995 -0.0221 -0.0949  0.9091
 9185SOL    HW129709   1.665   3.816   9.055 -1.7243  0.3170  1.8933
 9185SOL    HW229710   1.610   3.675   9.043 -0.3278 -0.1513  0.7610
 9186SOL     OW29711   9.441   5.017   9.471  0.7993 -0.0236  0.0464
 9186SOL    HW129712   9.355   5.026   9.430  1.2436  1.2698 -0.6877
 9186SOL    HW229713   9.429   4.952   9.540 -0.8369  0.3840  0.1743
 9187SOL     OW29714   2.732   0.359   8.639 -0.2298 -0.1836 -0.0967
 9187SOL    HW129715   2.708   0.333   8.728 -0.4046  1.5595  0.4035
 9187SOL    HW229716   2.684   0.299   8.582  0.2224 -1.6160  0.9601
 9188SOL     OW29717   5.953   3.044   4.511  0.5311 -0.1076  0.4557
 9188SOL    HW129718   5.858   3.056   4.521  0.6897  0.3041  1.6847
 9188SOL    HW229719   5.978   3.105   4.442  0.0565  0.5611  0.8641
 9189SOL     OW29720   1.655   5.769   3.314  0.0626  0.5177 -0.9037
 9189SOL    HW129721   1.613   5.688   3.285 -0.4925  0.0609  1.0624
 9189SOL    HW229722   1.633   5.832   3.245 -2.3836 -0.1592 -0.8358
 9190SOL     OW29723   1.282   1.150   9.219  0.9856  0.0877  0.7816
 9190SOL    HW129724   1.264   1.202   9.141 -2.2095 -0.7841  0.7930
 9190SOL    HW229725   1.360   1.099   9.197 -0.3787 -0.8874 -2.2622
 9191SOL     OW29726   4.927   1.693   6.578  0.0935 -0.6913 -0.8341
 9191SOL    HW129727   5.003   1.740   6.612 -0.1590  0.1946 -1.4554
 9191SOL    HW229728   4.907   1.628   6.646 -0.0672  0.6551  0.4653
 9192SOL     OW29729   2.759   4.521   9.175  0.0159  0.6831  0.2739
 9192SOL    HW129730   2.768   4.609   9.210  0.8060 -0.0864  2.1361
 9192SOL    HW229731   2.679   4.487   9.213 -1.5636  1.3039 -2.2324
 9193SOL     OW29732   1.877   1.881   6.056 -0.1477 -0.2602 -0.2865
 9193SOL    HW129733   1.867   1.975   6.046 -1.0896 -0.3732 -0.5126
 9193SOL    HW229734   1.912   1.851   5.972 -0.1512 -0.1554 -0.3255
 9194SOL     OW29735   7.031   9.107   7.938 -0.0256  0.7361 -0.3834
 9194SOL    HW129736   6.962   9.142   7.995  0.3946  3.1874 -1.2400
 9194SOL    HW229737   7.111   9.113   7.990 -0.3108 -1.6292  0.4286
 9195SOL     OW29738   0.414   4.427   8.686 -0.1388 -0.1948  0.1313
 9195SOL    HW129739   0.477   4.493   8.655 -0.0091 -0.9172 -1.2139
 9195SOL    HW229740   0.362   4.474   8.751  0.5380  0.9853 -0.1307
 9196SOL     OW29741   4.902   5.715   3.353  0.2558  0.3707 -0.2168
 9196SOL    HW129742   4.909   5.623   3.377 -1.2508  0.0796 -0.7682
 9196SOL    HW229743   4.814   5.723   3.316  0.1940  2.1260  0.2376
 9197SOL     OW29744   5.000   7.054   5.384 -0.2347 -0.2849 -0.0798
 9197SOL    HW129745   5.062   7.104   5.438 -0.2496 -0.2937 -0.0548
 9197SOL    HW229746   4.934   7.119   5.358 -0.0353 -0.1988 -0.3822
 9198SOL     OW29747   5.478   0.491   3.786  0.2441  0.2232  0.2283
 9198SOL    HW129748   5.476   0.552   3.861 -0.5123 -0.0472  0.4315
 9198SOL    HW229749   5.552   0.521   3.734  0.7562  0.4501  1.0609
 9199SOL     OW29750   9.628   0.299   6.909  0.0380 -0.5462  0.4050
 9199SOL    HW129751   9.618   0.270   6.818 -0.0310 -2.2810  0.9349
 9199SOL    HW229752   9.638   0.394   6.902 -2.3252 -0.3185 -1.2581
 9200SOL     OW29753   3.752   0.685   3.022 -0.0859  0.1165 -0.4446
 9200SOL    HW129754   3.724   0.694   2.931  0.5622  1.1759 -0.5561
 9200SOL    HW229755   3.674   0.706   3.073 -0.3732 -0.1971 -0.7472
 9201SOL     OW29756   7.250   0.775   2.605 -0.2710 -0.2482  0.2857
 9201SOL    HW129757   7.346   0.779   2.602 -0.3129  3.6437 -1.7021
 9201SOL    HW229758   7.228   0.698   2.552  1.7661  0.5022 -1.8203
 9202SOL     OW29759   5.455   1.711   5.276 -0.1950  0.8925 -0.3443
 9202SOL    HW129760   5.474   1.696   5.183 -0.5584 -1.9052 -0.0437
 9202SOL    HW229761   5.523   1.772   5.304  0.2022  1.4429 -2.3204
 9203SOL     OW29762   8.369   3.439   8.863 -0.4073  0.4384 -0.4448
 9203SOL    HW129763   8.384   3.381   8.937  0.0502  1.1570  0.0293
 9203SOL    HW229764   8.435   3.414   8.798 -0.4066  0.2304 -0.3624
 9204SOL     OW29765   3.440   6.404   2.740 -0.3917 -0.4066 -0.1619
 9204SOL    HW129766   3.361   6.457   2.730 -0.2144 -0.3398 -1.2707
 9204SOL    HW229767   3.447   6.355   2.659  0.7734 -0.3171 -0.1297
 9205SOL     OW29768   5.829   4.069   8.553 -0.0407  0.6382  0.4908
 9205SOL    HW129769   5.866   4.066   8.642  0.1793  2.0522  0.4594
 9205SOL    HW229770   5.883   4.133   8.507  0.0913 -0.3632 -0.7945
 9206SOL     OW29771   6.436   6.017   1.761 -0.1447  0.0563 -0.0955
 9206SOL    HW129772   6.436   5.995   1.855 -0.8019 -1.1851 -0.3682
 9206SOL    HW229773   6.373   6.089   1.754  0.6488  0.8440  0.5477
 9207SOL     OW29774   6.231   7.091   4.942  0.5877  0.2154 -0.2549
 9207SOL    HW129775   6.324   7.074   4.956  0.9218  1.0989 -1.3307
 9207SOL    HW229776   6.203   7.137   5.021  1.3911  1.1555 -0.5068
 9208SOL     OW29777   3.030   4.751   3.474  0.2114  0.4168  0.4704
 9208SOL    HW129778   3.058   4.659   3.476 -1.5128 -0.1341  0.6660
 9208SOL    HW229779   3.097   4.795   3.421 -0.5260 -1.5426 -2.3250
 9209SOL     OW29780   8.106   4.545   6.694  0.1218 -0.1584 -0.1228
 9209SOL    HW129781   8.019   4.512   6.671  0.2006 -2.1784  2.0934
 9209SOL    HW229782   8.125   4.505   6.779  3.4565 -0.2289 -0.7810
 9210SOL     OW29783   0.939   7.203   4.545  0.4710  0.3254  0.2502
 9210SOL    HW129784   0.955   7.182   4.453 -0.2193 -3.8531  0.8483
 9210SOL    HW229785   1.024   7.193   4.587  0.4127  0.2078  0.3418
 9211SOL     OW29786   4.702   2.898   6.509  0.2049 -0.1180  0.3303
 9211SOL    HW129787   4.631   2.961   6.495 -1.1999 -1.9566 -1.3371
 9211SOL    HW229788   4.782   2.950   6.499 -0.7901  2.1481  2.8508
 9212SOL     OW29789   2.192   3.306   2.172  0.2012 -0.2898  0.0613
 9212SOL    HW129790   2.201   3.357   2.091  0.0224 -0.7011 -0.2220
 9212SOL    HW229791   2.211   3.368   2.242  0.5930  0.0108 -0.3100
 9213SOL     OW29792   6.992   4.762   7.640 -0.4681 -0.0058 -0.8349
 9213SOL    HW129793   6.928   4.752   7.570  0.6912  0.8986 -2.0794
 9213SOL    HW229794   7.014   4.673   7.666 -1.5409 -0.3359 -1.0253
 9214SOL     OW29795   5.157   3.409   9.121  0.3110 -0.2362  0.4362
 9214SOL    HW129796   5.098   3.418   9.196  1.8326 -0.0171  1.6789
 9214SOL    HW229797   5.142   3.487   9.068 -2.4568 -1.4785 -0.8162
 9215SOL     OW29798   5.368   4.839   2.231  0.0400  0.4762 -0.5506
 9215SOL    HW129799   5.416   4.921   2.217 -0.4726  1.0081  0.6662
 9215SOL    HW229800   5.407   4.801   2.309 -0.7020  0.2984 -0.2565
 9216SOL     OW29801   2.757   1.112   7.883  0.4669 -0.0978  0.5072
 9216SOL    HW129802   2.796   1.199   7.875 -0.1373  0.0511 -1.2876
 9216SOL    HW229803   2.804   1.059   7.817 -2.2075  0.0824 -1.7112
 9217SOL     OW29804   9.105   7.734   3.241  0.2769 -0.2127 -0.2284
 9217SOL    HW129805   9.115   7.741   3.146 -0.8279  0.4183 -0.3133
 9217SOL    HW229806   9.083   7.823   3.269 -0.9665 -0.7005  0.4113
 9218SOL     OW29807   2.025   7.138   4.567  0.2923 -0.2979 -0.1872
 9218SOL    HW129808   2.048   7.146   4.475 -1.3685 -2.7703 -0.9344
 9218SOL    HW229809   2.102   7.097   4.607  1.6709  2.2401 -0.0239
 9219SOL     OW29810   0.454   6.357   0.000  0.3592  0.5665 -0.0666
 9219SOL    HW129811   0.371   6.399  -0.023  0.3530  1.7301  1.8554
 9219SOL    HW229812   0.506   6.427   0.039  1.0583 -0.7895  1.5800
 9220SOL     OW29813   3.981   7.689   5.553  0.4631  0.1083  0.2830
 9220SOL    HW129814   3.922   7.678   5.478 -0.7122 -2.6408  1.5003
 9220SOL    HW229815   4.053   7.742   5.519 -1.4237  1.4043 -1.9733
 9221SOL     OW29816   9.554   8.077   5.693 -0.3760 -0.2679 -0.2930
 9221SOL    HW129817   9.575   8.029   5.612 -1.3602 -1.2563  0.0149
 9221SOL    HW229818   9.464   8.053   5.712 -0.3864  0.5283  0.7256
 9222SOL     OW29819   8.023   5.292   1.089 -0.0509 -0.2502 -0.2777
 9222SOL    HW129820   7.979   5.217   1.130  2.6530 -1.2955  1.0233
 9222SOL    HW229821   8.072   5.254   1.016  1.8428  0.0461  0.7644
 9223SOL     OW29822   1.942   8.378   8.959  0.4869  0.0572  0.6346
 9223SOL    HW129823   1.923   8.472   8.949  1.6404  0.3067  0.6121
 9223SOL    HW229824   2.037   8.372   8.947  0.2674 -1.2916 -0.5662
 9224SOL     OW29825   7.755   8.363   6.491 -0.5590 -0.4914  0.2211
 9224SOL    HW129826   7.759   8.447   6.446  1.2264 -0.9396 -0.5710
 9224SOL    HW229827   7.710   8.305   6.430 -1.1852 -0.2731  0.4763
 9225SOL     OW29828   6.322   0.379   4.335 -0.1375  0.2798  0.0399
 9225SOL    HW129829   6.389   0.419   4.391  1.1772 -1.9731  0.1737
 9225SOL    HW229830   6.343   0.409   4.247  0.5745  0.2348  0.1849
 9226SOL     OW29831   8.532   0.628   2.452 -0.6736  0.1498  0.1171
 9226SOL    HW129832   8.574   0.605   2.534  0.0431 -1.2671 -0.6146
 9226SOL    HW229833   8.604   0.651   2.393 -1.0886 -0.0013 -0.4648
 9227SOL     OW29834   9.129   7.840   4.980  0.0160 -0.1686  0.8653
 9227SOL    HW129835   9.182   7.804   4.908 -2.4635 -3.3708  0.3951
 9227SOL    HW229836   9.085   7.915   4.941  1.3183  0.2644  0.1520
 9228SOL     OW29837   5.485   8.416   0.664 -0.1422 -0.2028  0.0929
 9228SOL    HW129838   5.479   8.462   0.748 -4.0369  1.3032 -0.7535
 9228SOL    HW229839   5.441   8.333   0.678  1.5271 -1.1221  0.1143
 9229SOL     OW29840   3.779   4.919   2.237 -0.3825 -0.3710  0.1539
 9229SOL    HW129841   3.808   4.833   2.205 -1.4322 -1.6279  2.3771
 9229SOL    HW229842   3.856   4.975   2.228  0.4280 -1.6019 -1.0520
 9230SOL     OW29843   2.736   3.374   0.987 -0.0872 -0.2859 -0.2069
 9230SOL    HW129844   2.791   3.360   1.064  0.0035 -0.9022 -0.3737
 9230SOL    HW229845   2.790   3.429   0.930 -1.0595  2.1592  1.1130
 9231SOL     OW29846   6.643   7.900   1.556  0.3757  0.0810  0.1139
 9231SOL    HW129847   6.558   7.930   1.590 -0.4358 -1.7248 -0.1880
 9231SOL    HW229848   6.655   7.948   1.474 -0.6151 -0.0275 -0.1047
 9232SOL     OW29849   5.849   7.972   9.192  0.0051  0.0799  0.3960
 9232SOL    HW129850   5.788   7.909   9.153  0.2203  0.6320 -0.9074
 9232SOL    HW229851   5.846   8.047   9.133  0.9285  0.6569  1.0571
 9233SOL     OW29852   7.236   2.595   8.408  0.1177  0.8480  0.3978
 9233SOL    HW129853   7.149   2.555   8.408 -0.1767  1.4362 -0.9569
 9233SOL    HW229854   7.228   2.669   8.468 -0.3421  0.9296  0.2420
 9234SOL     OW29855   0.072   4.930   4.681  0.3885 -0.3423 -0.6221
 9234SOL    HW129856   0.016   4.998   4.718 -0.0725 -1.3277  0.5579
 9234SOL    HW229857   0.057   4.935   4.587 -1.5077 -0.4001 -0.3618
 9235SOL     OW29858   0.402   8.411   1.177  0.7018  0.0764 -0.0775
 9235SOL    HW129859   0.396   8.486   1.237  0.7475  0.1033 -0.1065
 9235SOL    HW229860   0.311   8.386   1.161  0.6745  0.4051 -0.4226
 9236SOL     OW29861   6.570   9.053   9.580  0.4170  0.2888 -0.4854
 9236SOL    HW129862   6.506   9.045   9.510  0.8988  0.8760 -1.0034
 9236SOL    HW229863   6.593   9.146   9.582  1.1702  0.1059 -0.2401
 9237SOL     OW29864   4.203   1.754   5.702 -0.0968 -0.5754  0.9590
 9237SOL    HW129865   4.150   1.756   5.783  1.0659  2.4698  1.7650
 9237SOL    HW229866   4.139   1.736   5.633 -1.7424  0.2344  2.1847
 9238SOL     OW29867   0.157   5.106   2.517 -0.4013 -0.5250  0.4381
 9238SOL    HW129868   0.164   5.144   2.605  0.4743  0.8860 -0.1862
 9238SOL    HW229869   0.232   5.143   2.470 -0.9398 -1.1344 -0.9438
 9239SOL     OW29870   0.809   9.267   4.227  0.4249  0.2340 -0.3944
 9239SOL    HW129871   0.857   9.193   4.189  0.5601 -0.4149  0.9670
 9239SOL    HW229872   0.727   9.270   4.178 -0.4084 -2.0413  0.7111
 9240SOL     OW29873   0.967   4.983   4.284  0.2205 -0.1406  0.4117
 9240SOL    HW129874   0.962   5.035   4.364 -0.8399  1.0686 -0.4114
 9240SOL    HW229875   1.052   5.006   4.246  1.7817 -2.3938  2.2256
 9241SOL     OW29876   7.370   7.922   5.843  0.3191 -0.1154 -0.0650
 9241SOL    HW129877   7.276   7.918   5.858  0.4555 -1.0603  0.6381
 9241SOL    HW229878   7.379   7.956   5.754 -0.6383  1.2879  0.3427
 9242SOL     OW29879   6.808   8.031   1.769 -0.5537  0.3433  0.4279
 9242SOL    HW129880   6.757   7.986   1.701  0.0333 -0.5916  0.5915
 9242SOL    HW229881   6.788   7.983   1.849 -0.6680  0.9907  0.7946
 9243SOL     OW29882   7.007   3.061   1.044 -0.5003 -0.1021  0.3536
 9243SOL    HW129883   7.058   3.135   1.011  0.7440 -1.4301 -0.8891
 9243SOL    HW229884   6.916   3.084   1.026 -0.0575  0.6467 -1.0773
 9244SOL     OW29885   2.985   5.704   9.172 -0.4143  0.4666 -0.0863
 9244SOL    HW129886   2.942   5.706   9.258 -1.7588 -0.2437 -0.7215
 9244SOL    HW229887   2.952   5.782   9.127  2.2857  2.3348  0.9093
 9245SOL     OW29888   0.922   3.452   1.160  0.3142 -0.0997 -0.2796
 9245SOL    HW129889   0.839   3.494   1.180  1.0169  0.4501  1.7853
 9245SOL    HW229890   0.982   3.525   1.142  0.4415 -0.4734 -1.4464
 9246SOL     OW29891   8.115   5.571   2.913 -0.1994 -0.2123  0.4117
 9246SOL    HW129892   8.042   5.520   2.879  0.8565 -2.0527  0.8126
 9246SOL    HW229893   8.109   5.560   3.008  1.4130 -1.5710  0.3820
 9247SOL     OW29894   7.461   2.087   7.666 -0.1592 -0.6291  0.1288
 9247SOL    HW129895   7.460   2.173   7.707 -1.1595 -0.9348  0.8002
 9247SOL    HW229896   7.382   2.085   7.611  0.3801 -0.7637 -0.6505
 9248SOL     OW29897   3.382   1.178   9.603  0.0113 -0.0132  0.4587
 9248SOL    HW129898   3.396   1.260   9.555  1.3910 -0.7792 -0.5361
 9248SOL    HW229899   3.339   1.204   9.684  1.3756  1.8359  0.6548
 9249SOL     OW29900   2.695   8.989   4.824 -0.6146 -0.4185 -0.4117
 9249SOL    HW129901   2.732   8.941   4.899 -0.6389 -2.4341 -1.6158
 9249SOL    HW229902   2.771   9.032   4.784 -0.3377 -0.6635 -0.1557
 9250SOL     OW29903   4.248   9.597   2.548  0.1822 -0.3451  0.2935
 9250SOL    HW129904   4.169   9.604   2.601 -0.0087 -0.7881  0.0697
 9250SOL    HW229905   4.302   9.532   2.593  1.2359  1.2703  1.4616
 9251SOL     OW29906   9.292   8.028   5.325  0.8912 -0.2895 -0.1116
 9251SOL    HW129907   9.331   8.049   5.410 -0.2771 -0.6600  0.5483
 9251SOL    HW229908   9.203   8.064   5.330  1.4795  1.7108 -2.0546
 9252SOL     OW29909   3.291   7.241   2.592  0.6259 -0.0197  0.1367
 9252SOL    HW129910   3.209   7.259   2.546  1.6106  0.7076 -1.4435
 9252SOL    HW229911   3.277   7.156   2.634 -1.1910  0.4599  0.6066
 9253SOL     OW29912   5.976   0.304   2.029  0.5439 -0.1564  0.3327
 9253SOL    HW129913   6.045   0.253   1.986  1.8553  0.1717  1.9656
 9253SOL    HW229914   5.930   0.241   2.085  0.8423  0.0316  0.7933
 9254SOL     OW29915   7.496   4.055   4.147  0.1199  0.1106  0.3034
 9254SOL    HW129916   7.447   4.118   4.199  1.5475 -0.2217  2.1526
 9254SOL    HW229917   7.572   4.104   4.114 -0.4270  0.1454 -0.9522
 9255SOL     OW29918   3.844   9.404   9.076 -0.1410  0.3852  0.1548
 9255SOL    HW129919   3.899   9.465   9.028 -0.5200  0.5174 -0.1170
 9255SOL    HW229920   3.754   9.431   9.055 -0.3924 -1.6796 -1.8354
 9256SOL     OW29921   4.881   6.227   1.948  0.0919 -0.6253  0.6009
 9256SOL    HW129922   4.909   6.176   2.024 -0.9817 -0.7947  0.8908
 9256SOL    HW229923   4.799   6.186   1.920 -0.0462  0.0660 -0.0361
 9257SOL     OW29924   6.802   8.393   1.131 -0.2230  0.0127 -0.2811
 9257SOL    HW129925   6.713   8.408   1.161  1.0085  1.4522  3.1764
 9257SOL    HW229926   6.843   8.480   1.132  1.7280 -0.8514  0.1865
 9258SOL     OW29927   9.592   6.028   0.145  0.4972 -0.1832  0.2044
 9258SOL    HW129928   9.540   6.107   0.161 -0.5166 -0.8933  0.5366
 9258SOL    HW229929   9.654   6.025   0.217  0.3465  0.1513  0.3510
 9259SOL     OW29930   2.922   1.707   1.309 -0.3264 -1.2242 -0.1332
 9259SOL    HW129931   2.902   1.797   1.336 -0.5276 -0.1771 -3.3059
 9259SOL    HW229932   2.979   1.673   1.378  0.1825  1.5050  0.9295
 9260SOL     OW29933   1.587   2.202   5.688 -0.3975 -0.0231 -0.0496
 9260SOL    HW129934   1.601   2.287   5.728 -0.9083  0.6416 -1.2319
 9260SOL    HW229935   1.669   2.185   5.641 -0.6586  0.3074 -0.6457
 9261SOL     OW29936   5.913   8.814   3.600  0.1405  0.3795 -0.3967
 9261SOL    HW129937   5.859   8.890   3.577  0.9979  0.7008 -1.3832
 9261SOL    HW229938   5.883   8.791   3.688 -0.4396  1.5904 -0.2451
 9262SOL     OW29939   7.375   0.561   8.780 -0.2238 -0.2172  0.1008
 9262SOL    HW129940   7.462   0.578   8.745 -0.6565  2.2376  0.0693
 9262SOL    HW229941   7.366   0.465   8.777  2.6326 -0.5739  0.6025
 9263SOL     OW29942   0.199   2.868   1.147 -0.7753  0.3530  0.4437
 9263SOL    HW129943   0.146   2.796   1.114  0.6461 -1.7349  2.4074
 9263SOL    HW229944   0.242   2.833   1.225  2.9042  2.1075 -0.5611
 9264SOL     OW29945   6.924   5.115   2.365  0.2726 -0.9244  0.3043
 9264SOL    HW129946   6.988   5.055   2.327 -0.5059 -1.0511 -0.8586
 9264SOL    HW229947   6.861   5.130   2.295  0.1072  0.7673  0.7761
 9265SOL     OW29948   4.360   0.014   0.097 -0.1119  0.5629 -0.1624
 9265SOL    HW129949   4.453   0.027   0.082  0.3340  1.0959  2.4721
 9265SOL    HW229950   4.347  -0.080   0.086  1.1495  0.2024  1.0494
 9266SOL     OW29951   2.214   1.586   3.922 -0.0968 -0.4249 -0.8726
 9266SOL    HW129952   2.225   1.665   3.976 -0.5957 -1.1382  0.3136
 9266SOL    HW229953   2.269   1.520   3.964 -0.1532 -0.8816 -1.5031
 9267SOL     OW29954   9.291   2.775   7.258 -0.1356 -0.2845  0.3935
 9267SOL    HW129955   9.328   2.846   7.310 -0.2301  1.0434 -1.2756
 9267SOL    HW229956   9.363   2.748   7.200 -0.3342 -1.0472  0.4878
 9268SOL     OW29957   5.609   4.161   3.371 -0.4766  0.0423 -0.0371
 9268SOL    HW129958   5.592   4.120   3.456 -0.9945 -1.5283 -0.8484
 9268SOL    HW229959   5.628   4.087   3.313 -0.9314  1.0220 -1.4714
 9269SOL     OW29960   3.512   7.728   4.847  0.0106 -0.4513  0.4917
 9269SOL    HW129961   3.418   7.718   4.832 -0.0411  1.4567 -0.8080
 9269SOL    HW229962   3.517   7.784   4.925  0.1258 -1.6434  1.3686
 9270SOL     OW29963   9.574   7.780   2.693 -0.1973  0.2827  0.9813
 9270SOL    HW129964   9.572   7.703   2.636 -1.6813  0.4917  0.7295
 9270SOL    HW229965   9.636   7.756   2.762  1.0975 -0.2427 -0.3075
 9271SOL     OW29966   0.245   1.563   4.343 -0.0681 -0.4935 -0.4680
 9271SOL    HW129967   0.256   1.470   4.321  0.6759 -0.6743  0.5783
 9271SOL    HW229968   0.306   1.577   4.416  0.5205  1.0484 -1.2118
 9272SOL     OW29969   1.158   6.645   2.890 -0.0725  0.2281  0.1453
 9272SOL    HW129970   1.241   6.673   2.927  0.3079  0.4671 -0.8666
 9272SOL    HW229971   1.179   6.615   2.802 -1.2454  1.6015 -0.6558
 9273SOL     OW29972   6.227   3.356   4.756  0.3970  0.1738  0.4331
 9273SOL    HW129973   6.298   3.294   4.742  0.1622 -0.0398  0.1659
 9273SOL    HW229974   6.157   3.305   4.796  0.3238  0.3371  0.5150
 9274SOL     OW29975   3.861   0.197   8.274  0.7103  0.4546 -0.1069
 9274SOL    HW129976   3.794   0.159   8.217  1.4329 -1.1496  0.0498
 9274SOL    HW229977   3.812   0.234   8.348 -0.2124  2.2675 -1.5456
 9275SOL     OW29978   2.763   8.753   7.050  0.0124  0.1591  0.3655
 9275SOL    HW129979   2.720   8.818   6.995 -1.8184 -0.5161  0.9272
 9275SOL    HW229980   2.745   8.781   7.139  1.2313  0.1375  0.6354
 9276SOL     OW29981   7.665   1.092   8.751 -0.0762 -0.4234 -0.0853
 9276SOL    HW129982   7.731   1.129   8.809 -1.0420 -0.0853  0.8167
 9276SOL    HW229983   7.608   1.166   8.728 -0.6095 -0.8677 -0.2124
 9277SOL     OW29984   3.113   0.940   8.756  0.0816  0.4361 -0.5404
 9277SOL    HW129985   3.037   0.989   8.787  0.1425  0.8009 -0.9538
 9277SOL    HW229986   3.078   0.886   8.685  0.0199 -0.1010 -0.1036
 9278SOL     OW29987   4.642   1.585   6.662 -0.4691  0.4437 -0.2206
 9278SOL    HW129988   4.724   1.540   6.644 -1.6222 -1.1993 -1.6318
 9278SOL    HW229989   4.645   1.603   6.756  1.0353 -0.5262 -0.0575
 9279SOL     OW29990   6.573   1.912   2.355 -0.0851 -0.1588  0.3411
 9279SOL    HW129991   6.638   1.850   2.388  0.2373  0.4921  0.9483
 9279SOL    HW229992   6.502   1.909   2.419 -0.2667 -0.2221  0.1398
 9280SOL     OW29993   9.284   0.176   4.785  0.1191  0.3669  0.4164
 9280SOL    HW129994   9.236   0.244   4.832  0.8085  1.3589 -0.2742
 9280SOL    HW229995   9.257   0.186   4.694  0.1886 -0.3384  0.3077
 9281SOL     OW29996   0.805   7.529   2.515 -0.5082 -0.3747  0.2120
 9281SOL    HW129997   0.834   7.594   2.579 -3.0013  1.0359  0.0502
 9281SOL    HW229998   0.710   7.533   2.518 -0.7765 -3.3815 -0.5409
 9282SOL     OW29999   8.179   0.807   0.495  0.2355 -1.1224 -0.2852
 9282SOL    HW130000   8.132   0.736   0.450 -1.7785  0.7831 -1.3782
 9282SOL    HW230001   8.188   0.775   0.585 -2.9023 -1.8291 -0.0950
 9283SOL     OW30002   2.245   6.927   7.959  0.2871 -0.1126 -0.4980
 9283SOL    HW130003   2.186   6.854   7.978  0.4218 -0.0544  0.1732
 9283SOL    HW230004   2.258   6.924   7.864 -0.7193 -0.1814 -0.6435
 9284SOL     OW30005   2.751   3.959   2.063 -0.5683  0.0103 -0.7343
 9284SOL    HW130006   2.832   3.967   2.114 -1.0155 -1.5322  0.2965
 9284SOL    HW230007   2.740   4.044   2.021  1.3721  0.3720 -0.5721
 9285SOL     OW30008   8.101   6.257   0.499 -0.0292 -0.1432 -0.1652
 9285SOL    HW130009   8.179   6.267   0.445  0.4180  1.5309  0.7058
 9285SOL    HW230010   8.064   6.345   0.503 -1.5849 -0.7770  0.0142
 9286SOL     OW30011   6.244   5.213   4.111  0.7299 -0.3792 -0.4173
 9286SOL    HW130012   6.293   5.202   4.030  0.5143 -0.5486 -0.5250
 9286SOL    HW230013   6.213   5.303   4.108  0.0454 -0.6250 -0.9037
 9287SOL     OW30014   2.124   6.549   8.459 -0.2085 -0.0956  1.0470
 9287SOL    HW130015   2.177   6.495   8.400  2.2642  0.1678  2.8794
 9287SOL    HW230016   2.087   6.487   8.521 -1.5729 -0.1972  0.1688
 9288SOL     OW30017   9.455   1.302   0.584 -0.8806  0.8607  0.4696
 9288SOL    HW130018   9.515   1.227   0.593 -0.4934  1.1348  0.2259
 9288SOL    HW230019   9.466   1.351   0.666 -1.1317  0.6555  0.6276
 9289SOL     OW30020   8.918   2.477   6.486  0.0487 -0.1539  0.0345
 9289SOL    HW130021   8.895   2.409   6.423 -0.1689  0.2628 -0.3399
 9289SOL    HW230022   8.874   2.555   6.454  0.5802  0.2464  0.2704
 9290SOL     OW30023   5.816   7.103   1.241  0.3072 -0.0631  0.0342
 9290SOL    HW130024   5.882   7.063   1.298 -0.6812 -1.8874  0.0051
 9290SOL    HW230025   5.777   7.172   1.294 -0.6410 -1.7715  1.6740
 9291SOL     OW30026   0.522   3.789   8.118 -0.1658  0.0118 -0.1859
 9291SOL    HW130027   0.450   3.754   8.171  0.1599 -0.3214  0.0331
 9291SOL    HW230028   0.564   3.854   8.175 -1.2175  1.3247 -0.8407
 9292SOL     OW30029   7.977   2.041   6.490  0.6033  0.5205  0.2110
 9292SOL    HW130030   8.043   1.988   6.535  0.3676  0.3310  0.3307
 9292SOL    HW230031   7.980   2.009   6.399 -1.8230 -2.0475  0.8834
 9293SOL     OW30032   5.955   2.840   2.775  0.2464  0.0147  0.0727
 9293SOL    HW130033   5.975   2.751   2.748  0.2414 -0.8278  2.5822
 9293SOL    HW230034   5.971   2.841   2.869  0.2694  2.6883  0.1311
 9294SOL     OW30035   5.053   7.772   9.507 -0.7588  0.1248  0.0714
 9294SOL    HW130036   5.077   7.799   9.596  2.4551  1.1508 -0.9476
 9294SOL    HW230037   4.978   7.714   9.519 -2.4091  2.5591  3.1581
 9295SOL     OW30038   2.377   2.319   4.438 -0.1707  0.2568 -0.3404
 9295SOL    HW130039   2.351   2.232   4.406  1.8048 -0.4697 -0.1459
 9295SOL    HW230040   2.346   2.321   4.529 -3.5801  1.3362 -1.3918
 9296SOL     OW30041   2.672   6.401   5.297 -0.0153 -0.3182  0.1997
 9296SOL    HW130042   2.731   6.445   5.238  0.9745 -1.8778 -0.0280
 9296SOL    HW230043   2.649   6.319   5.253 -1.1557 -0.4373  0.9410
 9297SOL     OW30044   6.489   3.380   5.912  0.3276 -0.2633 -0.3902
 9297SOL    HW130045   6.422   3.449   5.909  1.3162  0.6751 -1.6812
 9297SOL    HW230046   6.464   3.319   5.843  0.3131 -0.3981 -0.2678
 9298SOL     OW30047   4.937   6.370   2.345  0.0803 -0.7914 -0.1926
 9298SOL    HW130048   4.906   6.422   2.271 -2.1821  0.0177  1.2349
 9298SOL    HW230049   4.858   6.332   2.383  1.0872 -0.7347  2.1408
 9299SOL     OW30050   2.528   8.092   2.469 -0.5453 -0.0511 -0.5265
 9299SOL    HW130051   2.586   8.026   2.507  1.6057  1.7926 -0.3365
 9299SOL    HW230052   2.485   8.048   2.397  1.6969 -1.3922 -1.1511
 9300SOL     OW30053   7.979   0.521   4.884  0.1495  0.3046 -0.2006
 9300SOL    HW130054   7.923   0.589   4.847  0.3356 -0.7028 -2.4766
 9300SOL    HW230055   7.945   0.508   4.973  0.7124  3.9649  0.7255
 9301SOL     OW30056   8.001   2.258   4.752  0.0045  0.8038 -0.2581
 9301SOL    HW130057   7.946   2.329   4.718 -0.2567 -0.2610 -2.1754
 9301SOL    HW230058   7.939   2.198   4.793 -0.2909 -0.2091 -2.0879
 9302SOL     OW30059   2.604   7.343   3.237  0.0344  0.2080  0.2402
 9302SOL    HW130060   2.655   7.326   3.316 -0.4864  0.1807  0.5748
 9302SOL    HW230061   2.581   7.257   3.203  0.8877  0.2089 -0.3614
 9303SOL     OW30062   6.516   3.001   8.251 -0.2401  0.1465  0.0921
 9303SOL    HW130063   6.587   2.965   8.198 -1.2045  0.8273 -1.7545
 9303SOL    HW230064   6.560   3.060   8.312  0.7935  0.6618 -1.0988
 9304SOL     OW30065   5.546   4.951   6.588 -0.7690  0.3419  0.6506
 9304SOL    HW130066   5.547   4.987   6.677  0.4656 -0.9769  1.1927
 9304SOL    HW230067   5.488   4.875   6.593  0.4038 -0.5665  0.6845
 9305SOL     OW30068   7.907   0.264   2.148 -0.4291  0.4505 -0.1523
 9305SOL    HW130069   7.971   0.204   2.111 -0.6194  0.6226 -0.7691
 9305SOL    HW230070   7.956   0.344   2.167 -0.6305  0.9038 -1.4680
 9306SOL     OW30071   0.347   1.867   7.378 -0.6750 -0.1654  0.3935
 9306SOL    HW130072   0.439   1.850   7.400 -0.8913  0.0573  1.5036
 9306SOL    HW230073   0.350   1.950   7.330 -0.4992  1.1046  2.4667
 9307SOL     OW30074   6.946   6.671   2.512 -0.6176  0.4022 -0.7866
 9307SOL    HW130075   6.968   6.763   2.506  1.1963 -0.0558 -1.6280
 9307SOL    HW230076   6.889   6.665   2.590  1.8085  1.7784  1.2343
 9308SOL     OW30077   0.253   6.551   5.925  0.0906  0.5226  0.1543
 9308SOL    HW130078   0.157   6.551   5.933  0.1388 -0.8792  1.0808
 9308SOL    HW230079   0.284   6.540   6.014  1.0984  0.2361 -0.2191
 9309SOL     OW30080   0.393   2.802   7.615  0.4193 -0.4503  0.4482
 9309SOL    HW130081   0.419   2.845   7.534  2.2996  0.0240  1.2499
 9309SOL    HW230082   0.404   2.708   7.598  0.6697 -0.3594  0.1117
 9310SOL     OW30083   5.439   2.187   3.707  0.6568  0.5990 -0.5394
 9310SOL    HW130084   5.417   2.094   3.711 -0.5832  0.8032 -2.0078
 9310SOL    HW230085   5.445   2.214   3.799 -3.1084 -0.0006  0.0307
 9311SOL     OW30086   2.879   6.382   2.090 -0.3107  0.0681 -0.0747
 9311SOL    HW130087   2.945   6.314   2.104 -0.1017  0.0098 -1.2172
 9311SOL    HW230088   2.803   6.352   2.139 -0.0820 -0.7839 -0.2265
 9312SOL     OW30089   6.795   5.797   8.797 -0.2744 -0.7500 -0.1171
 9312SOL    HW130090   6.868   5.773   8.854  0.4138 -0.2718 -0.7857
 9312SOL    HW230091   6.782   5.890   8.813  0.7165 -0.3367 -1.6188
 9313SOL     OW30092   8.579   1.403   0.938 -0.5065  0.1182 -0.3174
 9313SOL    HW130093   8.535   1.374   0.858  1.4689  0.2719 -1.5227
 9313SOL    HW230094   8.510   1.447   0.988 -2.2281 -1.5824 -1.0521
 9314SOL     OW30095   0.121   6.552   1.394 -0.2798 -0.0133  0.5133
 9314SOL    HW130096   0.192   6.509   1.347  1.1947 -0.4264  2.9220
 9314SOL    HW230097   0.165   6.600   1.464 -2.2241  1.9101  0.5060
 9315SOL     OW30098   4.039   2.440   0.671 -0.1366  0.0623  0.1712
 9315SOL    HW130099   4.001   2.377   0.610 -1.3056 -1.4022  2.2644
 9315SOL    HW230100   4.132   2.421   0.671 -0.3294 -0.9473 -0.0459
 9316SOL     OW30101   6.684   4.232   9.164  0.3612  0.7877 -0.4413
 9316SOL    HW130102   6.673   4.326   9.153  0.4998  0.6903 -1.5232
 9316SOL    HW230103   6.684   4.197   9.075 -0.3797 -0.3155 -0.0375
 9317SOL     OW30104   2.978   7.002   7.887 -0.2350  0.0300  0.2898
 9317SOL    HW130105   3.038   7.069   7.856 -0.1432 -0.0470  0.2994
 9317SOL    HW230106   2.975   7.015   7.982 -0.8277  0.5240  0.2105
 9318SOL     OW30107   8.456   7.499   0.846 -0.1354  0.2724 -0.0326
 9318SOL    HW130108   8.392   7.428   0.853  0.1709  0.0282  0.3765
 9318SOL    HW230109   8.406   7.574   0.816 -0.3405 -0.2927 -1.1567
 9319SOL     OW30110   7.722   5.810   8.980  0.1534  0.0116  0.4121
 9319SOL    HW130111   7.686   5.893   8.950 -0.3152  0.5376  2.2588
 9319SOL    HW230112   7.809   5.806   8.941 -0.7694  0.1134 -1.7727
 9320SOL     OW30113   6.844   7.458   4.581  0.1045  0.2017 -0.5077
 9320SOL    HW130114   6.863   7.539   4.533 -0.8480  0.5551 -0.3141
 9320SOL    HW230115   6.799   7.487   4.660  0.6415 -0.4626  0.0563
 9321SOL     OW30116   0.517   5.692   3.139 -0.6402 -0.7579  0.2140
 9321SOL    HW130117   0.533   5.766   3.197 -1.2256 -0.9527  0.6346
 9321SOL    HW230118   0.443   5.720   3.085 -0.2635 -0.6780 -0.2624
 9322SOL     OW30119   3.392   2.123   6.636 -0.2473  0.3918 -0.1103
 9322SOL    HW130120   3.321   2.071   6.599 -0.1603 -0.2214  0.5771
 9322SOL    HW230121   3.428   2.171   6.561 -0.9824  0.2444 -0.5699
 9323SOL     OW30122   6.603   2.254   7.771  0.3968  0.1338  0.0117
 9323SOL    HW130123   6.573   2.339   7.736 -0.5065 -0.9949 -2.1484
 9323SOL    HW230124   6.622   2.272   7.863 -1.4867  2.2898  0.0827
 9324SOL     OW30125   6.345   8.064   5.165 -0.3870 -0.3312  0.5301
 9324SOL    HW130126   6.328   8.054   5.258  1.2267  1.8943  1.1263
 9324SOL    HW230127   6.414   7.999   5.147 -1.6048 -1.6843  0.5268
 9325SOL     OW30128   3.740   2.081   0.220 -0.4249  0.2879 -0.2827
 9325SOL    HW130129   3.700   1.994   0.225 -2.1997  0.8534 -2.6960
 9325SOL    HW230130   3.824   2.066   0.178 -0.4848 -0.3175 -0.1942
 9326SOL     OW30131   7.345   2.810   7.310  0.4437 -0.2636 -0.0594
 9326SOL    HW130132   7.413   2.852   7.256 -0.8701  3.0383  0.5819
 9326SOL    HW230133   7.269   2.803   7.252  0.1406 -0.1447  0.3151
 9327SOL     OW30134   1.774   6.226   6.170 -0.2973  0.1934  0.5826
 9327SOL    HW130135   1.725   6.262   6.244 -1.6215 -0.0996 -0.1220
 9327SOL    HW230136   1.748   6.134   6.165  0.4660 -0.0197  0.2963
 9328SOL     OW30137   4.248   5.061   4.167 -0.1699  0.7799  0.5738
 9328SOL    HW130138   4.181   4.993   4.171 -1.2254  1.8335  1.7416
 9328SOL    HW230139   4.267   5.071   4.073 -2.0891  0.8380  0.1468
 9329SOL     OW30140   7.950   2.395   2.046 -0.1059 -0.0903 -0.4631
 9329SOL    HW130141   8.022   2.436   1.999 -0.7053  2.2137  0.4851
 9329SOL    HW230142   7.881   2.386   1.980 -0.3968  1.6617 -0.4501
 9330SOL     OW30143   0.739   6.889   1.564  0.1423 -0.3915  0.0620
 9330SOL    HW130144   0.743   6.840   1.647  1.3162 -0.1393  0.1818
 9330SOL    HW230145   0.830   6.893   1.535 -0.3121 -0.9503 -1.5351
 9331SOL     OW30146   8.896   0.624   8.643  0.1339 -0.0390  0.5667
 9331SOL    HW130147   8.969   0.567   8.620  0.4245 -0.1212  1.6479
 9331SOL    HW230148   8.827   0.601   8.580  1.4164  0.9098 -1.3044
 9332SOL     OW30149   1.493   9.558   1.597  0.4374  0.3101  0.1541
 9332SOL    HW130150   1.414   9.519   1.559  2.0140 -1.1801 -1.7908
 9332SOL    HW230151   1.499   9.519   1.685  0.1101 -1.1891 -0.4643
 9333SOL     OW30152   3.112   1.866   3.371  0.2869 -0.2915 -0.4691
 9333SOL    HW130153   3.162   1.802   3.421  0.1831 -0.4161 -0.5248
 9333SOL    HW230154   3.024   1.828   3.363  0.1213  0.0308 -0.1794
 9334SOL     OW30155   7.989   3.961   5.423 -0.0151  0.1338 -0.7140
 9334SOL    HW130156   8.065   3.985   5.369 -0.0882  0.9966 -0.4541
 9334SOL    HW230157   7.933   4.038   5.419 -1.4316 -0.8976 -1.8250
 9335SOL     OW30158   1.994   8.731   8.636 -0.1756 -0.8087  0.1315
 9335SOL    HW130159   2.002   8.728   8.540  0.5106 -0.1295  0.1615
 9335SOL    HW230160   2.084   8.742   8.667 -0.6832  2.9910  0.6945
 9336SOL     OW30161   8.574   6.293   1.308  1.3816  0.2770  0.3193
 9336SOL    HW130162   8.611   6.370   1.264 -2.4964  2.4586  0.4391
 9336SOL    HW230163   8.540   6.327   1.391 -1.5237 -1.2263 -0.1348
 9337SOL     OW30164   8.520   5.819   8.488  0.4480  0.3178  0.2825
 9337SOL    HW130165   8.436   5.794   8.450  0.3914  0.4283  0.3334
 9337SOL    HW230166   8.517   5.915   8.491  0.3415  0.2979  0.8259
 9338SOL     OW30167   3.787   3.003   1.551 -0.0064  0.1715 -0.1354
 9338SOL    HW130168   3.792   2.921   1.601  0.5150 -0.8180 -1.7601
 9338SOL    HW230169   3.873   3.043   1.564 -0.5599  0.9585  1.3997
 9339SOL     OW30170   5.068   6.531   4.423 -0.1601  0.1791 -0.1418
 9339SOL    HW130171   5.087   6.555   4.332  2.6992 -0.0868  0.3107
 9339SOL    HW230172   5.009   6.456   4.415  0.5308 -0.2458 -1.8034
 9340SOL     OW30173   3.249   6.526   1.308 -0.0232  0.1997  0.1323
 9340SOL    HW130174   3.180   6.470   1.273 -0.3493  0.0309  1.0177
 9340SOL    HW230175   3.328   6.471   1.305 -0.2249 -0.1137  0.4619
 9341SOL     OW30176   5.031   6.084   4.949  0.1114  0.0404  0.5007
 9341SOL    HW130177   5.018   5.996   4.984 -0.3438  0.6350  1.9123
 9341SOL    HW230178   5.115   6.081   4.905  0.5148 -0.8851  1.3031
 9342SOL     OW30179   0.147   1.574   6.980 -0.0539  0.0935  0.4651
 9342SOL    HW130180   0.104   1.647   7.024 -2.4372 -1.1794  0.4329
 9342SOL    HW230181   0.122   1.583   6.888  0.1884 -0.4003  0.3449
 9343SOL     OW30182   1.876   8.037   8.336  0.6434 -0.0213  0.2510
 9343SOL    HW130183   1.958   7.993   8.359  0.6004 -0.5072 -0.4680
 9343SOL    HW230184   1.830   7.973   8.280 -1.1387 -0.5934  2.2416
 9344SOL     OW30185   2.875   4.677   1.080  0.5535  0.1045  0.2204
 9344SOL    HW130186   2.839   4.735   1.012 -0.3583 -0.6201  0.0690
 9344SOL    HW230187   2.798   4.635   1.118  1.0871  0.2564  1.4889
 9345SOL     OW30188   5.178   6.917   8.130 -0.2184  0.1010  0.0422
 9345SOL    HW130189   5.235   6.913   8.207  0.6802  0.9778 -0.5551
 9345SOL    HW230190   5.090   6.931   8.165  0.1259  0.1202  0.9161
 9346SOL     OW30191   3.826   0.027   5.345  0.1988 -0.1277  0.3865
 9346SOL    HW130192   3.754   0.089   5.356  0.2936 -0.1646  1.3594
 9346SOL    HW230193   3.885   0.046   5.418  0.9038 -0.4685 -0.0772
 9347SOL     OW30194   9.055   6.586   7.104  0.1982  0.0093  0.2727
 9347SOL    HW130195   9.000   6.554   7.032  0.0562 -0.2151  0.4778
 9347SOL    HW230196   9.004   6.656   7.144  0.3986  0.3215 -0.0185
 9348SOL     OW30197   6.357   8.693   2.677  0.2151 -0.0445 -0.3313
 9348SOL    HW130198   6.355   8.635   2.753  1.6053  1.1263  0.6439
 9348SOL    HW230199   6.264   8.711   2.658 -0.1499 -0.1364  1.2752
 9349SOL     OW30200   5.748   8.405   1.710  0.2981  0.4053 -0.0091
 9349SOL    HW130201   5.771   8.437   1.797  2.0726 -0.0946 -0.2526
 9349SOL    HW230202   5.816   8.441   1.652  0.2707 -0.8148 -0.8584
 9350SOL     OW30203   0.505   9.491   2.624  0.3024 -0.3350 -0.0539
 9350SOL    HW130204   0.467   9.404   2.640  0.4908 -0.4225 -0.0849
 9350SOL    HW230205   0.598   9.480   2.642  0.4272 -0.2939 -0.6570
 9351SOL     OW30206   8.214   6.574   9.104 -0.1847 -0.3563  0.1756
 9351SOL    HW130207   8.247   6.530   9.183 -1.7514  0.7308  1.5023
 9351SOL    HW230208   8.162   6.508   9.060 -0.5864 -0.5275  0.8942
 9352SOL     OW30209   1.723   2.249   5.314  0.1847  0.3727  0.3145
 9352SOL    HW130210   1.636   2.216   5.338  0.9308 -2.0799 -0.0650
 9352SOL    HW230211   1.784   2.190   5.358  1.6628  1.5575 -0.0661
 9353SOL     OW30212   0.313   7.462   9.025  0.2720 -0.2180 -0.4662
 9353SOL    HW130213   0.356   7.435   8.944  0.7926  0.7546 -0.5330
 9353SOL    HW230214   0.342   7.398   9.090  0.2745 -0.6919 -0.9285
 9354SOL     OW30215   0.944   8.118   0.089 -0.3903  0.2505 -0.2888
 9354SOL    HW130216   0.964   8.026   0.107 -0.2832  0.4805  0.9137
 9354SOL    HW230217   0.992   8.166   0.158 -1.8059  1.0822  0.1574
 9355SOL     OW30218   2.408   7.833   6.905  0.6620 -0.0910 -0.2183
 9355SOL    HW130219   2.398   7.920   6.866  0.5654 -0.0291 -0.0577
 9355SOL    HW230220   2.490   7.838   6.953  1.1747 -0.4092 -1.0407
 9356SOL     OW30221   3.958   5.697   2.875  0.4324 -0.5904  0.0709
 9356SOL    HW130222   4.044   5.684   2.915  1.6242  1.3214 -1.6430
 9356SOL    HW230223   3.931   5.784   2.904  0.7866  0.3387 -2.1914
 9357SOL     OW30224   8.106   6.559   7.868  0.4995 -0.3585 -0.0900
 9357SOL    HW130225   8.101   6.644   7.824  0.6202  0.0125  0.5947
 9357SOL    HW230226   8.095   6.495   7.798 -2.3158  0.2166 -0.2859
 9358SOL     OW30227   8.496   0.642   5.189 -0.5876 -0.2405 -0.1559
 9358SOL    HW130228   8.571   0.696   5.212 -0.7564  1.1896 -2.5571
 9358SOL    HW230229   8.486   0.580   5.262  2.1664  0.2848  0.7610
 9359SOL     OW30230   9.248   4.539   9.584 -0.8805 -0.1037 -0.3906
 9359SOL    HW130231   9.271   4.551   9.492 -2.6058  2.6292 -0.5854
 9359SOL    HW230232   9.271   4.622   9.626 -1.4961 -0.7431  1.3348
 9360SOL     OW30233   6.021   3.425   1.114  0.5984 -0.2140  0.3947
 9360SOL    HW130234   6.103   3.474   1.114  0.9602 -0.8078  0.2373
 9360SOL    HW230235   6.038   3.349   1.060 -0.0391 -0.3845  0.4192
 9361SOL     OW30236   9.589   8.822   5.740 -0.2841  0.0738 -0.0988
 9361SOL    HW130237   9.602   8.866   5.824  1.2578 -0.8155  0.1816
 9361SOL    HW230238   9.667   8.767   5.730 -1.5433 -1.6786 -0.9701
 9362SOL     OW30239   7.600   2.794   3.896 -0.1020  0.0733 -0.5640
 9362SOL    HW130240   7.610   2.872   3.949  1.1175  0.2537 -1.0042
 9362SOL    HW230241   7.619   2.722   3.956  0.1225  0.2024 -0.4784
 9363SOL     OW30242   7.871   6.458   2.686  0.1464 -0.4800 -0.1223
 9363SOL    HW130243   7.794   6.512   2.702  1.5190  1.6250 -0.2085
 9363SOL    HW230244   7.904   6.437   2.773 -0.0134 -0.6008 -0.0913
 9364SOL     OW30245   6.036   9.425   9.624 -0.8170 -0.1747 -0.4910
 9364SOL    HW130246   6.125   9.404   9.653 -0.7466 -0.5227 -0.9469
 9364SOL    HW230247   5.996   9.469   9.700 -0.6229 -1.0194  0.1191
 9365SOL     OW30248   0.907   5.153   8.706 -0.3927  0.0930 -0.2677
 9365SOL    HW130249   0.817   5.140   8.677 -1.0088  2.4554  0.3838
 9365SOL    HW230250   0.901   5.164   8.800  0.7102 -0.6531 -0.0999
 9366SOL     OW30251   7.569   7.275   7.519 -0.1485 -0.2043  0.5071
 9366SOL    HW130252   7.615   7.329   7.455  0.3587  0.6687  1.5734
 9366SOL    HW230253   7.517   7.215   7.466 -1.3149  1.8029 -0.7425
 9367SOL     OW30254   2.939   3.366   8.785 -0.1239 -0.1459  0.4126
 9367SOL    HW130255   2.856   3.382   8.830  0.2983  2.4977  0.4483
 9367SOL    HW230256   3.003   3.414   8.836  1.0171 -0.1805 -0.9239
 9368SOL     OW30257   4.003   7.451   6.194  0.1344 -0.5208  0.6308
 9368SOL    HW130258   4.018   7.368   6.239 -1.6805 -2.1953 -1.6109
 9368SOL    HW230259   3.927   7.489   6.238 -0.2704 -1.0617  0.4146
 9369SOL     OW30260   0.213   3.256   5.057  0.3931  0.5597 -0.7144
 9369SOL    HW130261   0.176   3.288   4.975  0.0406  1.2935 -0.2774
 9369SOL    HW230262   0.227   3.335   5.109  0.7159  0.1075 -0.1097
 9370SOL     OW30263   4.183   5.532   9.274 -0.0371  0.6326  0.2646
 9370SOL    HW130264   4.116   5.479   9.318 -0.5840  0.5041 -0.7074
 9370SOL    HW230265   4.139   5.570   9.199  0.9347  0.7070 -0.2831
 9371SOL     OW30266   9.027   6.409   8.845  0.3186  0.1148 -0.2199
 9371SOL    HW130267   9.103   6.466   8.835 -0.7641  1.4451 -1.1606
 9371SOL    HW230268   9.018   6.367   8.759 -0.2924  0.3122 -0.2517
 9372SOL     OW30269   4.868   8.095   0.851 -0.4349 -0.7399  0.5214
 9372SOL    HW130270   4.897   8.049   0.772 -1.4813 -0.4782 -0.0354
 9372SOL    HW230271   4.928   8.170   0.858 -0.5593 -0.5545 -0.2468
 9373SOL     OW30272   4.021   6.718   3.778 -0.0703  0.5789 -0.6525
 9373SOL    HW130273   3.982   6.653   3.837 -2.2670  2.4965  0.1872
 9373SOL    HW230274   3.946   6.765   3.741  1.3843  3.3289 -0.3997
 9374SOL     OW30275   5.273   8.361   7.567  0.1958 -0.2400 -0.5486
 9374SOL    HW130276   5.287   8.393   7.478  0.6899  0.1409 -0.3372
 9374SOL    HW230277   5.358   8.326   7.593 -0.6081 -2.9607 -1.2545
 9375SOL     OW30278   8.295   1.909   7.880 -0.0636 -0.2375 -0.5212
 9375SOL    HW130279   8.245   1.906   7.798 -0.6706 -2.7952 -0.1374
 9375SOL    HW230280   8.229   1.900   7.949  0.4032  2.1789  0.3644
 9376SOL     OW30281   0.829   3.733   3.364  0.2711  0.6511  0.3974
 9376SOL    HW130282   0.896   3.744   3.432  2.6326 -2.2088 -1.1868
 9376SOL    HW230283   0.872   3.680   3.297 -2.9217  0.6482 -1.8805
 9377SOL     OW30284   9.222   8.461   6.515 -0.4492 -0.0561  0.0603
 9377SOL    HW130285   9.176   8.475   6.598  0.4222  0.2790  0.4893
 9377SOL    HW230286   9.162   8.406   6.464 -0.9037 -0.4394  0.9855
 9378SOL     OW30287   1.323   2.098   5.719 -0.1152  0.8541  0.1380
 9378SOL    HW130288   1.330   2.020   5.663 -1.0287  0.9253 -0.0946
 9378SOL    HW230289   1.413   2.127   5.731  0.3059 -0.5799  0.7066
 9379SOL     OW30290   7.268   8.354   0.152 -0.5879  0.5289 -0.9393
 9379SOL    HW130291   7.313   8.290   0.097 -0.1475  0.5957 -0.6609
 9379SOL    HW230292   7.299   8.336   0.241 -1.2316  0.4745 -0.7161
 9380SOL     OW30293   3.715   2.063   8.751  0.4230  0.0552  0.0535
 9380SOL    HW130294   3.658   2.029   8.682  0.4517  0.9214 -0.4203
 9380SOL    HW230295   3.660   2.126   8.798  0.6793  0.1470  0.2312
 9381SOL     OW30296   8.445   6.108   7.727 -0.3668 -0.1439 -0.1307
 9381SOL    HW130297   8.502   6.095   7.651  0.9381 -0.7569  0.9182
 9381SOL    HW230298   8.434   6.203   7.733 -0.1902 -0.0698 -0.8622
 9382SOL     OW30299   7.802   6.451   0.540  0.7316  0.3082 -0.2593
 9382SOL    HW130300   7.872   6.456   0.605  0.3036 -1.4365  0.4018
 9382SOL    HW230301   7.847   6.425   0.459  1.0109  0.4668 -0.1554
 9383SOL     OW30302   9.083   2.952   7.114  0.3400 -0.0177  0.0241
 9383SOL    HW130303   9.101   2.931   7.206 -0.1301 -0.9527 -0.0851
 9383SOL    HW230304   8.989   2.974   7.113 -0.4764 -2.9916 -0.6779
 9384SOL     OW30305   7.283   5.111   3.946  0.1983 -0.9018 -0.0720
 9384SOL    HW130306   7.220   5.160   3.997  1.6354 -1.2807  2.2016
 9384SOL    HW230307   7.252   5.118   3.856 -2.1595  0.2327  0.7577
 9385SOL     OW30308   1.365   4.159   8.365  0.4577 -0.1457  0.1432
 9385SOL    HW130309   1.423   4.222   8.407  1.6350 -0.5451 -0.8240
 9385SOL    HW230310   1.278   4.196   8.375  1.0269  1.2014  0.3544
 9386SOL     OW30311   3.378   3.987   8.048  0.4146  0.1844 -0.6313
 9386SOL    HW130312   3.289   3.994   8.013 -1.1651 -1.6086  2.5977
 9386SOL    HW230313   3.407   3.900   8.023 -0.1499 -0.5378  1.0597
 9387SOL     OW30314   8.092   1.461   6.564 -0.1836 -0.5508 -0.0589
 9387SOL    HW130315   8.082   1.452   6.659 -2.6386  1.1326 -0.0733
 9387SOL    HW230316   8.046   1.385   6.528 -0.7177 -0.3060  0.0970
 9388SOL     OW30317   0.391   1.373   7.633  0.5031  0.4342 -0.3775
 9388SOL    HW130318   0.466   1.431   7.645 -0.1942  1.4165 -0.6294
 9388SOL    HW230319   0.366   1.346   7.722  0.9950  0.2963 -0.2807
 9389SOL     OW30320   1.974   9.523   1.282 -0.4501  0.0287  0.3300
 9389SOL    HW130321   1.903   9.538   1.345  0.5185 -3.0023  2.3707
 9389SOL    HW230322   2.035   9.595   1.296 -2.1821  1.6683 -0.1706
 9390SOL     OW30323   1.583   1.035   1.061 -0.3821  0.0091 -0.9680
 9390SOL    HW130324   1.500   1.045   1.107 -0.2385 -1.5641 -0.2851
 9390SOL    HW230325   1.561   1.044   0.968 -1.2458 -0.0411 -0.7703
 9391SOL     OW30326   1.409   7.019   0.545  0.2117 -0.0160  0.6787
 9391SOL    HW130327   1.462   7.059   0.476 -0.0558  1.2508  1.1842
 9391SOL    HW230328   1.467   6.953   0.585  1.1839  0.8866  0.7870
 9392SOL     OW30329   0.623   6.809   0.548  0.1031  0.5265  0.5714
 9392SOL    HW130330   0.602   6.898   0.518 -1.1900 -0.1571 -0.6808
 9392SOL    HW230331   0.712   6.816   0.584  0.2175  2.2183  0.0446
 9393SOL     OW30332   2.601   3.643   0.591 -0.0449 -0.0487 -0.6228
 9393SOL    HW130333   2.582   3.570   0.648  0.8265  0.1786 -0.0284
 9393SOL    HW230334   2.663   3.608   0.526 -1.0842 -0.3270 -1.5015
 9394SOL     OW30335   7.711   4.943   1.348 -0.2555 -0.2529  0.0424
 9394SOL    HW130336   7.746   4.856   1.330 -1.3409 -0.5813 -0.5696
 9394SOL    HW230337   7.703   4.947   1.443 -0.0616 -0.7715  0.0827
 9395SOL     OW30338   3.428   8.132   1.416  0.3565 -0.3943 -0.3418
 9395SOL    HW130339   3.433   8.086   1.332 -1.7284 -0.7403 -0.3143
 9395SOL    HW230340   3.347   8.183   1.411  0.8612  0.5900  0.9771
 9396SOL     OW30341   5.780   2.203   1.884 -0.0099 -0.2244 -0.5650
 9396SOL    HW130342   5.701   2.253   1.902  0.2132  0.5166 -1.5718
 9396SOL    HW230343   5.852   2.264   1.900  0.2386  0.0917 -2.5612
 9397SOL     OW30344   2.436   1.845   1.033  0.0225 -0.0718  0.1492
 9397SOL    HW130345   2.382   1.826   1.110 -4.7542  1.3859 -2.4388
 9397SOL    HW230346   2.417   1.936   1.013  0.6863 -0.5335 -2.9525
 9398SOL     OW30347   2.802   5.385   8.241 -0.1691  0.1534  0.0354
 9398SOL    HW130348   2.727   5.415   8.293 -0.5125  3.3011 -2.0358
 9398SOL    HW230349   2.876   5.434   8.275 -0.2405  1.5840 -1.7114
 9399SOL     OW30350   0.027   0.301   5.932  0.2353 -0.3036  0.0608
 9399SOL    HW130351  -0.055   0.342   5.907 -0.1656 -2.4463 -2.5967
 9399SOL    HW230352   0.020   0.289   6.027 -0.6287  3.2933  0.5850
 9400SOL     OW30353   8.685   9.633   3.987 -0.2445 -0.5347 -0.3364
 9400SOL    HW130354   8.591   9.616   3.984 -0.0933 -1.3481 -1.6574
 9400SOL    HW230355   8.712   9.632   3.895  0.9387  0.4447 -0.0292
 9401SOL     OW30356   5.244   1.492   9.256  0.5817  0.0827  0.2588
 9401SOL    HW130357   5.320   1.543   9.228 -0.2320  1.3466  0.2966
 9401SOL    HW230358   5.281   1.409   9.287  1.8976  0.4920 -0.1635
 9402SOL     OW30359   0.209   0.426   4.719 -0.0260  0.5162 -0.4130
 9402SOL    HW130360   0.177   0.514   4.699 -1.3526  0.8705  2.6954
 9402SOL    HW230361   0.299   0.439   4.746  0.0260  0.7910 -0.7092
 9403SOL     OW30362   1.121   3.732   8.428 -0.0501 -0.3858  0.3337
 9403SOL    HW130363   1.182   3.788   8.380  0.0930  0.2814  1.2690
 9403SOL    HW230364   1.170   3.705   8.506 -1.5395  1.7224  2.1064
 9404SOL     OW30365   9.207   0.803   2.415  0.1500 -0.0975 -0.6916
 9404SOL    HW130366   9.126   0.830   2.372 -0.2048  0.8770  0.5118
 9404SOL    HW230367   9.201   0.707   2.422 -1.2029  0.0155 -0.0664
 9405SOL     OW30368   3.108   0.711   2.006 -0.0359 -0.0072  0.0662
 9405SOL    HW130369   3.017   0.684   1.991  0.3007 -0.4214 -1.2830
 9405SOL    HW230370   3.157   0.629   2.010  0.1903  0.1676  1.6148
 9406SOL     OW30371   9.433   5.722   5.247  0.5229 -0.3813 -0.0489
 9406SOL    HW130372   9.465   5.726   5.157  0.4342  0.6481 -0.0490
 9406SOL    HW230373   9.416   5.629   5.263 -2.7797 -0.3096 -2.2749
 9407SOL     OW30374   9.236   7.993   2.583 -0.2058  0.0506 -0.1994
 9407SOL    HW130375   9.275   8.074   2.615 -1.0343 -0.1144  1.2895
 9407SOL    HW230376   9.219   8.009   2.490  1.2746  0.9287 -0.3445
 9408SOL     OW30377   5.879   5.424   3.886 -0.5050 -0.0228 -0.2193
 9408SOL    HW130378   5.820   5.450   3.815 -0.6015  0.6128  0.0835
 9408SOL    HW230379   5.923   5.346   3.853  0.1444  0.7973 -1.3623
 9409SOL     OW30380   8.312   2.555   9.303  0.3796  0.2371  0.0724
 9409SOL    HW130381   8.338   2.633   9.253  0.0209  0.4145  0.1585
 9409SOL    HW230382   8.221   2.572   9.329 -0.1228 -0.7435 -0.9500
 9410SOL     OW30383   6.131   9.401   7.232  0.0529  0.0082  0.2397
 9410SOL    HW130384   6.202   9.440   7.282 -0.5644  3.8495 -1.5117
 9410SOL    HW230385   6.171   9.377   7.148  0.1864 -2.3030  0.9169
 9411SOL     OW30386   6.293   7.247   2.768 -0.4727  0.1780 -0.8316
 9411SOL    HW130387   6.269   7.240   2.861 -0.9702  1.3892 -0.8405
 9411SOL    HW230388   6.222   7.204   2.722 -0.3530 -0.2074 -0.6555
 9412SOL     OW30389   6.048   2.587   1.765 -0.7272 -0.4579  0.0576
 9412SOL    HW130390   5.957   2.601   1.792 -0.3226  0.1345  1.1814
 9412SOL    HW230391   6.088   2.674   1.768  0.3710 -0.9586  1.5573
 9413SOL     OW30392   0.065   0.839   0.174 -0.2360 -0.0036  0.0117
 9413SOL    HW130393   0.068   0.811   0.265  1.2136  2.9737  1.0255
 9413SOL    HW230394   0.142   0.896   0.164 -1.9320  2.1363 -2.1656
 9414SOL     OW30395   4.438   6.554   6.090 -0.6968  0.6212  0.1107
 9414SOL    HW130396   4.471   6.516   6.009 -0.6064  0.4807  0.2119
 9414SOL    HW230397   4.345   6.532   6.092 -0.2819 -1.2930  1.0927
 9415SOL     OW30398   6.745   4.733   0.690  0.2620 -0.2417  0.0867
 9415SOL    HW130399   6.802   4.767   0.759  2.1788  1.7005 -2.2667
 9415SOL    HW230400   6.663   4.781   0.700  1.3061  1.7377 -0.2521
 9416SOL     OW30401   3.636   4.908   2.449  0.2451  0.3684  0.4349
 9416SOL    HW130402   3.682   4.905   2.366 -0.2417  0.2571  0.1651
 9416SOL    HW230403   3.546   4.885   2.428 -0.1445  1.4665  0.8002
 9417SOL     OW30404   6.434   3.277   5.473 -0.0538  0.3010  0.2424
 9417SOL    HW130405   6.490   3.354   5.468  1.7033 -0.9629 -0.8025
 9417SOL    HW230406   6.494   3.205   5.491 -1.2915 -1.1721 -1.1983
 9418SOL     OW30407   2.004   8.782   5.808  0.2572 -0.3642  0.0268
 9418SOL    HW130408   1.982   8.873   5.790  2.1997  0.2664  0.5973
 9418SOL    HW230409   2.050   8.752   5.730 -0.1451 -0.7887 -0.0552
 9419SOL     OW30410   7.349   8.208   7.190 -0.0731  0.2642 -0.6250
 9419SOL    HW130411   7.323   8.286   7.240  0.4536 -0.9457  1.6627
 9419SOL    HW230412   7.330   8.135   7.248  3.6218 -1.0504 -0.8042
 9420SOL     OW30413   2.472   5.557   1.559  0.1812  0.2624  0.2322
 9420SOL    HW130414   2.483   5.515   1.644  1.2870 -0.4023 -0.2070
 9420SOL    HW230415   2.465   5.650   1.578  0.6923  0.1455  1.0449
 9421SOL     OW30416   9.525   4.787   4.215 -0.3317  0.2115  0.1740
 9421SOL    HW130417   9.446   4.761   4.167  0.2897 -0.0074 -0.7599
 9421SOL    HW230418   9.578   4.833   4.150  0.9781 -0.9542  0.3640
 9422SOL     OW30419   8.606   7.409   6.171  0.2986  0.9457  0.3433
 9422SOL    HW130420   8.621   7.503   6.169 -2.9752  1.5602 -0.1022
 9422SOL    HW230421   8.570   7.388   6.085  0.6830 -0.6990  0.5370
 9423SOL     OW30422   4.253   6.668   6.837 -0.0659  1.2628 -0.4292
 9423SOL    HW130423   4.345   6.648   6.819 -0.0314  1.7718 -0.8729
 9423SOL    HW230424   4.207   6.639   6.758 -0.2482  1.2476 -0.3162
 9424SOL     OW30425   8.780   0.529   3.822  0.2437 -0.2040  0.3491
 9424SOL    HW130426   8.686   0.517   3.836  0.2899 -2.3328 -0.8151
 9424SOL    HW230427   8.797   0.494   3.735  2.1040  0.3232  0.4424
 9425SOL     OW30428   5.418   5.407   0.133  0.1227 -0.3558  0.4232
 9425SOL    HW130429   5.420   5.478   0.197  0.7509  0.3695 -0.3761
 9425SOL    HW230430   5.433   5.450   0.049  0.6464 -1.4520 -0.0626
 9426SOL     OW30431   8.652   5.717   3.351  0.0789 -0.1620  0.1065
 9426SOL    HW130432   8.626   5.758   3.434 -0.4309  0.7129 -0.4669
 9426SOL    HW230433   8.662   5.791   3.291  0.3393 -0.7992 -0.6408
 9427SOL     OW30434   7.153   8.270   8.208  0.1855 -0.6602 -0.1913
 9427SOL    HW130435   7.172   8.330   8.136  0.4472 -1.5309 -0.8604
 9427SOL    HW230436   7.090   8.208   8.172  0.6654 -1.3796  0.1820
 9428SOL     OW30437   8.743   4.844   9.055  0.4798 -0.1598  0.2003
 9428SOL    HW130438   8.671   4.847   8.992  1.5890  0.4026 -1.0906
 9428SOL    HW230439   8.710   4.890   9.132 -1.1601 -1.4713  0.3310
 9429SOL     OW30440   9.310   8.005   5.747 -0.4029  0.5811  0.2929
 9429SOL    HW130441   9.250   7.933   5.728  0.5621 -0.3965  0.8102
 9429SOL    HW230442   9.280   8.077   5.692 -1.9717  0.0889  0.4680
 9430SOL     OW30443   2.871   2.850   9.222 -0.0200 -0.0531 -0.5013
 9430SOL    HW130444   2.913   2.830   9.306 -1.7260  0.4628  0.5096
 9430SOL    HW230445   2.829   2.768   9.197 -1.8502  0.5085  0.5787
 9431SOL     OW30446   1.495   3.324   0.697 -0.2581 -0.2543 -0.0337
 9431SOL    HW130447   1.485   3.229   0.700  0.1065 -0.2755  0.5218
 9431SOL    HW230448   1.585   3.338   0.668 -0.2360 -0.0783  0.1166
 9432SOL     OW30449   9.228   6.387   9.601  0.5499  0.0933  0.3298
 9432SOL    HW130450   9.137   6.358   9.589  0.1951  1.7457 -1.5413
 9432SOL    HW230451   9.279   6.329   9.545  0.7852 -1.1438  1.7388
 9433SOL     OW30452   5.737   9.037   3.598  0.5866  0.7066  1.1044
 9433SOL    HW130453   5.707   8.984   3.672  0.7736 -1.0353  0.0089
 9433SOL    HW230454   5.657   9.056   3.549  0.5785  1.0684  1.2543
 9434SOL     OW30455   3.617   4.954   0.829 -0.1278 -0.0887 -0.1150
 9434SOL    HW130456   3.640   4.876   0.879 -0.5890  0.2803  0.6929
 9434SOL    HW230457   3.552   4.924   0.766  0.1349 -0.4779 -0.2008
 9435SOL     OW30458   6.347   8.868   4.450 -0.5087 -0.0916 -0.2869
 9435SOL    HW130459   6.277   8.831   4.503 -0.4481  1.0437  0.6450
 9435SOL    HW230460   6.422   8.811   4.467 -1.1955 -1.3644 -1.3593
 9436SOL     OW30461   4.577   0.749   0.235 -1.1420  0.4251 -0.0067
 9436SOL    HW130462   4.497   0.737   0.285  0.4473  1.3668  2.9757
 9436SOL    HW230463   4.575   0.840   0.207 -0.7828  0.6673  0.7379
 9437SOL     OW30464   7.974   2.612   5.106 -0.0834 -0.1531 -0.4284
 9437SOL    HW130465   7.908   2.558   5.063 -0.6851 -0.9614  1.4204
 9437SOL    HW230466   8.051   2.556   5.112  0.2088  0.1746 -0.9567
 9438SOL     OW30467   0.264   1.639   3.353 -0.0782 -0.2379 -0.2735
 9438SOL    HW130468   0.181   1.599   3.328  1.1108 -2.0340 -1.5670
 9438SOL    HW230469   0.246   1.682   3.437 -1.7735 -2.3685  0.5247
 9439SOL     OW30470   8.064   3.862   5.062  1.0721  0.1496  0.1747
 9439SOL    HW130471   8.146   3.910   5.057  1.6542 -0.9311 -1.6791
 9439SOL    HW230472   8.086   3.773   5.033 -0.5671 -0.4019  0.5072
 9440SOL     OW30473   4.362   6.357   8.775  0.7097  0.0852 -0.0482
 9440SOL    HW130474   4.403   6.443   8.763 -0.0001  0.3974 -0.3239
 9440SOL    HW230475   4.311   6.366   8.856  1.7498 -0.5324  0.6973
 9441SOL     OW30476   5.104   2.462   6.274 -0.2444 -0.0228 -0.2678
 9441SOL    HW130477   5.062   2.385   6.313 -0.6959  0.5359  0.3542
 9441SOL    HW230478   5.137   2.430   6.189  0.8167 -1.2699  0.5751
 9442SOL     OW30479   1.090   0.074   1.651  0.4250  0.0501 -0.0976
 9442SOL    HW130480   0.999   0.045   1.641  0.4275 -0.1531  0.4299
 9442SOL    HW230481   1.128   0.010   1.711  0.2744  1.4853  1.5786
 9443SOL     OW30482   5.111   3.668   9.508  0.1949  0.0972 -0.5660
 9443SOL    HW130483   5.019   3.662   9.534  0.1097 -2.0148 -1.1731
 9443SOL    HW230484   5.159   3.684   9.590 -0.5809 -0.2950 -0.0300
 9444SOL     OW30485   4.612   3.162   3.230  0.6482 -0.0611  0.7746
 9444SOL    HW130486   4.571   3.187   3.313 -1.3171 -1.0127  0.1635
 9444SOL    HW230487   4.680   3.228   3.215  0.2413  0.8104  2.5427
 9445SOL     OW30488   2.844   5.798   7.575  0.2024 -0.0145  0.2122
 9445SOL    HW130489   2.751   5.792   7.596  0.3888 -0.2751  0.9769
 9445SOL    HW230490   2.859   5.727   7.512 -0.3900  0.8756 -0.9889
 9446SOL     OW30491   4.889   5.960   4.078  0.3726 -0.4468  0.0937
 9446SOL    HW130492   4.815   6.020   4.066 -0.3596 -0.7062  2.7239
 9446SOL    HW230493   4.849   5.873   4.077  1.2267 -0.8730 -2.2283
 9447SOL     OW30494   5.020   1.196   3.823 -0.3267  0.2997 -0.4931
 9447SOL    HW130495   4.997   1.115   3.869  1.0244 -0.2417 -0.7275
 9447SOL    HW230496   4.963   1.262   3.862 -0.2927 -0.4411  0.8809
 9448SOL     OW30497   4.839   2.543   1.203 -0.0101  0.3459 -0.5222
 9448SOL    HW130498   4.806   2.591   1.279 -1.1378  1.7911 -1.8499
 9448SOL    HW230499   4.821   2.451   1.223  1.5313  0.4606  1.7714
 9449SOL     OW30500   6.621   3.460   2.250  0.5742  0.8379 -0.1067
 9449SOL    HW130501   6.579   3.546   2.252  1.1828  1.1347  0.3289
 9449SOL    HW230502   6.562   3.403   2.300  0.1695  1.0012 -0.3990
 9450SOL     OW30503   1.315   1.098   6.711 -0.1190  0.1569 -0.0559
 9450SOL    HW130504   1.386   1.078   6.772  1.4123 -2.0276 -2.3265
 9450SOL    HW230505   1.340   1.182   6.671 -0.3234  0.8002  1.1266
 9451SOL     OW30506   5.363   7.454   5.454  0.3378 -0.3392 -0.3365
 9451SOL    HW130507   5.322   7.378   5.413  1.0665 -0.9439  0.0417
 9451SOL    HW230508   5.342   7.447   5.547 -0.6179  0.5947 -0.4497
 9452SOL     OW30509   0.281   4.855   4.815  0.1265  0.3619  0.4247
 9452SOL    HW130510   0.288   4.759   4.815  0.6765  0.4004 -0.0010
 9452SOL    HW230511   0.213   4.873   4.750 -0.9219  0.2096  1.4335
 9453SOL     OW30512   7.190   1.512   7.821 -0.3432  0.7761 -0.2474
 9453SOL    HW130513   7.163   1.446   7.757 -1.4916 -0.3083  1.2732
 9453SOL    HW230514   7.208   1.590   7.769  1.7491 -0.8750 -2.2058
 9454SOL     OW30515   9.042   1.738   8.788  0.2111 -0.1812  0.3113
 9454SOL    HW130516   9.005   1.814   8.834 -0.4433 -0.7238  0.7047
 9454SOL    HW230517   9.006   1.662   8.836  3.1693 -0.7610  1.8316
 9455SOL     OW30518   2.951   6.805   3.544  0.0332  0.9062  0.1775
 9455SOL    HW130519   2.954   6.711   3.523  1.2627  1.0397 -0.3014
 9455SOL    HW230520   2.978   6.848   3.463 -1.6524  1.7507  0.0248
 9456SOL     OW30521   7.068   4.999   7.467  0.1490 -0.1577  0.4337
 9456SOL    HW130522   7.011   4.958   7.532  0.7474 -1.8070 -0.0350
 9456SOL    HW230523   7.129   4.930   7.442  1.5129  1.1867 -0.0541
 9457SOL     OW30524   8.262   5.875   4.615  0.1559  0.3227  0.0874
 9457SOL    HW130525   8.292   5.851   4.527  0.9668  1.3935  0.0446
 9457SOL    HW230526   8.321   5.945   4.642  0.3392 -0.4304  1.7717
 9458SOL     OW30527   8.574   6.648   4.536  0.8533 -0.7505 -0.0837
 9458SOL    HW130528   8.574   6.707   4.611 -0.0700  1.6869 -1.8694
 9458SOL    HW230529   8.518   6.575   4.562  1.3643 -0.4948  1.9065
 9459SOL     OW30530   5.094   4.696   6.250  0.0746  0.6058 -0.0575
 9459SOL    HW130531   5.076   4.786   6.220  1.4040  0.2901 -1.9633
 9459SOL    HW230532   5.083   4.700   6.345 -1.1226  2.4843 -0.2284
 9460SOL     OW30533   3.480   3.373   8.907  0.2125 -0.2941 -0.3177
 9460SOL    HW130534   3.429   3.353   8.829  0.8391 -1.0432 -0.5481
 9460SOL    HW230535   3.532   3.294   8.923  2.0307  0.7651 -0.6849
 9461SOL     OW30536   6.282   2.353   7.009 -0.1794  0.1247 -0.2971
 9461SOL    HW130537   6.204   2.300   7.025  0.9685 -2.1464 -1.6776
 9461SOL    HW230538   6.348   2.318   7.068 -0.0698  1.8541  0.6772
 9462SOL     OW30539   8.980   6.435   8.045 -0.6039 -0.4814 -0.0912
 9462SOL    HW130540   9.023   6.486   7.977  0.5079 -1.3841 -0.0958
 9462SOL    HW230541   8.890   6.427   8.016 -0.7817  1.3593 -0.1461
 9463SOL     OW30542   1.998   0.203   9.065 -1.0617 -0.3005  0.3158
 9463SOL    HW130543   2.044   0.130   9.026 -1.7437 -0.8160  0.4618
 9463SOL    HW230544   2.054   0.279   9.048  0.3327 -1.0488  1.3505
 9464SOL     OW30545   5.589   8.308   5.715  0.2162  0.0772  0.1804
 9464SOL    HW130546   5.518   8.264   5.762 -0.6539  2.3032  1.0866
 9464SOL    HW230547   5.564   8.301   5.623  0.1547 -1.3368  0.2835
 9465SOL     OW30548   7.252   0.243   2.563 -0.4880  0.1939 -0.3328
 9465SOL    HW130549   7.283   0.271   2.476 -0.7510 -0.0652 -0.5132
 9465SOL    HW230550   7.167   0.285   2.573 -1.4899 -1.5300 -1.1610
 9466SOL     OW30551   5.925   6.361   4.041  0.1592 -0.1117 -0.1126
 9466SOL    HW130552   6.008   6.376   3.995  0.8947  0.4205  1.3330
 9466SOL    HW230553   5.895   6.448   4.066  0.0626 -0.4233  0.8921
 9467SOL     OW30554   4.452   3.298   4.807  0.1673  0.2915 -0.3106
 9467SOL    HW130555   4.524   3.357   4.784  1.4252 -0.5456  1.2853
 9467SOL    HW230556   4.429   3.322   4.896 -0.4917 -0.4804 -0.2611
 9468SOL     OW30557   6.868   6.339   3.122 -0.2694  0.4740  0.5995
 9468SOL    HW130558   6.804   6.279   3.084  0.7657 -0.7610  0.7279
 9468SOL    HW230559   6.924   6.283   3.176  0.1371  1.7259  1.5091
 9469SOL     OW30560   8.065   8.412   2.908  0.1606 -0.2824 -0.0325
 9469SOL    HW130561   8.044   8.497   2.869 -1.8313 -0.8439 -0.2590
 9469SOL    HW230562   8.156   8.421   2.937  1.2986  0.6570 -3.4434
 9470SOL     OW30563   7.002   7.493   0.695  0.0899 -0.6328  0.2396
 9470SOL    HW130564   7.084   7.544   0.692 -0.3493  0.0724  0.1105
 9470SOL    HW230565   6.966   7.500   0.607 -0.8735  0.3359  0.6946
 9471SOL     OW30566   0.404   3.694   3.490 -0.2180  0.2810 -0.3461
 9471SOL    HW130567   0.365   3.618   3.446  2.7450 -1.4205 -0.3023
 9471SOL    HW230568   0.447   3.743   3.420 -1.4386  1.5346 -0.2537
 9472SOL     OW30569   0.056   2.826   0.692  0.0244  0.2090  0.4326
 9472SOL    HW130570   0.142   2.816   0.651 -0.1811  0.9840 -0.2116
 9472SOL    HW230571   0.027   2.736   0.709  0.1075 -0.1477 -1.1773
 9473SOL     OW30572   1.882   2.354   1.569 -0.1581  0.3352 -0.1452
 9473SOL    HW130573   1.946   2.328   1.635 -0.8480 -1.4985 -0.1510
 9473SOL    HW230574   1.801   2.366   1.617 -0.5209 -0.4069 -0.5514
 9474SOL     OW30575   7.596   6.568   7.871  0.1968  0.2456 -0.4538
 9474SOL    HW130576   7.607   6.574   7.966  2.7229 -0.4291 -0.6212
 9474SOL    HW230577   7.583   6.659   7.843 -3.4657  0.2490  0.6849
 9475SOL     OW30578   0.321   7.508   1.275 -0.0661  0.0307 -0.2368
 9475SOL    HW130579   0.285   7.562   1.346 -0.0465  1.3833 -1.2105
 9475SOL    HW230580   0.268   7.429   1.275 -1.2717  0.8114  0.1110
 9476SOL     OW30581   1.053   4.567   7.679  0.2388  0.2392  0.2318
 9476SOL    HW130582   1.101   4.494   7.719  1.6487 -0.2247 -2.1379
 9476SOL    HW230583   0.971   4.572   7.730  0.5315 -2.3270  1.1045
 9477SOL     OW30584   0.593   7.706   8.208  0.0555 -0.3113 -0.5124
 9477SOL    HW130585   0.635   7.719   8.293 -0.9214 -0.4453  0.0021
 9477SOL    HW230586   0.643   7.763   8.149 -0.4390  1.2760  0.5307
 9478SOL     OW30587   1.663   1.642   3.869 -0.1727  0.3058 -0.1919
 9478SOL    HW130588   1.680   1.557   3.827  0.7559  1.7361 -2.9385
 9478SOL    HW230589   1.579   1.630   3.914  0.8039 -2.5719  1.1234
 9479SOL     OW30590   6.676   8.044   1.335  0.0875 -0.2290 -0.5308
 9479SOL    HW130591   6.754   8.022   1.284 -0.8599  1.0403 -2.6849
 9479SOL    HW230592   6.603   8.012   1.282 -0.9216 -0.2469  0.8098
 9480SOL     OW30593   3.750   9.257   6.040  0.1704  0.4865 -0.4305
 9480SOL    HW130594   3.686   9.214   5.984 -1.6446  2.3552  0.1023
 9480SOL    HW230595   3.791   9.322   5.984  0.1041  0.7045 -0.2279
 9481SOL     OW30596   2.253   1.532   0.363  0.2338  0.2708 -0.4348
 9481SOL    HW130597   2.172   1.504   0.320 -0.6334 -0.2527  1.4531
 9481SOL    HW230598   2.230   1.543   0.455  1.8855  1.8981 -0.1309
 9482SOL     OW30599   0.970   6.404   0.169  0.4038  0.6770 -0.2821
 9482SOL    HW130600   0.917   6.344   0.222  1.5352 -0.9531 -0.9208
 9482SOL    HW230601   0.908   6.469   0.138 -0.8179  0.0443  0.7123
 9483SOL     OW30602   9.515   9.591   7.268  0.2291 -0.2370  0.4648
 9483SOL    HW130603   9.511   9.653   7.195  1.9127  1.3154  1.6172
 9483SOL    HW230604   9.607   9.589   7.293 -0.0991 -1.7671  1.7039
 9484SOL     OW30605   4.359   5.907   2.400  0.2438 -0.9597 -0.6591
 9484SOL    HW130606   4.390   5.993   2.428  2.7328 -1.7321 -0.8355
 9484SOL    HW230607   4.341   5.860   2.481  4.5017 -2.1522 -0.1842
 9485SOL     OW30608   7.398   1.460   8.950 -0.2242 -0.3810  0.4410
 9485SOL    HW130609   7.438   1.374   8.937  0.5650  0.0215  0.1397
 9485SOL    HW230610   7.467   1.522   8.928 -0.8951  0.3370  0.3170
 9486SOL     OW30611   8.641   2.324   3.854  0.5817 -0.8321 -0.1153
 9486SOL    HW130612   8.596   2.271   3.919 -1.8088  0.3084 -0.7434
 9486SOL    HW230613   8.690   2.389   3.905 -1.3449  0.1150  0.6223
 9487SOL     OW30614   8.410   8.968   7.227  0.9308  0.0789  0.7202
 9487SOL    HW130615   8.496   8.993   7.194  0.2976  1.2338 -0.1303
 9487SOL    HW230616   8.401   8.875   7.204  0.9917  0.5505 -1.3723
 9488SOL     OW30617   1.271   1.780   7.162  0.0315  0.1003  0.0980
 9488SOL    HW130618   1.344   1.803   7.220 -0.9132  0.4246  1.2073
 9488SOL    HW230619   1.229   1.706   7.205 -2.4369  2.1366  1.4936
 9489SOL     OW30620   8.798   4.044   6.169 -0.4618  0.4857  0.0061
 9489SOL    HW130621   8.867   4.082   6.224  0.0937 -1.2795  0.6036
 9489SOL    HW230622   8.843   4.023   6.087 -0.5186  0.2022  0.0481
 9490SOL     OW30623   6.388   5.651   1.590 -0.7889 -0.3846 -0.1783
 9490SOL    HW130624   6.388   5.684   1.679 -0.4013 -0.3425 -0.1919
 9490SOL    HW230625   6.364   5.727   1.536  0.1169 -0.1028 -0.2114
 9491SOL     OW30626   0.215   8.438   6.097 -0.2475  0.2072  0.5805
 9491SOL    HW130627   0.221   8.456   6.191  0.5771  0.0069  0.5704
 9491SOL    HW230628   0.217   8.342   6.091  0.9535  0.2373  0.2904
 9492SOL     OW30629   8.512   6.602   7.873  0.0445 -0.0768 -0.0657
 9492SOL    HW130630   8.469   6.648   7.945 -0.8115  1.3368 -1.3995
 9492SOL    HW230631   8.503   6.662   7.799  3.3460 -0.1877 -0.7254
 9493SOL     OW30632   8.738   6.759   1.036  0.0414 -0.0015 -0.2228
 9493SOL    HW130633   8.782   6.813   1.102  1.1769 -0.9167 -0.2029
 9493SOL    HW230634   8.809   6.720   0.986 -0.7105 -2.2521  0.3722
 9494SOL     OW30635   2.172   0.209   9.355  0.2008  0.2365 -0.0220
 9494SOL    HW130636   2.234   0.189   9.285 -0.4310  0.0677 -0.5396
 9494SOL    HW230637   2.095   0.245   9.310 -1.2140 -2.1645  0.3162
 9495SOL     OW30638   3.094   5.381   6.823  0.4457 -0.2182  0.4306
 9495SOL    HW130639   3.033   5.309   6.809  0.4681 -0.0187 -0.8193
 9495SOL    HW230640   3.147   5.384   6.743  1.8421 -0.1385  1.3134
 9496SOL     OW30641   8.806   9.593   5.739 -0.2080 -0.0642 -0.0137
 9496SOL    HW130642   8.772   9.609   5.827 -0.1440 -1.3242  0.2589
 9496SOL    HW230643   8.874   9.527   5.752 -0.0018 -0.0460 -0.9791
 9497SOL     OW30644   3.357   1.669   4.993  0.2380  0.3624  0.1826
 9497SOL    HW130645   3.378   1.715   4.912 -1.4551 -1.5185 -1.4206
 9497SOL    HW230646   3.371   1.577   4.972 -2.4021 -0.3650  1.2795
 9498SOL     OW30647   8.989   3.325   5.365  0.1442 -0.1165 -0.4523
 9498SOL    HW130648   9.077   3.361   5.350 -0.0178  0.4560 -0.0741
 9498SOL    HW230649   8.950   3.319   5.278  1.4295 -2.7497 -0.9470
 9499SOL     OW30650   3.143   6.979   2.305 -0.4926  0.0584  0.1012
 9499SOL    HW130651   3.132   6.904   2.246 -2.9280  0.0031  0.5183
 9499SOL    HW230652   3.102   6.951   2.387  1.3009  0.7769  1.3054
 9500SOL     OW30653   1.361   2.027   8.383  0.0129  0.5697 -0.0881
 9500SOL    HW130654   1.287   1.966   8.386 -0.8974  1.6571 -0.0686
 9500SOL    HW230655   1.435   1.976   8.416 -0.6427 -0.6462 -0.4370
 9501SOL     OW30656   8.153   6.743   3.141  0.0886  0.4568  0.3294
 9501SOL    HW130657   8.058   6.739   3.149  0.0811  1.7195  1.1774
 9501SOL    HW230658   8.172   6.699   3.058 -1.4304  2.1887 -1.0254
 9502SOL     OW30659   2.119   5.904   3.971 -0.1685 -0.0973 -0.3763
 9502SOL    HW130660   2.065   5.968   3.924 -0.6551  0.4041  0.8301
 9502SOL    HW230661   2.139   5.946   4.055  2.2151 -0.2118 -0.8112
 9503SOL     OW30662   7.668   5.565   7.370  0.0047  0.3105 -0.4595
 9503SOL    HW130663   7.724   5.553   7.293  1.2262  1.7370  0.1619
 9503SOL    HW230664   7.579   5.553   7.337  0.4922  1.0336 -2.1468
 9504SOL     OW30665   9.055   6.684   8.235  0.6876  0.0029 -0.0586
 9504SOL    HW130666   9.061   6.589   8.222  0.0205 -0.1041  0.3524
 9504SOL    HW230667   8.982   6.711   8.180  0.4961  0.1876  0.2820
 9505SOL     OW30668   4.197   5.875   0.272  0.0388 -0.3917  0.2633
 9505SOL    HW130669   4.165   5.892   0.183  0.9782  0.4334  0.0696
 9505SOL    HW230670   4.164   5.948   0.324  1.0458  0.1218  0.1932
 9506SOL     OW30671   4.793   1.847   0.195 -0.3138 -0.5940 -0.6916
 9506SOL    HW130672   4.865   1.848   0.258 -1.0191  0.8431  0.1661
 9506SOL    HW230673   4.827   1.800   0.119  0.6873 -2.0586  0.6149
 9507SOL     OW30674   2.593   1.380   8.707 -0.1635 -0.0870  0.5529
 9507SOL    HW130675   2.525   1.433   8.748 -1.4544 -1.0974 -0.1972
 9507SOL    HW230676   2.660   1.369   8.774  0.1607  2.4680  0.7324
 9508SOL     OW30677   2.634   8.178   8.701  0.9466 -0.1556  0.4487
 9508SOL    HW130678   2.626   8.113   8.771  1.4503  1.6020  2.2247
 9508SOL    HW230679   2.727   8.179   8.679  0.8656 -0.3655  0.0969
 9509SOL     OW30680   8.929   2.363   5.336 -0.1003  0.1278  0.2015
 9509SOL    HW130681   9.004   2.345   5.278 -0.9533 -2.4057 -0.2061
 9509SOL    HW230682   8.961   2.343   5.424 -0.0834 -0.1937  0.1209
 9510SOL     OW30683   4.627   3.438   7.408  0.3669  0.0318 -0.2921
 9510SOL    HW130684   4.634   3.452   7.313  1.9089  1.1187 -0.0499
 9510SOL    HW230685   4.697   3.492   7.445 -0.7169  0.2501  1.5333
 9511SOL     OW30686   3.427   3.287   8.409 -0.3741 -0.4015 -0.2386
 9511SOL    HW130687   3.418   3.298   8.503 -0.0742 -0.1618 -0.2381
 9511SOL    HW230688   3.431   3.192   8.396  3.6639 -0.4580  0.3848
 9512SOL     OW30689   6.543   0.836   6.788  0.0011  0.2288 -0.7566
 9512SOL    HW130690   6.514   0.834   6.697  3.5546 -1.4243 -2.0302
 9512SOL    HW230691   6.568   0.927   6.804  1.8590  0.0606 -2.4102
 9513SOL     OW30692   8.594   6.469   6.547 -0.3302  0.3355 -0.3555
 9513SOL    HW130693   8.531   6.399   6.564 -1.2177  0.9119 -1.1724
 9513SOL    HW230694   8.540   6.546   6.531  0.6248  1.0952  0.0212
 9514SOL     OW30695   4.274   1.292   6.561 -0.3469  0.5456 -0.2980
 9514SOL    HW130696   4.243   1.288   6.651  1.0242  0.9650  0.2080
 9514SOL    HW230697   4.335   1.365   6.559  0.5935 -0.2228 -1.2661
 9515SOL     OW30698   5.595   3.487   8.726 -0.0003 -0.0487 -0.1070
 9515SOL    HW130699   5.650   3.410   8.711 -0.6085 -0.6783  0.8160
 9515SOL    HW230700   5.539   3.492   8.648  1.0548  0.3569 -0.8604
 9516SOL     OW30701   5.351   8.883   3.383 -0.4664  0.2892  0.0310
 9516SOL    HW130702   5.386   8.813   3.437  0.7560 -0.7899 -2.0391
 9516SOL    HW230703   5.426   8.913   3.331 -1.5184  1.4632 -0.8662
 9517SOL     OW30704   4.314   0.698   8.899  0.5634  0.9435  0.7285
 9517SOL    HW130705   4.275   0.694   8.811  0.7399  1.2633  0.6357
 9517SOL    HW230706   4.403   0.664   8.888  0.8854  1.8146  0.6099
 9518SOL     OW30707   0.836   9.631   6.630 -0.0795 -0.4009  0.2859
 9518SOL    HW130708   0.873   9.620   6.717 -1.6145 -0.6408  0.9337
 9518SOL    HW230709   0.745   9.659   6.645  0.2067  1.6186 -1.2372
 9519SOL     OW30710   0.259   3.100   1.017  0.2817 -0.0319 -0.2086
 9519SOL    HW130711   0.182   3.157   1.012  0.8226  0.7472  0.1473
 9519SOL    HW230712   0.237   3.036   1.084  0.1711  0.5559  0.3274
 9520SOL     OW30713   7.970   2.726   9.622 -0.0801  0.2536  0.4338
 9520SOL    HW130714   7.964   2.723   9.718  0.8717  1.3684  0.5439
 9520SOL    HW230715   7.955   2.818   9.600  0.4680  0.1424 -0.4386
 9521SOL     OW30716   7.179   4.667   3.066 -0.1194  0.3800  0.0201
 9521SOL    HW130717   7.274   4.653   3.066 -0.2013 -0.2596 -0.7087
 9521SOL    HW230718   7.167   4.753   3.026  0.2275  1.2281  1.6461
 9522SOL     OW30719   5.586   3.222   3.649  0.2556 -0.4922 -0.1256
 9522SOL    HW130720   5.671   3.194   3.682  0.8123 -0.8233 -1.7477
 9522SOL    HW230721   5.530   3.144   3.658 -0.0241 -0.1565  1.3126
 9523SOL     OW30722   8.748   2.167   3.657  0.0827  0.1486 -0.3622
 9523SOL    HW130723   8.711   2.209   3.735 -1.0945 -1.4564 -0.0064
 9523SOL    HW230724   8.710   2.080   3.656  0.8304 -0.2130 -2.2199
 9524SOL     OW30725   1.774   9.634   8.243  0.0020 -0.0829 -0.4280
 9524SOL    HW130726   1.705   9.569   8.259  0.4570 -0.4475  0.0796
 9524SOL    HW230727   1.781   9.637   8.147 -0.8722  0.1250 -0.4933
 9525SOL     OW30728   2.849   7.193   7.286 -0.1151  0.6672  0.3321
 9525SOL    HW130729   2.818   7.111   7.323 -2.0985  1.2041 -0.0087
 9525SOL    HW230730   2.769   7.241   7.264  0.9293  3.0545  1.3168
 9526SOL     OW30731   0.368   0.867   9.028  0.9334 -0.0201  0.1202
 9526SOL    HW130732   0.337   0.782   9.058  3.0466 -1.5800 -1.7288
 9526SOL    HW230733   0.461   0.869   9.053  0.6199  2.4020  1.3653
 9527SOL     OW30734   1.694   5.078   9.330  0.2008  0.4533 -0.0955
 9527SOL    HW130735   1.715   4.986   9.343  1.7392  0.6312 -1.0268
 9527SOL    HW230736   1.602   5.086   9.355  0.7976 -0.7056  2.8086
 9528SOL     OW30737   7.730   4.370   2.862 -1.1652  0.4615  0.0749
 9528SOL    HW130738   7.707   4.278   2.873 -1.1769  0.5765  1.0344
 9528SOL    HW230739   7.692   4.393   2.777  0.1098 -0.7992 -0.8772
 9529SOL     OW30740   2.482   4.477   0.748  0.0221 -0.2828 -0.0415
 9529SOL    HW130741   2.577   4.488   0.745 -0.0227  0.5502  0.9174
 9529SOL    HW230742   2.456   4.468   0.657  1.1657 -1.9866 -0.2328
 9530SOL     OW30743   5.638   0.323   7.598 -0.4555  0.3238 -0.5760
 9530SOL    HW130744   5.629   0.415   7.620 -2.5606  0.1290 -0.4272
 9530SOL    HW230745   5.598   0.315   7.511 -0.7726 -0.5144 -0.3660
 9531SOL     OW30746   9.128   3.191   1.443 -0.1076  0.4177 -0.7843
 9531SOL    HW130747   9.195   3.179   1.510  0.4577 -1.1110 -1.5758
 9531SOL    HW230748   9.173   3.177   1.360 -1.1547  0.5662 -1.4018
 9532SOL     OW30749   9.268   0.934   5.272 -0.1468 -0.4663  0.1028
 9532SOL    HW130750   9.308   0.852   5.302  3.2424  0.3667 -1.6167
 9532SOL    HW230751   9.227   0.912   5.189  0.0315 -0.6176  0.0536
 9533SOL     OW30752   7.004   0.291   8.042  0.3469  0.2168 -0.8340
 9533SOL    HW130753   7.012   0.263   8.134  1.2881  0.2146 -0.9141
 9533SOL    HW230754   6.941   0.363   8.045  1.1430  0.9062 -0.0364
 9534SOL     OW30755   5.938   8.904   8.799 -0.0530  0.0197  0.4823
 9534SOL    HW130756   5.857   8.909   8.851 -0.1093  0.0804  0.3885
 9534SOL    HW230757   5.982   8.987   8.817 -0.4791  0.4120 -0.2365
 9535SOL     OW30758   2.998   9.410   2.610 -0.3578  0.1838 -0.1617
 9535SOL    HW130759   3.009   9.480   2.674 -0.3348 -0.7039  0.8454
 9535SOL    HW230760   3.085   9.369   2.604 -0.6529 -0.5219  0.2005
 9536SOL     OW30761   8.732   2.446   5.863  0.3284 -0.8433 -0.3898
 9536SOL    HW130762   8.659   2.398   5.824  0.1104 -1.7987  1.1113
 9536SOL    HW230763   8.721   2.536   5.832  0.5645 -1.6365 -3.0211
 9537SOL     OW30764   8.493   2.065   5.653 -0.0280 -0.2775  0.1346
 9537SOL    HW130765   8.500   2.049   5.559 -1.3671 -0.2304 -0.0008
 9537SOL    HW230766   8.493   1.978   5.692  1.3966 -0.2719  0.1826
 9538SOL     OW30767   6.136   9.058   4.291  0.2278  0.0029 -0.3241
 9538SOL    HW130768   6.167   8.993   4.229  0.1874 -1.4802  1.1604
 9538SOL    HW230769   6.194   9.050   4.366 -0.5959  0.7683  0.4191
 9539SOL     OW30770   5.691   0.853   4.085  0.2923  0.4319 -0.1328
 9539SOL    HW130771   5.695   0.936   4.131  1.2402  0.5912 -0.4890
 9539SOL    HW230772   5.661   0.790   4.151  0.8794  0.8047  0.4974
 9540SOL     OW30773   9.365   7.990   2.246 -0.4148 -0.3615 -0.3211
 9540SOL    HW130774   9.417   7.921   2.289 -0.5375  0.1277  0.6390
 9540SOL    HW230775   9.429   8.057   2.222 -0.6187  0.4319  1.2366
 9541SOL     OW30776   0.721   5.293   1.675 -0.3619 -0.7119  0.3500
 9541SOL    HW130777   0.640   5.337   1.700 -0.0458 -0.8308  1.7217
 9541SOL    HW230778   0.706   5.263   1.586 -0.4120  2.5618 -0.8621
 9542SOL     OW30779   1.917   6.413   1.543  0.0182 -0.3473 -0.6688
 9542SOL    HW130780   1.896   6.337   1.598  0.5832  0.4754  0.7613
 9542SOL    HW230781   1.920   6.486   1.605  1.4289  0.5090 -1.7001
 9543SOL     OW30782   5.663   5.656   2.560 -0.1978 -0.3907 -0.1223
 9543SOL    HW130783   5.581   5.685   2.520 -0.4890  0.6499  1.1718
 9543SOL    HW230784   5.679   5.718   2.631  0.4624 -1.9622  1.1761
 9544SOL     OW30785   0.859   3.702   0.587 -0.1920  0.1336  0.2134
 9544SOL    HW130786   0.918   3.702   0.663  0.4955  1.1036 -0.3030
 9544SOL    HW230787   0.842   3.609   0.571 -1.8509 -0.0938  2.6611
 9545SOL     OW30788   0.348   2.478   6.692  0.1294 -0.0189 -0.0492
 9545SOL    HW130789   0.281   2.413   6.673 -1.1382  0.5919  1.9841
 9545SOL    HW230790   0.428   2.442   6.654 -0.8792 -1.8928 -0.5275
 9546SOL     OW30791   9.395   5.653   5.794 -0.1292 -0.3266  0.1907
 9546SOL    HW130792   9.304   5.646   5.822  0.2007  2.3250  2.3154
 9546SOL    HW230793   9.442   5.684   5.871  2.9275 -2.9850 -0.3815
 9547SOL     OW30794   5.541   6.246   7.327 -0.1678  0.2098  0.2898
 9547SOL    HW130795   5.488   6.194   7.387 -0.4305 -1.4994 -1.3298
 9547SOL    HW230796   5.627   6.205   7.329 -0.0765  0.3638 -0.2315
 9548SOL     OW30797   4.193   5.280   8.765  0.3431 -0.0957  0.1188
 9548SOL    HW130798   4.269   5.280   8.823  0.8548  1.2224 -0.5060
 9548SOL    HW230799   4.222   5.327   8.687 -0.8038 -0.4813 -0.5695
 9549SOL     OW30800   6.452   6.019   4.463 -0.0224  0.1975 -0.3480
 9549SOL    HW130801   6.545   6.010   4.483 -0.4301 -1.0200  1.2120
 9549SOL    HW230802   6.411   5.944   4.507 -1.6572  0.3110 -1.6086
 9550SOL     OW30803   5.706   2.165   4.991  0.0868 -0.5739  0.2302
 9550SOL    HW130804   5.786   2.183   5.039  0.8053  1.3692 -1.5571
 9550SOL    HW230805   5.728   2.088   4.937 -0.2253 -1.7814  1.7408
 9551SOL     OW30806   5.719   5.623   5.740  0.0632  0.1756 -0.2341
 9551SOL    HW130807   5.770   5.657   5.813  0.6551  0.2111 -0.6627
 9551SOL    HW230808   5.700   5.700   5.686 -1.7885  0.4457  0.7088
 9552SOL     OW30809   4.211   4.081   1.184  0.3035 -0.1679  0.4252
 9552SOL    HW130810   4.128   4.129   1.173  0.4908 -0.0506 -0.5165
 9552SOL    HW230811   4.279   4.147   1.173  0.5416 -0.3440  0.7957
 9553SOL     OW30812   5.879   5.053   3.191 -0.1116 -0.1794  0.4518
 9553SOL    HW130813   5.955   5.106   3.168  0.3427 -0.1107  2.0219
 9553SOL    HW230814   5.804   5.104   3.159  0.4732 -0.5445 -1.6844
 9554SOL     OW30815   3.439   9.106   0.968 -0.2561  0.2908 -0.2398
 9554SOL    HW130816   3.429   9.179   0.907 -0.8713  1.7402  1.4868
 9554SOL    HW230817   3.392   9.135   1.047 -1.6378 -2.5334  0.0880
 9555SOL     OW30818   1.926   7.585   6.509 -0.0508 -0.0442  0.1200
 9555SOL    HW130819   2.009   7.592   6.463 -1.3412  0.0840 -2.3959
 9555SOL    HW230820   1.935   7.506   6.563  1.0626 -1.1795 -1.6046
 9556SOL     OW30821   9.074   7.065   2.028 -0.0554 -0.0172 -0.3869
 9556SOL    HW130822   9.061   7.133   1.963 -1.7382  0.5912  0.5281
 9556SOL    HW230823   9.045   7.104   2.110  2.1635 -0.6912  0.8062
 9557SOL     OW30824   8.330   8.172   5.891 -0.5226 -0.1852 -0.2191
 9557SOL    HW130825   8.338   8.219   5.808  1.5707 -0.2403 -0.1170
 9557SOL    HW230826   8.396   8.103   5.885  0.3812  0.4195  1.8558
 9558SOL     OW30827   3.954   9.611   7.700  0.0467  0.0590 -0.5983
 9558SOL    HW130828   4.019   9.554   7.658 -0.6377 -1.8398  0.7673
 9558SOL    HW230829   3.876   9.602   7.645  0.1638  0.3212 -0.8129
 9559SOL     OW30830   6.461   3.719   3.531  0.7248 -1.0927  0.1904
 9559SOL    HW130831   6.538   3.772   3.511 -1.7815  2.4538 -0.9640
 9559SOL    HW230832   6.441   3.738   3.623  0.7093 -1.3798  0.2502
 9560SOL     OW30833   5.994   3.941   4.675  0.0396 -0.0306 -0.3360
 9560SOL    HW130834   6.084   3.913   4.656  0.3067  1.2677 -1.1211
 9560SOL    HW230835   5.947   3.860   4.693  1.1342 -0.8289 -0.9435
 9561SOL     OW30836   9.278   7.025   1.102 -0.2813 -0.5212  0.1695
 9561SOL    HW130837   9.332   7.009   1.179  1.1910 -0.2923 -0.7891
 9561SOL    HW230838   9.201   6.970   1.115  0.5052 -1.4130  1.2077
 9562SOL     OW30839   3.660   4.244   3.665 -0.2427 -0.1386  0.2600
 9562SOL    HW130840   3.574   4.276   3.637  0.1404  1.3530  0.7176
 9562SOL    HW230841   3.703   4.215   3.585  0.6214  3.5145 -0.7513
 9563SOL     OW30842   8.422   2.317   0.109  0.5197 -0.2008  0.3350
 9563SOL    HW130843   8.506   2.332   0.152  0.7713  3.5513 -1.0696
 9563SOL    HW230844   8.439   2.334   0.016 -1.4066 -1.4045 -0.2994
 9564SOL     OW30845   9.517   5.349   2.769 -0.0923 -0.3229  0.0234
 9564SOL    HW130846   9.586   5.414   2.756  1.4011 -1.8312  0.1112
 9564SOL    HW230847   9.496   5.356   2.863  0.3954 -0.2929  0.1344
 9565SOL     OW30848   4.620   2.537   2.074 -0.2837  0.7707  0.1734
 9565SOL    HW130849   4.613   2.632   2.061  1.1041  0.8223 -0.3473
 9565SOL    HW230850   4.664   2.505   1.995 -1.5660 -0.4472 -0.0688
 9566SOL     OW30851   2.397   9.253   2.597  0.8256  0.0120  0.0831
 9566SOL    HW130852   2.352   9.213   2.523  1.5439  0.5704 -0.6646
 9566SOL    HW230853   2.354   9.337   2.609  1.5274  0.4739 -0.5258
 9567SOL     OW30854   6.744   0.874   7.730  0.1836 -0.5279 -0.3315
 9567SOL    HW130855   6.795   0.953   7.716  0.5538 -1.0419 -2.1572
 9567SOL    HW230856   6.659   0.892   7.691 -0.4088 -0.3478  1.0083
 9568SOL     OW30857   7.314   6.463   5.920 -0.3205 -0.6599  0.3169
 9568SOL    HW130858   7.264   6.520   5.979 -0.0307 -0.9221  0.8182
 9568SOL    HW230859   7.259   6.456   5.842 -2.3294 -3.0178  1.8037
 9569SOL     OW30860   3.047   6.364   1.153  0.4672 -0.3308 -0.4553
 9569SOL    HW130861   3.023   6.423   1.081  0.2095  0.4228  0.2362
 9569SOL    HW230862   3.000   6.283   1.134  0.1431 -0.0321 -0.9659
 9570SOL     OW30863   0.319   3.843   7.643 -0.7125  0.0525  0.2069
 9570SOL    HW130864   0.282   3.783   7.708  1.0794 -0.1598  1.1052
 9570SOL    HW230865   0.342   3.921   7.693 -0.1445  0.2490 -0.3431
 9571SOL     OW30866   5.532   8.147   3.540  0.3404 -0.2288  0.4736
 9571SOL    HW130867   5.553   8.182   3.627  0.0827  0.9610  0.0784
 9571SOL    HW230868   5.436   8.141   3.539  0.2434  0.9945 -0.1523
 9572SOL     OW30869   0.736   9.519   4.990  0.0743 -0.2425 -0.2081
 9572SOL    HW130870   0.782   9.463   5.053 -1.8223 -2.0607 -0.3391
 9572SOL    HW230871   0.643   9.504   5.007 -0.5149 -0.4293 -3.1095
 9573SOL     OW30872   8.090   2.050   5.972  0.0460 -1.1321  0.0591
 9573SOL    HW130873   8.181   2.032   5.948  0.4887  0.0408  0.7551
 9573SOL    HW230874   8.052   2.091   5.894  0.5954 -0.1474  0.2911
 9574SOL     OW30875   4.501   9.582   5.530 -0.0346  0.1819  0.3849
 9574SOL    HW130876   4.435   9.643   5.564  1.2153  0.5021  2.4330
 9574SOL    HW230877   4.453   9.501   5.515 -1.0658  0.6543  0.9972
 9575SOL     OW30878   1.903   5.890   5.128  0.0561 -0.2628 -0.0671
 9575SOL    HW130879   1.966   5.817   5.132 -0.6389 -0.8854 -0.2900
 9575SOL    HW230880   1.940   5.956   5.186  1.5112 -0.1437 -1.0684
 9576SOL     OW30881   8.135   5.605   6.051  0.5046  0.4242 -0.2527
 9576SOL    HW130882   8.197   5.630   5.983  1.7989  1.3865  1.1848
 9576SOL    HW230883   8.161   5.516   6.077  0.3626  0.2721 -0.6343
 9577SOL     OW30884   0.109   2.271   3.059  0.0208 -0.0480  0.2169
 9577SOL    HW130885   0.137   2.181   3.047 -0.8537 -0.4179  0.8802
 9577SOL    HW230886   0.014   2.269   3.050 -0.1054  0.6441  1.1453
 9578SOL     OW30887   2.588   6.847   2.884 -0.0588  0.3133 -0.2709
 9578SOL    HW130888   2.548   6.760   2.891 -0.4904  0.6393  1.9211
 9578SOL    HW230889   2.583   6.868   2.791 -4.1954 -0.0922 -0.3108
 9579SOL     OW30890   5.024   6.846   2.871 -0.6939  0.0766  0.4222
 9579SOL    HW130891   4.959   6.865   2.939 -0.4912 -0.3407  0.7321
 9579SOL    HW230892   5.088   6.917   2.878 -0.0698 -0.5663  1.4156
 9580SOL     OW30893   1.531   4.758   0.657  1.1656  0.1389 -0.1720
 9580SOL    HW130894   1.614   4.767   0.704  1.6076 -1.4080 -0.5891
 9580SOL    HW230895   1.557   4.739   0.567  0.4056 -1.5430 -0.0783
 9581SOL     OW30896   9.215   9.112   4.870 -0.1245 -0.1083  0.1568
 9581SOL    HW130897   9.223   9.143   4.780 -1.9579 -0.4962 -0.1732
 9581SOL    HW230898   9.245   9.021   4.866 -0.2113 -0.1281 -0.0616
 9582SOL     OW30899   0.603   4.619   0.706  0.1416 -0.2829  0.6577
 9582SOL    HW130900   0.642   4.679   0.642 -0.7540 -0.6623 -0.2706
 9582SOL    HW230901   0.676   4.567   0.739  0.8562  0.9750  1.1127
 9583SOL     OW30902   5.362   2.992   0.333 -0.3325  0.6223  0.4650
 9583SOL    HW130903   5.423   2.985   0.407  1.1484  1.7066 -0.5856
 9583SOL    HW230904   5.299   2.921   0.347  0.7013 -0.0498  2.0320
 9584SOL     OW30905   6.173   6.560   8.156  0.2289  0.0165  0.1684
 9584SOL    HW130906   6.181   6.510   8.238 -0.9014 -1.4048 -0.5358
 9584SOL    HW230907   6.138   6.497   8.093  0.7210  1.1775 -1.3333
 9585SOL     OW30908   5.433   8.815   4.783 -0.3014  0.6090 -0.7545
 9585SOL    HW130909   5.409   8.899   4.744 -0.0550  0.8886 -0.3121
 9585SOL    HW230910   5.529   8.816   4.784 -0.2982  0.7397  0.1242
 9586SOL     OW30911   5.073   2.781   3.735 -0.0599 -0.1572  0.5169
 9586SOL    HW130912   5.129   2.715   3.775  0.6707 -0.6146 -1.1861
 9586SOL    HW230913   5.128   2.823   3.669 -1.2206  0.5478 -0.0379
 9587SOL     OW30914   6.338   1.457   9.414 -0.2241 -0.1256 -0.1223
 9587SOL    HW130915   6.290   1.536   9.439  0.2661  0.1694 -0.1148
 9587SOL    HW230916   6.278   1.386   9.435  0.0808  0.1165  1.6909
 9588SOL     OW30917   8.144   3.820   4.403 -0.2063 -0.3087  0.1008
 9588SOL    HW130918   8.099   3.845   4.484  1.2240 -1.0913  1.2043
 9588SOL    HW230919   8.232   3.794   4.432  0.2326 -0.9595 -1.6717
 9589SOL     OW30920   3.303   5.550   2.063  0.0101 -0.2800  0.0086
 9589SOL    HW130921   3.274   5.530   2.152  1.5408 -0.5686  0.4853
 9589SOL    HW230922   3.366   5.481   2.043 -1.3317 -1.0363 -1.8697
 9590SOL     OW30923   8.007   6.139   5.406  0.0670  0.2945  0.4305
 9590SOL    HW130924   8.085   6.189   5.430 -0.3958  0.8258  0.8630
 9590SOL    HW230925   8.011   6.060   5.460  0.7224 -0.0728 -0.1455
 9591SOL     OW30926   2.467   3.018   7.020  0.0175  0.1656 -0.3222
 9591SOL    HW130927   2.544   3.060   7.059 -0.3352 -0.0869  0.6862
 9591SOL    HW230928   2.396   3.081   7.035 -0.1643 -0.0207 -0.3931
 9592SOL     OW30929   4.400   9.092   5.245  0.0251 -0.8124  0.2500
 9592SOL    HW130930   4.421   9.001   5.224 -0.4334 -1.1124  1.0410
 9592SOL    HW230931   4.312   9.088   5.283 -0.2250  0.0329 -0.2123
 9593SOL     OW30932   7.958   3.535   8.052 -0.2066  0.3351 -0.5690
 9593SOL    HW130933   7.864   3.544   8.038 -0.4010  0.3764  0.6477
 9593SOL    HW230934   7.992   3.505   7.968 -1.2802  0.4556 -1.0673
 9594SOL     OW30935   4.293   7.277   3.843  0.5085 -0.0028  0.1717
 9594SOL    HW130936   4.309   7.238   3.929 -1.4831 -0.0322  0.5762
 9594SOL    HW230937   4.326   7.212   3.781 -2.9008 -2.6321  0.8211
 9595SOL     OW30938   9.144   5.159   7.726 -0.2504  0.2999  0.0201
 9595SOL    HW130939   9.108   5.071   7.722  0.9675 -0.3655  2.0150
 9595SOL    HW230940   9.100   5.207   7.656 -2.0331 -1.4778 -0.1564
 9596SOL     OW30941   2.178   7.867   8.665 -0.1967  0.1108 -0.0751
 9596SOL    HW130942   2.102   7.914   8.699  0.3887  0.0516  1.4326
 9596SOL    HW230943   2.142   7.799   8.608 -1.2402  0.3626  0.2735
 9597SOL     OW30944   1.506   8.296   2.075  0.4185 -0.4684 -0.4989
 9597SOL    HW130945   1.598   8.303   2.102  0.2030  1.0872 -0.0731
 9597SOL    HW230946   1.494   8.368   2.012 -0.3814 -0.9801 -0.9432
 9598SOL     OW30947   0.003   0.428   0.778  0.1557 -0.5632 -0.4084
 9598SOL    HW130948  -0.075   0.451   0.828  0.2407 -3.0848  1.0076
 9598SOL    HW230949   0.045   0.512   0.760 -0.7668  0.5839  2.3004
 9599SOL     OW30950   2.343   5.335   1.655 -0.0678  0.2881  0.2080
 9599SOL    HW130951   2.258   5.293   1.662  0.7205 -1.5124 -0.5598
 9599SOL    HW230952   2.326   5.415   1.604 -1.1451 -0.4976 -0.6989
 9600SOL     OW30953   2.277   3.677   0.799 -0.3549  0.3103  0.5277
 9600SOL    HW130954   2.293   3.649   0.710  0.4499  1.6958  0.2147
 9600SOL    HW230955   2.253   3.597   0.846  0.5161 -0.6457 -0.6183
 9601SOL     OW30956   2.264   3.981   9.003  0.1439  0.3269 -0.4218
 9601SOL    HW130957   2.302   4.058   9.045 -0.5804  0.5658 -0.1850
 9601SOL    HW230958   2.170   3.994   9.011 -0.0194  0.2398 -1.8651
 9602SOL     OW30959   7.166   1.564   4.856  0.3926  0.0680  0.0149
 9602SOL    HW130960   7.131   1.623   4.789  1.0044 -0.8161 -1.1092
 9602SOL    HW230961   7.149   1.476   4.823 -0.3963 -0.4235  1.6172
 9603SOL     OW30962   9.543   7.459   7.996  0.2850  0.1003 -0.3255
 9603SOL    HW130963   9.617   7.494   7.946  1.2150 -1.3114 -0.0051
 9603SOL    HW230964   9.502   7.536   8.036  2.3664  0.8114  0.5489
 9604SOL     OW30965   7.157   2.443   2.174  0.4548 -0.0203 -0.0376
 9604SOL    HW130966   7.070   2.460   2.209  0.0958 -1.1120 -0.3389
 9604SOL    HW230967   7.142   2.428   2.080  0.9108 -0.5844 -0.0240
 9605SOL     OW30968   0.616   7.378   3.281 -0.6298  0.5536  0.7237
 9605SOL    HW130969   0.554   7.446   3.254 -0.1668  0.1602 -1.5049
 9605SOL    HW230970   0.684   7.378   3.213  0.0185 -1.3064  1.3024
 9606SOL     OW30971   6.894   8.082   8.803 -0.1049  0.1762 -0.2294
 9606SOL    HW130972   6.806   8.053   8.826  0.3852 -0.1419  1.3355
 9606SOL    HW230973   6.900   8.067   8.709 -1.2279 -1.1386 -0.1208
 9607SOL     OW30974   5.074   9.540   7.907 -0.2321  0.4273 -0.0907
 9607SOL    HW130975   5.023   9.615   7.939  0.7284  2.8415 -3.5637
 9607SOL    HW230976   5.161   9.552   7.945  0.3471  2.1166 -1.7542
 9608SOL     OW30977   8.801   2.926   0.925  0.2160 -0.9280 -0.3749
 9608SOL    HW130978   8.856   2.851   0.946  0.5714 -0.8261 -0.9175
 9608SOL    HW230979   8.848   3.001   0.963  0.7595 -0.7683 -1.3350
 9609SOL     OW30980   5.436   7.088   4.971 -0.9448  0.1608 -0.2444
 9609SOL    HW130981   5.374   7.158   4.950 -0.6973  0.2980 -0.5294
 9609SOL    HW230982   5.503   7.095   4.903 -0.9135 -0.3476 -0.2666
 9610SOL     OW30983   8.914   2.927   1.321  0.4476 -0.3540  0.4763
 9610SOL    HW130984   8.934   2.836   1.340 -1.1880 -1.3961 -2.1734
 9610SOL    HW230985   8.849   2.952   1.387 -0.5247 -1.7768  0.1004
 9611SOL     OW30986   8.670   7.053   5.004  0.4172  0.2905 -0.0586
 9611SOL    HW130987   8.712   6.988   4.947 -0.0001 -0.6243  0.6525
 9611SOL    HW230988   8.661   7.008   5.088 -1.2714  0.7336  0.0206
 9612SOL     OW30989   7.334   5.562   5.933 -0.0426  0.1335  0.5192
 9612SOL    HW130990   7.427   5.579   5.942  0.0316  0.2425 -0.3630
 9612SOL    HW230991   7.328   5.471   5.904 -0.2729 -0.2589  1.7598
 9613SOL     OW30992   6.433   5.466   3.370 -0.3623  0.4750 -0.0031
 9613SOL    HW130993   6.465   5.382   3.337 -1.9794  0.1471 -0.8547
 9613SOL    HW230994   6.497   5.492   3.436  0.7353 -0.9070 -0.4648
 9614SOL     OW30995   8.153   6.026   9.178 -0.1053  0.5127 -0.1449
 9614SOL    HW130996   8.063   6.060   9.178 -0.1743  0.3542 -1.1880
 9614SOL    HW230997   8.196   6.072   9.106  0.5002  0.1856  0.0018
 9615SOL     OW30998   2.218   6.817   4.441  0.3925  0.8454  0.2606
 9615SOL    HW130999   2.282   6.840   4.508  0.0340 -0.6525  1.1552
 9615SOL    HW231000   2.238   6.876   4.368 -0.6933  4.1987  2.4290
 9616SOL     OW31001   1.370   3.284   6.328  0.2980 -0.1708 -0.8212
 9616SOL    HW131002   1.425   3.354   6.291 -0.1506 -0.4859 -2.1632
 9616SOL    HW231003   1.355   3.225   6.254 -0.2887 -1.0779  0.0071
 9617SOL     OW31004   7.712   0.277   4.030  0.4083  0.0682 -0.1041
 9617SOL    HW131005   7.721   0.264   4.124 -0.8857  1.2976  0.2152
 9617SOL    HW231006   7.623   0.310   4.018  1.1526  1.7182 -1.5544
 9618SOL     OW31007   0.665   8.455   3.102  0.2665 -0.0028  0.4665
 9618SOL    HW131008   0.618   8.434   3.183 -2.6509  1.8241 -0.6009
 9618SOL    HW231009   0.659   8.375   3.050 -0.4693 -0.2615  0.9234
 9619SOL     OW31010   2.383   2.987   5.683  0.5685  0.0392 -0.1903
 9619SOL    HW131011   2.357   2.900   5.655 -2.4610  0.7176  0.1564
 9619SOL    HW231012   2.420   2.975   5.771  2.2449 -1.0657 -0.9832
 9620SOL     OW31013   8.540   7.499   0.265 -0.9035 -0.0654  0.3939
 9620SOL    HW131014   8.543   7.451   0.348  1.2148 -2.0945 -0.7328
 9620SOL    HW231015   8.623   7.545   0.260 -0.2497 -1.2991 -1.2505
 9621SOL     OW31016   1.754   5.713   6.254 -0.0753  0.0926  0.6566
 9621SOL    HW131017   1.777   5.724   6.161 -0.8542 -1.2310  0.2781
 9621SOL    HW231018   1.671   5.665   6.253 -1.8619  2.8982  2.0252
 9622SOL     OW31019   3.503   6.354   6.885 -0.5307 -0.0254 -0.4933
 9622SOL    HW131020   3.517   6.411   6.960  1.9193  0.6062 -1.3045
 9622SOL    HW231021   3.467   6.273   6.921  0.4012  0.3319  1.3308
 9623SOL     OW31022   7.755   4.728   9.134 -0.6432 -0.1836 -0.2833
 9623SOL    HW131023   7.836   4.775   9.154  0.2764 -2.2745  1.3812
 9623SOL    HW231024   7.708   4.724   9.217 -1.6581 -0.4506 -0.8516
 9624SOL     OW31025   5.016   4.396   4.665  0.2712  0.0111 -0.2127
 9624SOL    HW131026   5.012   4.324   4.727 -3.1080 -1.2740 -1.6792
 9624SOL    HW231027   4.966   4.467   4.706  1.6889  0.7580  0.2788
 9625SOL     OW31028   1.094   9.465   6.251 -0.0032 -0.6703 -0.1021
 9625SOL    HW131029   1.168   9.475   6.311  0.8094 -0.2407 -1.1522
 9625SOL    HW231030   1.030   9.529   6.282  0.7892  0.2138 -0.2482
 9626SOL     OW31031   2.922   9.080   5.047 -0.2703 -0.6486  0.2046
 9626SOL    HW131032   2.859   9.151   5.059  1.3876  1.3826 -2.0277
 9626SOL    HW231033   2.993   9.100   5.109  0.1090 -0.4420 -0.2861
 9627SOL     OW31034   5.906   3.273   2.807  0.0777  0.2529 -0.4148
 9627SOL    HW131035   5.851   3.195   2.796  0.0265  0.2078  0.1344
 9627SOL    HW231036   5.846   3.346   2.799  0.3170  0.2934 -2.1753
 9628SOL     OW31037   6.171   9.162   0.598  0.1429  0.0808 -0.1937
 9628SOL    HW131038   6.212   9.125   0.519  1.7759  1.8936 -0.2696
 9628SOL    HW231039   6.151   9.253   0.574  1.2860  0.8770  1.6589
 9629SOL     OW31040   8.212   7.607   3.170 -0.0469  0.0237  0.0420
 9629SOL    HW131041   8.182   7.595   3.260  0.4953  1.0859  0.3765
 9629SOL    HW231042   8.228   7.701   3.162  1.0492 -0.2211 -0.7986
 9630SOL     OW31043   5.952   3.115   6.115  0.2527 -0.2961 -0.1412
 9630SOL    HW131044   5.976   3.089   6.026  0.4997  0.3003 -0.2594
 9630SOL    HW231045   6.019   3.180   6.139 -0.7241  0.7279 -0.1200
 9631SOL     OW31046   2.605   7.538   2.285  0.3699  0.2240 -0.1861
 9631SOL    HW131047   2.572   7.463   2.335 -0.0248  0.5569  0.0609
 9631SOL    HW231048   2.527   7.587   2.261  0.4777 -0.3748 -1.8676
 9632SOL     OW31049   6.187   6.280   5.269 -0.4582  0.1773  0.5092
 9632SOL    HW131050   6.139   6.253   5.347  0.8003 -1.5984  0.7271
 9632SOL    HW231051   6.196   6.200   5.217 -1.2660  1.3116 -1.4965
 9633SOL     OW31052   1.448   7.922   8.174 -0.2659  0.4015  0.0752
 9633SOL    HW131053   1.442   7.923   8.269 -0.6222 -1.6868  0.1272
 9633SOL    HW231054   1.379   7.862   8.146 -0.8126  1.7111 -1.5902
 9634SOL     OW31055   3.829   3.990   2.362  0.3327 -0.3934  0.2424
 9634SOL    HW131056   3.842   4.069   2.309 -0.3633 -0.7680 -0.5122
 9634SOL    HW231057   3.775   3.933   2.307  0.5960 -1.2887  0.8823
 9635SOL     OW31058   0.265   8.452   9.283 -0.3161  0.2992 -0.4068
 9635SOL    HW131059   0.238   8.399   9.208 -0.5772 -0.7621  0.4113
 9635SOL    HW231060   0.236   8.541   9.261 -2.6011 -0.3978 -0.5291
 9636SOL     OW31061   8.343   0.830   9.566 -0.4841  0.1794  0.0605
 9636SOL    HW131062   8.334   0.918   9.602  0.2336  0.4165 -0.3190
 9636SOL    HW231063   8.294   0.832   9.484  2.8006  1.4939 -2.0528
 9637SOL     OW31064   1.244   3.067   8.553 -0.3000 -0.1862  0.1904
 9637SOL    HW131065   1.283   3.152   8.572 -2.5920  1.1000 -0.4423
 9637SOL    HW231066   1.278   3.043   8.467 -0.4718  0.6519 -0.1197
 9638SOL     OW31067   4.069   7.007   5.640  0.2333  0.5819  0.1010
 9638SOL    HW131068   4.081   7.100   5.662  1.5623  0.9063 -1.7361
 9638SOL    HW231069   4.097   7.001   5.549  0.8096 -1.7758  0.3852
 9639SOL     OW31070   6.988   6.149   1.801 -0.0943  0.0084 -0.2402
 9639SOL    HW131071   6.906   6.161   1.848  0.2852  0.4170  0.3395
 9639SOL    HW231072   7.028   6.071   1.840 -0.2042 -0.1877 -0.5180
 9640SOL     OW31073   6.041   6.735   3.018 -0.0857  0.3752 -0.3172
 9640SOL    HW131074   6.070   6.810   3.070 -0.2539  0.4155 -0.2786
 9640SOL    HW231075   6.066   6.757   2.929  0.4942  0.1603 -0.2127
 9641SOL     OW31076   7.563   8.537   0.442 -0.0974 -0.3018  0.4044
 9641SOL    HW131077   7.537   8.624   0.413  0.5363  0.0162  0.7605
 9641SOL    HW231078   7.529   8.530   0.531  1.7977  0.5053  1.2503
 9642SOL     OW31079   5.554   1.462   6.737  0.1541  0.3125 -0.0839
 9642SOL    HW131080   5.526   1.552   6.752  0.4093  0.5972 -1.1916
 9642SOL    HW231081   5.514   1.438   6.653  1.4921  0.0173 -0.6681
 9643SOL     OW31082   0.654   5.167   1.433  0.4636  0.1669 -0.9779
 9643SOL    HW131083   0.587   5.171   1.366 -0.0945 -1.1898 -0.5400
 9643SOL    HW231084   0.656   5.075   1.460  0.2413  0.7574  1.2826
 9644SOL     OW31085   1.566   5.804   9.337  0.0960  0.3073 -0.8249
 9644SOL    HW131086   1.630   5.869   9.366  0.3311  0.6087 -1.9751
 9644SOL    HW231087   1.617   5.724   9.325 -0.3689 -0.4097  1.5804
 9645SOL     OW31088   0.185   3.800   5.093  0.2727  0.0393  0.4667
 9645SOL    HW131089   0.150   3.713   5.114 -0.6942  0.8905  2.6179
 9645SOL    HW231090   0.267   3.806   5.142  0.0557  0.5609  0.7664
 9646SOL     OW31091   2.168   8.907   8.028 -0.6120 -0.0015  0.1537
 9646SOL    HW131092   2.227   8.861   7.969 -1.1952 -0.1431 -0.3359
 9646SOL    HW231093   2.225   8.959   8.085 -0.0601  1.4419 -1.6070
 9647SOL     OW31094   4.258   5.864   6.869 -0.4608  0.0160  0.1022
 9647SOL    HW131095   4.263   5.897   6.959 -1.2498 -1.1778  0.6051
 9647SOL    HW231096   4.220   5.937   6.820 -1.0521  0.3045  0.9528
 9648SOL     OW31097   8.640   5.962   3.877 -0.2964 -0.4287  0.2612
 9648SOL    HW131098   8.549   5.961   3.847 -0.4254 -2.3713  0.5685
 9648SOL    HW231099   8.643   6.035   3.940 -1.2860  0.4710 -0.6832
 9649SOL     OW31100   0.815   9.437   7.868 -0.2636  0.3477  0.2474
 9649SOL    HW131101   0.890   9.409   7.815 -0.6761 -1.3618  0.4987
 9649SOL    HW231102   0.854   9.481   7.943  0.5836 -1.4816  0.9282
 9650SOL     OW31103   8.824   8.328   1.547 -0.5673  0.1641 -0.6512
 9650SOL    HW131104   8.736   8.365   1.536 -1.0239 -0.0617  1.7633
 9650SOL    HW231105   8.825   8.252   1.488 -2.1557 -0.1018 -0.4034
 9651SOL     OW31106   5.559   2.754   6.867 -0.4934 -0.2545  0.6139
 9651SOL    HW131107   5.639   2.790   6.904 -0.5020  0.4919 -0.0749
 9651SOL    HW231108   5.589   2.676   6.819 -0.1936 -0.0444  0.4545
 9652SOL     OW31109   8.621   8.564   5.234  0.0377  0.0698 -0.2078
 9652SOL    HW131110   8.541   8.581   5.184  0.9223  1.8263 -1.1070
 9652SOL    HW231111   8.652   8.650   5.261  2.0000 -0.5114 -0.4501
 9653SOL     OW31112   6.564   3.551   2.780  0.3604 -0.0987 -0.0161
 9653SOL    HW131113   6.479   3.564   2.739 -0.4340 -0.0773  1.5555
 9653SOL    HW231114   6.593   3.639   2.805  0.7767 -0.1245 -0.3816
 9654SOL     OW31115   6.183   3.069   4.254 -0.3295 -0.2668 -0.0714
 9654SOL    HW131116   6.265   3.066   4.303  0.0600  1.4583 -0.5511
 9654SOL    HW231117   6.209   3.079   4.162 -1.0537 -0.0299 -0.2651
 9655SOL     OW31118   4.598   7.483   4.077  0.4872  0.1401  0.0961
 9655SOL    HW131119   4.585   7.392   4.051 -3.4867  0.6173 -0.1989
 9655SOL    HW231120   4.619   7.529   3.996  0.4275 -0.1887 -0.1073
 9656SOL     OW31121   8.812   8.502   2.087  0.0150 -0.7206  0.0108
 9656SOL    HW131122   8.855   8.426   2.127  0.8119 -0.3066 -0.0306
 9656SOL    HW231123   8.785   8.556   2.161 -3.6565 -2.5917  0.2406
 9657SOL     OW31124   5.826   6.279   0.857 -0.4350 -0.6987 -0.2058
 9657SOL    HW131125   5.790   6.355   0.810 -0.5032 -0.1921  0.6457
 9657SOL    HW231126   5.900   6.315   0.907  0.3790 -1.4613 -0.8350
 9658SOL     OW31127   3.523   6.339   6.617  0.2085  0.5303 -0.4880
 9658SOL    HW131128   3.535   6.333   6.712  0.6962  2.6243 -0.3836
 9658SOL    HW231129   3.571   6.418   6.592 -1.3061  0.9422 -2.2345
 9659SOL     OW31130   4.088   3.866   2.041  0.2621  0.0551  0.1332
 9659SOL    HW131131   4.097   3.805   2.114 -3.5872 -0.3920  0.4246
 9659SOL    HW231132   4.143   3.829   1.972  1.5217 -1.2230  1.7402
 9660SOL     OW31133   0.519   9.141   8.421 -0.2234  0.0146  0.2119
 9660SOL    HW131134   0.484   9.201   8.355 -1.1002 -0.9867 -0.2603
 9660SOL    HW231135   0.466   9.157   8.499  1.5634  2.0240  1.0971
 9661SOL     OW31136   6.982   5.456   6.574 -0.5021  0.6171  0.9043
 9661SOL    HW131137   7.015   5.374   6.538 -0.9465  1.1818 -0.8957
 9661SOL    HW231138   6.912   5.429   6.634 -2.6887 -0.3203 -1.8520
 9662SOL     OW31139   6.535   9.231   6.884 -0.1080 -0.2030  0.6793
 9662SOL    HW131140   6.511   9.320   6.857 -0.8027 -0.5628  0.0777
 9662SOL    HW231141   6.462   9.202   6.939  0.3128 -0.2578  1.2178
 9663SOL     OW31142   4.443   2.607   4.602 -0.0553 -0.3553  0.3968
 9663SOL    HW131143   4.357   2.568   4.618 -0.5872  0.1472 -1.1630
 9663SOL    HW231144   4.448   2.681   4.662 -0.9345 -0.0675  0.1222
 9664SOL     OW31145   1.969   6.551   3.017 -0.1864 -0.5932 -0.2144
 9664SOL    HW131146   1.956   6.551   2.922 -0.1014  0.8735 -0.2422
 9664SOL    HW231147   1.927   6.470   3.047 -0.2159 -1.0718 -1.4947
 9665SOL     OW31148   1.394   2.762   6.750 -0.6590 -0.1994 -0.1856
 9665SOL    HW131149   1.426   2.727   6.833  1.0701 -0.6801 -1.0126
 9665SOL    HW231150   1.404   2.857   6.759  0.2284 -0.2882 -0.0899
 9666SOL     OW31151   0.218   7.420   8.594 -0.0695 -0.2101  0.4192
 9666SOL    HW131152   0.187   7.461   8.674 -1.0250 -0.7788  0.3502
 9666SOL    HW231153   0.166   7.340   8.586  1.4399 -1.2229  0.3116
 9667SOL     OW31154   4.776   8.547   4.841  0.1090 -0.0420  0.3694
 9667SOL    HW131155   4.779   8.638   4.811  0.8956  0.3461  1.5507
 9667SOL    HW231156   4.693   8.513   4.807  0.6950  0.5219 -1.7201
 9668SOL     OW31157   1.358   4.917   7.955  0.2685 -0.1811  0.0032
 9668SOL    HW131158   1.337   5.005   7.924 -1.4684 -0.3510  0.6074
 9668SOL    HW231159   1.319   4.859   7.889 -0.3690 -0.5049  0.6582
 9669SOL     OW31160   1.406   0.399   4.532 -0.3513  0.5592 -0.1005
 9669SOL    HW131161   1.498   0.417   4.551 -0.1141  0.9064 -1.5093
 9669SOL    HW231162   1.359   0.472   4.574  0.0248  0.5047  0.4290
 9670SOL     OW31163   6.091   0.861   4.216  0.2257 -0.0871 -0.0616
 9670SOL    HW131164   6.038   0.781   4.220 -0.5485  0.2876 -2.0497
 9670SOL    HW231165   6.056   0.915   4.287  0.8038 -1.4845  1.3628
 9671SOL     OW31166   4.935   9.135   3.967 -0.1359  0.7592  0.4307
 9671SOL    HW131167   4.869   9.176   4.022 -0.6716 -0.4539  0.7249
 9671SOL    HW231168   5.008   9.117   4.027 -1.0412 -1.3221  1.0089
 9672SOL     OW31169   6.114   4.147   7.639 -0.1575  0.2392  0.1455
 9672SOL    HW131170   6.100   4.192   7.556 -0.0090  2.1856  1.1301
 9672SOL    HW231171   6.203   4.110   7.631  0.0376  0.8043 -0.3774
 9673SOL     OW31172   9.138   3.694   8.357  0.7192  0.4189  0.2369
 9673SOL    HW131173   9.068   3.630   8.344  0.0877  1.4283 -1.5520
 9673SOL    HW231174   9.190   3.658   8.429 -0.0730 -1.6893 -0.1924
 9674SOL     OW31175   8.556   6.309   7.087 -0.1173 -0.4151 -0.1984
 9674SOL    HW131176   8.460   6.311   7.081 -0.1657 -0.6718  0.3873
 9674SOL    HW231177   8.582   6.238   7.029 -0.0926  1.2094 -2.2937
 9675SOL     OW31178   5.914   0.267   1.402 -0.2980  0.2104  0.5618
 9675SOL    HW131179   5.852   0.203   1.367  0.7751 -0.3341 -0.4419
 9675SOL    HW231180   5.861   0.326   1.455 -1.6456 -0.3119 -0.1580
 9676SOL     OW31181   8.432   0.724   3.595 -0.2199  0.1914 -0.2021
 9676SOL    HW131182   8.383   0.644   3.617 -0.5070  0.4138 -0.0318
 9676SOL    HW231183   8.433   0.725   3.499 -2.0145  1.0556 -0.2486
 9677SOL     OW31184   8.758   4.507   3.233  0.0497  0.4706  0.3406
 9677SOL    HW131185   8.841   4.492   3.278  0.0320  0.3115  0.3243
 9677SOL    HW231186   8.783   4.517   3.141  0.0055 -0.0949  0.2613
 9678SOL     OW31187   8.240   6.825   0.119  0.2910 -0.3036  0.0750
 9678SOL    HW131188   8.315   6.798   0.172  0.3905 -0.6459 -0.2344
 9678SOL    HW231189   8.276   6.889   0.058  0.8191 -1.9841 -1.4860
 9679SOL     OW31190   4.607   9.204   4.781 -0.4270  0.2240  0.5315
 9679SOL    HW131191   4.527   9.225   4.830 -1.7572 -2.8312 -0.1138
 9679SOL    HW231192   4.678   9.225   4.842 -1.6034  3.2898  1.0251
 9680SOL     OW31193   5.823   3.420   8.043 -0.0490  0.3851  0.2836
 9680SOL    HW131194   5.917   3.437   8.046 -0.1984  1.5964 -0.9023
 9680SOL    HW231195   5.782   3.507   8.043 -1.1680 -0.1135  0.6661
 9681SOL     OW31196   0.095   0.614   5.781 -0.3076 -0.0423  0.2234
 9681SOL    HW131197   0.125   0.532   5.742 -0.9871 -1.0631  1.7548
 9681SOL    HW231198   0.174   0.650   5.823 -0.2061 -0.3463  0.2931
 9682SOL     OW31199   3.504   4.828   8.678 -0.1716  0.3621  0.1739
 9682SOL    HW131200   3.416   4.799   8.703  0.0225  0.5337  1.0865
 9682SOL    HW231201   3.543   4.860   8.759  1.7358 -2.2651  0.4320
 9683SOL     OW31202   6.742   8.056   0.452  0.4128  0.3988 -0.4452
 9683SOL    HW131203   6.686   8.024   0.381  0.5199 -0.5074 -0.1404
 9683SOL    HW231204   6.831   8.033   0.424  0.3138 -2.0266  0.9403
 9684SOL     OW31205   7.266   1.625   6.372 -0.0709  0.1751 -0.2121
 9684SOL    HW131206   7.322   1.548   6.368 -0.0597  0.0589  1.4980
 9684SOL    HW231207   7.223   1.628   6.286  1.8222 -0.2495 -1.2459
 9685SOL     OW31208   1.033   4.332   0.561 -0.1149  0.7100 -0.0902
 9685SOL    HW131209   0.971   4.404   0.555 -0.0382  0.8194  0.3821
 9685SOL    HW231210   1.080   4.348   0.643  1.8311  1.6712 -1.3292
 9686SOL     OW31211   5.527   0.856   3.750  0.1445 -0.7234  0.3539
 9686SOL    HW131212   5.509   0.921   3.818  0.7233 -0.2353  0.0598
 9686SOL    HW231213   5.461   0.872   3.683  0.2574 -0.4618  0.3033
 9687SOL     OW31214   6.518   0.455   7.396 -0.2429  0.1571  0.7163
 9687SOL    HW131215   6.540   0.540   7.359 -2.7431  0.1229 -1.1444
 9687SOL    HW231216   6.563   0.392   7.339  1.2054  0.1701  1.7950
 9688SOL     OW31217   0.321   7.153   0.566  0.5298  0.3543 -0.8998
 9688SOL    HW131218   0.226   7.148   0.564  0.3419  2.9261 -1.4236
 9688SOL    HW231219   0.343   7.167   0.658  0.7310 -3.2954 -0.2408
 9689SOL     OW31220   2.247   4.140   7.130 -0.4606 -0.1959 -0.1617
 9689SOL    HW131221   2.238   4.215   7.190  0.5805  0.0747 -0.3210
 9689SOL    HW231222   2.228   4.064   7.184 -1.0967  0.1506  0.1159
 9690SOL     OW31223   3.503   5.804   0.984  0.0907 -0.1603 -0.2658
 9690SOL    HW131224   3.522   5.767   0.897 -2.8108  0.4321 -1.2546
 9690SOL    HW231225   3.507   5.898   0.971  1.6903 -0.0204  0.8409
 9691SOL     OW31226   0.013   7.520   4.207  0.2570 -0.1620  0.0381
 9691SOL    HW131227  -0.029   7.568   4.279  1.3591 -0.8764  1.2105
 9691SOL    HW231228   0.048   7.441   4.248  0.2503 -0.9800 -1.4577
 9692SOL     OW31229   7.422   0.776   3.876 -0.0220  0.6116 -0.0051
 9692SOL    HW131230   7.353   0.713   3.854 -0.2709  1.9060 -3.5487
 9692SOL    HW231231   7.375   0.859   3.885  0.5551  0.7522  2.6620
 9693SOL     OW31232   2.383   5.436   2.049 -0.1858 -0.0265  0.3547
 9693SOL    HW131233   2.391   5.527   2.079  0.7065  0.2777 -0.7400
 9693SOL    HW231234   2.295   5.410   2.078  0.1166  0.6473  2.0356
 9694SOL     OW31235   8.992   9.281   9.618 -0.0911  0.0310  0.6148
 9694SOL    HW131236   9.023   9.222   9.550 -0.1489 -0.4307  0.9864
 9694SOL    HW231237   9.065   9.287   9.679 -0.0346  0.4553  0.5092
 9695SOL     OW31238   7.774   0.557   0.439 -0.3645  0.8346 -0.1956
 9695SOL    HW131239   7.760   0.518   0.525  0.7135  0.2473 -0.2612
 9695SOL    HW231240   7.749   0.489   0.377 -1.7211  1.4697 -0.3733
 9696SOL     OW31241   6.181   5.282   2.438  0.0578  0.0994  0.3342
 9696SOL    HW131242   6.241   5.266   2.365  0.9696  0.6031  0.9585
 9696SOL    HW231243   6.233   5.267   2.516 -0.2711  1.7014  0.9105
 9697SOL     OW31244   0.323   6.356   5.754 -0.7207  0.1386 -0.0686
 9697SOL    HW131245   0.300   6.425   5.816 -1.0035 -0.0398  0.0239
 9697SOL    HW231246   0.299   6.275   5.798  1.0378 -0.1351  0.4736
 9698SOL     OW31247   2.126   4.542   7.663 -0.5702 -0.1370  0.5082
 9698SOL    HW131248   2.130   4.635   7.638 -0.4075 -0.3330 -0.2282
 9698SOL    HW231249   2.061   4.505   7.603 -0.8913 -0.4358  1.0318
 9699SOL     OW31250   2.118   3.469   5.834 -0.5644  0.1460 -0.9009
 9699SOL    HW131251   2.165   3.544   5.799  0.0813  0.5459  0.7037
 9699SOL    HW231252   2.163   3.393   5.798  1.3457  0.5203  0.5091
 9700SOL     OW31253   3.229   8.853   8.018  0.1761  0.0096 -0.3913
 9700SOL    HW131254   3.154   8.821   8.069 -0.9366  1.0404 -1.3162
 9700SOL    HW231255   3.202   8.940   7.989  1.6669  0.3086 -0.9273
 9701SOL     OW31256   9.166   4.602   8.806  0.0098  0.2711  0.2925
 9701SOL    HW131257   9.163   4.541   8.880  0.8212 -2.2062 -1.5415
 9701SOL    HW231258   9.075   4.609   8.777  0.1191 -2.5990 -1.2092
 9702SOL     OW31259   2.445   6.508   6.269  0.7175 -0.4233  0.3671
 9702SOL    HW131260   2.488   6.424   6.256  1.5686  0.1569 -0.8141
 9702SOL    HW231261   2.358   6.486   6.300  1.7029 -1.6599  2.4545
 9703SOL     OW31262   7.840   1.409   2.494  0.1689 -0.1483  0.3338
 9703SOL    HW131263   7.786   1.334   2.518  0.0038 -0.7162 -1.6278
 9703SOL    HW231264   7.883   1.435   2.576 -0.8470 -1.4862  1.3408
 9704SOL     OW31265   0.503   5.926   1.794  0.0475 -0.0911  0.4983
 9704SOL    HW131266   0.478   6.000   1.850  0.2897 -0.2782  0.8623
 9704SOL    HW231267   0.451   5.937   1.715  0.9092  1.0955  0.0671
 9705SOL     OW31268   9.314   7.001   7.205 -0.0666  0.0235  0.8809
 9705SOL    HW131269   9.273   7.057   7.138 -0.2850  0.2839  1.2324
 9705SOL    HW231270   9.336   7.061   7.276  0.4249 -0.2106  0.9278
 9706SOL     OW31271   0.165   5.876   1.921  0.0171 -1.1694 -0.0901
 9706SOL    HW131272   0.179   5.788   1.887 -0.8322 -0.9027 -1.2101
 9706SOL    HW231273   0.070   5.889   1.916 -0.2257 -1.2389  2.8116
 9707SOL     OW31274   3.427   3.540   3.031  0.1967 -0.0994  0.1874
 9707SOL    HW131275   3.495   3.592   3.074  0.6381 -0.0216 -0.5717
 9707SOL    HW231276   3.476   3.475   2.979 -0.3405 -1.5071  1.3783
 9708SOL     OW31277   7.841   8.293   2.605 -0.1989  0.3315  0.3362
 9708SOL    HW131278   7.896   8.245   2.666  0.6356  0.6831 -0.1291
 9708SOL    HW231279   7.843   8.383   2.636  0.0286  0.4672 -0.0726
 9709SOL     OW31280   5.897   8.360   3.861 -0.8325  0.0740 -0.1947
 9709SOL    HW131281   5.870   8.383   3.950  0.2028  0.9447 -0.0847
 9709SOL    HW231282   5.825   8.307   3.827 -2.1617  1.3949  0.4430
 9710SOL     OW31283   8.855   9.399   7.945 -0.4242  0.7933 -0.6122
 9710SOL    HW131284   8.835   9.480   7.897  0.1877  1.2755 -0.0751
 9710SOL    HW231285   8.950   9.393   7.941 -0.5127 -0.3448 -1.3372
 9711SOL     OW31286   5.657   2.353   1.254  0.0217  0.0490  0.3412
 9711SOL    HW131287   5.717   2.428   1.257 -1.7368  1.5503 -0.3640
 9711SOL    HW231288   5.603   2.368   1.177 -0.6087 -1.7959  0.3772
 9712SOL     OW31289   2.905   9.397   9.208 -0.4325 -0.2452  0.4420
 9712SOL    HW131290   2.854   9.316   9.209  0.3861 -0.7776  1.2873
 9712SOL    HW231291   2.917   9.419   9.300 -0.9796  1.0835  0.2257
 9713SOL     OW31292   4.392   7.042   3.732 -0.2707 -0.1474 -0.0654
 9713SOL    HW131293   4.422   6.967   3.783 -1.3235 -0.6085 -0.1199
 9713SOL    HW231294   4.442   7.037   3.651  0.0947 -0.4429  0.1734
 9714SOL     OW31295   9.455   1.225   6.387 -1.1168 -0.3360 -0.5428
 9714SOL    HW131296   9.438   1.138   6.424  2.7031 -0.5332  1.1924
 9714SOL    HW231297   9.463   1.209   6.292 -1.5660 -1.6445 -0.3836
 9715SOL     OW31298   8.382   7.084   4.990  0.7255 -0.1661 -0.1049
 9715SOL    HW131299   8.457   7.098   4.932  0.0759  1.5470 -0.5976
 9715SOL    HW231300   8.406   7.128   5.072  0.8866 -0.9797  0.2928
 9716SOL     OW31301   4.343   7.838   1.347  0.0680 -0.2080 -0.3683
 9716SOL    HW131302   4.277   7.821   1.279 -1.5019 -1.7427  1.4267
 9716SOL    HW231303   4.352   7.933   1.348 -0.5854 -0.0919 -2.0661
 9717SOL     OW31304   2.398   2.689   7.739  0.2064  0.2358  0.1666
 9717SOL    HW131305   2.369   2.610   7.695  0.6967  0.3760 -0.4195
 9717SOL    HW231306   2.445   2.658   7.817  0.3703 -0.0465 -0.0450
 9718SOL     OW31307   7.583   6.719   8.786  0.3179  0.3012  0.0504
 9718SOL    HW131308   7.571   6.649   8.721 -0.3446 -0.2184  0.7101
 9718SOL    HW231309   7.676   6.716   8.809  0.2984 -0.3546  0.0563
 9719SOL     OW31310   6.164   1.088   8.263 -0.1807 -0.1163 -0.3428
 9719SOL    HW131311   6.118   1.172   8.255  0.1738  0.0561 -0.5908
 9719SOL    HW231312   6.094   1.022   8.261 -0.6204  0.2416  1.5490
 9720SOL     OW31313   5.309   7.679   1.443  0.3435  0.3345  0.4166
 9720SOL    HW131314   5.263   7.597   1.424 -0.1447  0.8142 -0.5464
 9720SOL    HW231315   5.274   7.741   1.380  1.8976  0.8722  0.0441
 9721SOL     OW31316   0.563   2.316   6.576 -0.1176 -0.4762 -0.6565
 9721SOL    HW131317   0.612   2.268   6.642  2.0277  1.8031 -0.4069
 9721SOL    HW231318   0.595   2.280   6.493  2.1346  0.9283 -0.4982
 9722SOL     OW31319   5.089   7.339   0.563 -0.6914  0.4013  0.3039
 9722SOL    HW131320   5.060   7.429   0.578 -1.8671 -0.0690  0.9879
 9722SOL    HW231321   5.061   7.291   0.641  0.8226 -0.3779  0.4239
 9723SOL     OW31322   5.736   3.259   0.038 -0.5517  0.0081 -0.2834
 9723SOL    HW131323   5.791   3.187   0.007  1.9298  2.1968 -1.3865
 9723SOL    HW231324   5.779   3.288   0.118  1.0290  2.6960 -1.9282
 9724SOL     OW31325   6.749   7.373   5.574 -0.2133 -0.1478 -0.4047
 9724SOL    HW131326   6.679   7.341   5.517  0.6772 -1.5583 -0.7614
 9724SOL    HW231327   6.816   7.304   5.571  0.3837  0.2940  1.4194
 9725SOL     OW31328   1.725   6.096   7.486 -0.5405  0.3662  0.2869
 9725SOL    HW131329   1.813   6.114   7.451 -0.9500  1.2556 -0.3041
 9725SOL    HW231330   1.697   6.179   7.524 -1.1107  0.0712  0.5204
 9726SOL     OW31331   1.465   4.465   2.360 -0.4185 -0.6404  0.1431
 9726SOL    HW131332   1.425   4.449   2.274  0.2190  2.3152 -0.8005
 9726SOL    HW231333   1.413   4.536   2.398  1.4258  0.5021  0.6279
 9727SOL     OW31334   6.970   1.141   4.991  0.4637  0.6675 -0.1330
 9727SOL    HW131335   7.010   1.207   5.049 -0.8744 -0.0257  1.6790
 9727SOL    HW231336   7.036   1.072   4.984  0.4318  0.4906  1.0926
 9728SOL     OW31337   2.741   8.115   7.600 -0.4354  0.1605 -0.1657
 9728SOL    HW131338   2.835   8.108   7.584 -0.8148 -0.0587 -2.8813
 9728SOL    HW231339   2.724   8.209   7.602 -0.2966  0.2123 -0.9474
 9729SOL     OW31340   4.442   5.750   7.961 -0.2577 -0.1019  0.2114
 9729SOL    HW131341   4.381   5.790   7.898 -1.1316  0.4382  1.3549
 9729SOL    HW231342   4.459   5.663   7.926 -2.1612 -0.4871  0.1314
 9730SOL     OW31343   5.786   9.029   1.600 -0.6110  0.3114 -0.2018
 9730SOL    HW131344   5.835   9.001   1.523  1.1360 -0.0445  0.9743
 9730SOL    HW231345   5.844   9.093   1.643 -0.9797 -0.4074  1.4335
 9731SOL     OW31346   3.672   9.093   2.970 -0.1908 -0.0406 -0.0754
 9731SOL    HW131347   3.750   9.109   3.023  0.1207 -1.0100 -0.2338
 9731SOL    HW231348   3.602   9.141   3.016  0.1759 -0.4555  0.9436
 9732SOL     OW31349   6.076   3.590   5.621 -0.3051  0.1330  0.4523
 9732SOL    HW131350   6.110   3.528   5.685 -0.0361  0.4822  0.6510
 9732SOL    HW231351   6.045   3.535   5.549  1.4464 -0.1944 -0.1243
 9733SOL     OW31352   4.130   1.152   1.927  0.6928  0.1275 -0.0931
 9733SOL    HW131353   4.148   1.143   1.833  0.7413  2.5943 -0.3855
 9733SOL    HW231354   4.042   1.116   1.938  0.4812  0.2664 -1.1963
 9734SOL     OW31355   2.205   1.197   0.804  0.0499 -0.5023 -0.0648
 9734SOL    HW131356   2.182   1.289   0.793 -0.1050 -0.4692  0.5335
 9734SOL    HW231357   2.289   1.188   0.757 -1.1436 -0.6495 -2.3069
 9735SOL     OW31358   2.976   9.429   0.431  0.4120 -0.0040  0.3193
 9735SOL    HW131359   2.983   9.371   0.356 -0.6283  0.7813 -0.4280
 9735SOL    HW231360   2.902   9.486   0.409  1.4207  1.6289  0.9790
 9736SOL     OW31361   7.448   0.613   7.935  0.1078 -0.5058 -0.1404
 9736SOL    HW131362   7.390   0.576   8.001  0.8858  1.5669  1.8548
 9736SOL    HW231363   7.529   0.563   7.943  1.2383  1.4785  2.6994
 9737SOL     OW31364   4.005   2.406   1.979  0.8483 -0.6032 -0.3034
 9737SOL    HW131365   3.925   2.388   1.929  0.0199 -1.3915  1.2259
 9737SOL    HW231366   3.990   2.365   2.064  2.9051 -0.7774  0.0278
 9738SOL     OW31367   7.337   2.611   1.869 -0.2107 -0.5671  0.6559
 9738SOL    HW131368   7.425   2.636   1.840  0.0528 -0.5164  1.4847
 9738SOL    HW231369   7.335   2.515   1.861 -0.6560 -0.4533 -0.9321
 9739SOL     OW31370   4.994   6.482   1.317 -0.2887  0.3765 -0.2223
 9739SOL    HW131371   4.910   6.458   1.355 -0.3420  0.3097 -0.3787
 9739SOL    HW231372   5.054   6.486   1.391 -0.1005 -1.0118 -0.2670
 9740SOL     OW31373   5.186   7.187   5.569  0.3465  1.2959  0.0175
 9740SOL    HW131374   5.255   7.129   5.537  0.5202  1.7574 -0.4677
 9740SOL    HW231375   5.179   7.168   5.662 -0.0324  0.0485 -0.2423
 9741SOL     OW31376   4.740   4.002   3.368 -0.2961  0.1451  0.4715
 9741SOL    HW131377   4.708   4.030   3.283  1.2821  1.1533  0.1706
 9741SOL    HW231378   4.808   3.937   3.348 -1.4967 -1.3509  1.0623
 9742SOL     OW31379   0.285   7.984   7.874 -0.7110  0.2792  0.5209
 9742SOL    HW131380   0.212   7.931   7.842  0.4896 -0.6210 -0.8917
 9742SOL    HW231381   0.363   7.930   7.856  0.4420  1.9683  0.2273
 9743SOL     OW31382   6.147   1.202   0.102 -0.3037  0.6138  0.4687
 9743SOL    HW131383   6.195   1.121   0.122  0.7704  1.2245  0.4836
 9743SOL    HW231384   6.062   1.192   0.145 -0.8272 -1.1860 -0.8805
 9744SOL     OW31385   6.517   1.149   8.543  0.2053 -0.1337 -0.4656
 9744SOL    HW131386   6.537   1.237   8.513  0.3056 -0.2975 -0.8966
 9744SOL    HW231387   6.583   1.093   8.500  1.6832 -0.1613  1.6787
 9745SOL     OW31388   3.732   8.430   8.990  1.0615  0.1993 -0.0396
 9745SOL    HW131389   3.655   8.420   8.934  0.5941  1.6020  0.2947
 9745SOL    HW231390   3.796   8.477   8.937  0.4363  1.9772  0.6761
 9746SOL     OW31391   2.906   5.706   2.013  1.2164  0.6402 -0.5075
 9746SOL    HW131392   2.932   5.632   1.958  1.9593  0.1317  0.4973
 9746SOL    HW231393   2.927   5.783   1.961  3.0931  0.1944 -0.4632
 9747SOL     OW31394   2.937   0.646   4.033 -0.6101  0.1772 -0.0718
 9747SOL    HW131395   2.860   0.590   4.042 -0.8292  0.0885 -2.0265
 9747SOL    HW231396   3.011   0.584   4.032 -0.8409 -0.1144 -2.0758
 9748SOL     OW31397   8.562   5.866   7.328  0.0350 -0.3981  0.2047
 9748SOL    HW131398   8.603   5.889   7.245  0.1947  0.6520  0.5666
 9748SOL    HW231399   8.473   5.838   7.304  0.0474 -0.0047 -0.3058
 9749SOL     OW31400   6.718   2.933   3.734 -0.6264  0.0836  0.3056
 9749SOL    HW131401   6.681   2.937   3.822 -1.0821 -2.8465  0.3457
 9749SOL    HW231402   6.712   3.023   3.701 -1.7891  0.9633  2.6872
 9750SOL     OW31403   0.922   2.103   7.608  0.0258  0.0044  0.0936
 9750SOL    HW131404   1.016   2.105   7.588 -0.5741  0.3508 -3.2898
 9750SOL    HW231405   0.880   2.131   7.527 -3.1153 -1.8874  0.9146
 9751SOL     OW31406   4.127   5.197   0.171  0.2583  0.5649 -0.1214
 9751SOL    HW131407   4.186   5.242   0.232  0.4487 -0.0555  0.1612
 9751SOL    HW231408   4.181   5.131   0.129 -0.6820 -1.6324  1.8403
 9752SOL     OW31409   3.839   6.845   2.174 -0.0004 -0.0076 -0.1043
 9752SOL    HW131410   3.889   6.765   2.187  0.6706  0.4215 -0.0313
 9752SOL    HW231411   3.791   6.856   2.257  2.5149  1.4838  1.2805
 9753SOL     OW31412   6.934   0.288   8.476  0.1998 -0.5613  0.0689
 9753SOL    HW131413   6.855   0.270   8.425  1.0884 -1.6275 -0.9809
 9753SOL    HW231414   6.919   0.375   8.513 -0.7253  0.0114 -1.5586
 9754SOL     OW31415   8.105   5.042   2.037  0.1957 -1.1019 -0.0432
 9754SOL    HW131416   8.043   5.089   1.981  0.6988 -2.9045 -2.2693
 9754SOL    HW231417   8.190   5.083   2.019  0.0040  0.1763  1.6509
 9755SOL     OW31418   8.150   6.977   6.576  0.1281 -0.0550 -0.7749
 9755SOL    HW131419   8.233   6.997   6.620  0.4885 -0.9874 -1.0163
 9755SOL    HW231420   8.085   6.978   6.645  0.0553  2.1760 -0.7824
 9756SOL     OW31421   7.311   9.530   8.160  0.0733 -0.2325 -0.3911
 9756SOL    HW131422   7.237   9.552   8.104  0.1690 -1.9411 -1.2734
 9756SOL    HW231423   7.284   9.557   8.248 -2.2518 -2.0573 -0.4305
 9757SOL     OW31424   5.481   3.732   7.964 -0.0154 -0.5283  0.2090
 9757SOL    HW131425   5.422   3.796   7.925 -0.5905 -1.1334  0.0527
 9757SOL    HW231426   5.494   3.761   8.054 -1.5635 -1.0515  0.6238
 9758SOL     OW31427   6.148   3.291   6.193  0.0881  0.1594 -0.3601
 9758SOL    HW131428   6.226   3.255   6.235 -0.3753 -0.0560  0.3256
 9758SOL    HW231429   6.174   3.380   6.169  0.0497  0.6508  1.3077
 9759SOL     OW31430   8.736   4.417   2.062  0.2241  0.2474 -0.3101
 9759SOL    HW131431   8.723   4.445   2.153 -1.2681 -0.0108 -0.4104
 9759SOL    HW231432   8.798   4.344   2.068 -1.1519 -0.8997  0.7214
 9760SOL     OW31433   3.323   2.969   2.383 -0.6541 -0.4005 -0.0089
 9760SOL    HW131434   3.376   2.901   2.342 -1.2309 -1.5394  1.0842
 9760SOL    HW231435   3.300   3.028   2.311  0.2357 -1.1006 -0.8896
 9761SOL     OW31436   7.699   2.472   4.702 -0.2800 -0.5012 -0.2437
 9761SOL    HW131437   7.689   2.562   4.732  0.2168  0.4616 -2.6745
 9761SOL    HW231438   7.615   2.452   4.660 -0.1609 -0.9385 -0.2768
 9762SOL     OW31439   0.036   2.409   9.285  0.6942  0.2697 -0.3286
 9762SOL    HW131440  -0.029   2.420   9.216  0.6776  0.9547 -0.2071
 9762SOL    HW231441   0.042   2.314   9.297 -0.1618  0.1978 -0.4495
 9763SOL     OW31442   5.140   3.101   7.876  0.0913  0.5417  0.0182
 9763SOL    HW131443   5.198   3.065   7.942  0.1638  1.5699  0.5354
 9763SOL    HW231444   5.112   3.026   7.824  1.1530 -0.0834  0.3354
 9764SOL     OW31445   5.878   4.792   4.470  0.2655 -0.2478  0.3263
 9764SOL    HW131446   5.830   4.719   4.430  0.6569  0.7414 -2.1018
 9764SOL    HW231447   5.816   4.864   4.471  0.6139  0.0507  0.4974
 9765SOL     OW31448   1.103   6.855   3.896  0.3662  0.0707 -0.5010
 9765SOL    HW131449   1.112   6.775   3.947  0.4112 -0.6056 -1.5594
 9765SOL    HW231450   1.017   6.848   3.855 -0.0793  1.0544  0.2131
 9766SOL     OW31451   2.917   0.947   7.735 -0.1506  0.2038  0.5586
 9766SOL    HW131452   2.882   0.900   7.659 -0.7480 -1.3127  1.7170
 9766SOL    HW231453   3.002   0.980   7.706  0.7382 -2.4192 -0.0582
 9767SOL     OW31454   4.594   1.358   4.484  0.2096 -0.4389  0.2435
 9767SOL    HW131455   4.538   1.283   4.505 -0.3878 -0.4184 -1.2302
 9767SOL    HW231456   4.536   1.421   4.443  0.6926  0.9060  1.5152
 9768SOL     OW31457   5.367   8.868   9.304 -0.3091  0.1488  0.0095
 9768SOL    HW131458   5.416   8.932   9.357  0.5017  0.5724 -1.1970
 9768SOL    HW231459   5.376   8.900   9.215 -2.1461 -0.2316 -0.3364
 9769SOL     OW31460   5.847   5.485   7.523  0.0860  0.6029 -0.4995
 9769SOL    HW131461   5.837   5.563   7.468  3.0471  0.1419 -1.9192
 9769SOL    HW231462   5.775   5.428   7.498 -0.2862  1.5909 -1.7745
 9770SOL     OW31463   4.547   5.823   7.489  0.1681 -0.1433 -0.2462
 9770SOL    HW131464   4.508   5.740   7.517 -0.4169  0.3739  0.5474
 9770SOL    HW231465   4.632   5.799   7.453 -0.2946 -1.1576 -0.6948
 9771SOL     OW31466   4.954   2.734   9.424  0.8290 -0.1957  0.3033
 9771SOL    HW131467   4.918   2.696   9.344  1.5635 -1.7468  0.6872
 9771SOL    HW231468   4.964   2.827   9.404 -0.4028 -0.2937 -0.8809
 9772SOL     OW31469   0.828   3.672   6.777  0.0544 -0.4456 -0.2073
 9772SOL    HW131470   0.873   3.666   6.862  0.3272 -2.8400 -0.4499
 9772SOL    HW231471   0.817   3.581   6.750 -1.8859  0.2073 -1.7985
 9773SOL     OW31472   1.552   2.733   3.033  0.2279  0.0280 -0.2598
 9773SOL    HW131473   1.491   2.703   3.100 -1.7953  0.8935 -1.6323
 9773SOL    HW231474   1.533   2.679   2.956  1.0911  0.4012 -0.7571
 9774SOL     OW31475   0.560   1.408   0.818 -0.2578 -0.0493 -0.4744
 9774SOL    HW131476   0.582   1.480   0.759 -0.5095  1.0199  0.6927
 9774SOL    HW231477   0.639   1.354   0.821  0.9514  1.6978  0.7556
 9775SOL     OW31478   0.309   8.869   8.185  0.4778  0.0190  0.4269
 9775SOL    HW131479   0.340   8.851   8.096 -0.1072 -0.0775  0.2417
 9775SOL    HW231480   0.371   8.823   8.241 -0.6976 -2.2302 -0.0194
 9776SOL     OW31481   5.103   1.369   4.312  0.2006 -0.5806 -0.3476
 9776SOL    HW131482   5.030   1.429   4.296  0.5334 -0.0785  0.0084
 9776SOL    HW231483   5.147   1.405   4.389  0.1566 -1.5180  0.1317
 9777SOL     OW31484   7.405   8.651   5.101  0.3243  0.1883  0.1503
 9777SOL    HW131485   7.349   8.726   5.123 -1.1301 -1.3832  2.1444
 9777SOL    HW231486   7.348   8.591   5.054  0.6731 -0.8201  0.9660
 9778SOL     OW31487   6.193   0.217   8.375 -0.2564  0.0229 -0.2146
 9778SOL    HW131488   6.253   0.166   8.429 -0.3860  0.4602  0.3572
 9778SOL    HW231489   6.230   0.212   8.287  1.4599  1.4687  0.3550
 9779SOL     OW31490   4.051   8.721   3.336 -0.5957  0.3406 -0.0409
 9779SOL    HW131491   3.957   8.724   3.355 -0.5948  0.0034  0.0211
 9779SOL    HW231492   4.078   8.633   3.360 -0.1070  0.6700  0.6705
 9780SOL     OW31493   1.650   4.291   3.553  0.0897  0.3770 -0.8482
 9780SOL    HW131494   1.707   4.368   3.559  0.7868 -0.2271  1.5804
 9780SOL    HW231495   1.564   4.324   3.576  0.5337  0.3617  1.0069
 9781SOL     OW31496   0.805   3.634   8.522 -1.3050  0.6116  0.0908
 9781SOL    HW131497   0.885   3.635   8.575 -0.3246 -0.0812 -1.3304
 9781SOL    HW231498   0.818   3.704   8.459 -3.0969  2.3912  1.5855
 9782SOL     OW31499   8.687   1.879   7.210  0.0165 -0.2887 -0.1310
 9782SOL    HW131500   8.761   1.850   7.264  0.8853  0.8391 -0.6858
 9782SOL    HW231501   8.724   1.890   7.122 -1.2992 -1.7539 -0.9274
 9783SOL     OW31502   1.685   1.226   6.317 -0.1367 -0.0898  0.4323
 9783SOL    HW131503   1.626   1.178   6.374 -0.1150 -0.6124  0.0223
 9783SOL    HW231504   1.633   1.300   6.286 -0.2026  0.1015  0.9884
 9784SOL     OW31505   0.766   7.910   7.491 -0.1002 -0.1471 -0.3567
 9784SOL    HW131506   0.716   7.867   7.560 -0.1489 -1.0131 -0.9075
 9784SOL    HW231507   0.815   7.979   7.535  0.2706 -1.0127  0.6239
 9785SOL     OW31508   5.141   2.323   6.059  0.1324  0.4055  0.0328
 9785SOL    HW131509   5.197   2.245   6.060 -2.6311 -1.7058 -0.1128
 9785SOL    HW231510   5.088   2.313   5.980 -0.8118  2.0765  0.4197
 9786SOL     OW31511   5.857   7.163   1.952 -0.0754  0.1196  0.5665
 9786SOL    HW131512   5.799   7.088   1.957  0.1945 -0.0434  1.4114
 9786SOL    HW231513   5.903   7.153   1.869 -1.9416  0.7812 -0.6178
 9787SOL     OW31514   8.194   0.633   7.848 -0.3406 -0.0381  0.5036
 9787SOL    HW131515   8.263   0.575   7.881  0.2689  0.5569  0.2795
 9787SOL    HW231516   8.169   0.594   7.764  1.1203  0.8322 -0.3736
 9788SOL     OW31517   0.394   1.777   4.044  0.5855 -0.1008  0.1672
 9788SOL    HW131518   0.395   1.807   3.952 -0.1133 -1.0141 -0.1490
 9788SOL    HW231519   0.337   1.840   4.088  2.0932  1.2410  0.3284
 9789SOL     OW31520   6.465   9.529   2.974 -0.1970 -0.1401 -0.0434
 9789SOL    HW131521   6.491   9.601   3.031 -1.1542  0.0966  0.1178
 9789SOL    HW231522   6.374   9.511   2.998  0.5615 -2.6729  1.2363
 9790SOL     OW31523   0.819   1.457   6.062  0.6114  0.0512 -0.1571
 9790SOL    HW131524   0.738   1.491   6.099 -0.8483 -1.4698 -1.7658
 9790SOL    HW231525   0.853   1.396   6.128  0.9135  1.2725  0.8548
 9791SOL     OW31526   1.387   1.627   6.054  0.0060  0.0106 -0.5502
 9791SOL    HW131527   1.414   1.641   5.963 -2.0012  1.1521 -1.0340
 9791SOL    HW231528   1.383   1.714   6.092  0.9990 -0.4673  0.7217
 9792SOL     OW31529   1.793   0.116   2.183  0.0396 -0.1375  0.0614
 9792SOL    HW131530   1.764   0.034   2.223 -1.8508  1.8900  3.2366
 9792SOL    HW231531   1.888   0.114   2.190  0.2009 -2.6873 -1.5205
 9793SOL     OW31532   4.665   3.633   9.110 -0.3925  0.1136 -0.7424
 9793SOL    HW131533   4.686   3.715   9.066  2.1917  0.6884  1.2675
 9793SOL    HW231534   4.580   3.648   9.152 -0.5316  1.3049 -1.4247
 9794SOL     OW31535   1.606   2.374   0.236 -0.3494  0.9362 -0.2279
 9794SOL    HW131536   1.516   2.368   0.267 -0.5761  1.5975 -0.7309
 9794SOL    HW231537   1.623   2.288   0.196 -0.1228  0.1617  1.4741
 9795SOL     OW31538   4.740   5.483   3.686  0.8832  0.0059 -0.4403
 9795SOL    HW131539   4.645   5.484   3.669  0.2547  0.1605  2.5340
 9795SOL    HW231540   4.764   5.576   3.687  0.7008  0.0497  0.4380
 9796SOL     OW31541   5.555   0.788   4.585  0.0433  0.0032 -0.4765
 9796SOL    HW131542   5.575   0.881   4.588 -0.8351  0.1870  0.2150
 9796SOL    HW231543   5.539   0.763   4.676 -1.2653 -0.4555 -0.8008
 9797SOL     OW31544   6.633   4.751   1.879  0.5243  0.4399 -0.0135
 9797SOL    HW131545   6.718   4.720   1.910  0.3619 -0.7413 -0.6888
 9797SOL    HW231546   6.621   4.709   1.793 -0.5363  0.9467 -0.1405
 9798SOL     OW31547   3.494   4.144   2.312  0.8138  0.6442 -0.2157
 9798SOL    HW131548   3.482   4.213   2.377  0.4033  2.0529 -1.7331
 9798SOL    HW231549   3.443   4.173   2.236 -0.6844 -2.0881 -0.3939
 9799SOL     OW31550   4.071   3.326   6.037 -0.0915  0.1739 -0.2459
 9799SOL    HW131551   4.029   3.367   6.113 -0.2150  1.7005 -1.0969
 9799SOL    HW231552   4.097   3.400   5.982  1.9237 -0.8231 -0.6892
 9800SOL     OW31553   2.928   5.199   7.299  0.3437 -0.4044 -0.0225
 9800SOL    HW131554   3.004   5.169   7.349 -1.0822 -3.3004  0.6490
 9800SOL    HW231555   2.929   5.144   7.221  0.1520  1.1178 -1.1329
 9801SOL     OW31556   2.051   7.578   6.240 -0.3139 -0.1560 -0.0095
 9801SOL    HW131557   2.006   7.495   6.251 -1.1385  0.1760 -0.7491
 9801SOL    HW231558   2.133   7.555   6.196  0.7169 -0.8768  2.1833
 9802SOL     OW31559   1.167   1.935   1.604  0.0974  0.5722 -0.0039
 9802SOL    HW131560   1.113   1.876   1.657  0.5040 -0.8721 -1.1116
 9802SOL    HW231561   1.250   1.941   1.652  0.3854 -0.5464 -0.3174
 9803SOL     OW31562   1.958   0.393   6.386 -0.1750 -0.3838  0.5327
 9803SOL    HW131563   1.961   0.488   6.400  0.3368 -0.3931  0.4873
 9803SOL    HW231564   2.040   0.372   6.342  0.1723 -1.0015  1.4445
 9804SOL     OW31565   2.888   2.510   8.034 -0.4314  0.6107  0.2673
 9804SOL    HW131566   2.947   2.467   7.972 -1.1132 -0.0383  0.0500
 9804SOL    HW231567   2.909   2.603   8.027 -0.9748  0.6401 -1.4653
 9805SOL     OW31568   1.458   9.214   0.220 -0.6436  0.1665  0.7243
 9805SOL    HW131569   1.376   9.223   0.171  0.6589  2.2989 -1.2373
 9805SOL    HW231570   1.431   9.217   0.312 -2.7686  0.5742  0.1450
 9806SOL     OW31571   4.381   7.846   6.440  0.4323  0.1961 -0.8115
 9806SOL    HW131572   4.469   7.823   6.470  0.0068  0.2186  0.5496
 9806SOL    HW231573   4.367   7.794   6.362  0.9117 -1.3383  0.0850
 9807SOL     OW31574   6.072   0.192   5.198  0.2005 -0.2841 -0.5545
 9807SOL    HW131575   6.115   0.261   5.249  0.3839 -1.6511  1.2530
 9807SOL    HW231576   6.038   0.131   5.264 -2.0504 -0.7286 -2.0063
 9808SOL     OW31577   0.871   2.552   3.807  1.0455  0.1347  0.4633
 9808SOL    HW131578   0.889   2.550   3.713  0.6725  2.3326  0.3035
 9808SOL    HW231579   0.877   2.460   3.834  2.3686 -0.4109 -1.4534
 9809SOL     OW31580   8.264   1.588   9.066  0.5372 -0.3169 -0.1440
 9809SOL    HW131581   8.322   1.662   9.048  1.1528 -0.8425 -0.3663
 9809SOL    HW231582   8.194   1.625   9.120  1.4225  0.1994  0.6858
 9810SOL     OW31583   0.740   7.141   1.706  0.2508  0.0930 -0.9368
 9810SOL    HW131584   0.737   7.053   1.668 -1.4257 -1.2394  1.9020
 9810SOL    HW231585   0.829   7.149   1.741  0.0116 -1.1404  0.0303
 9811SOL     OW31586   3.270   1.864   8.463  0.2702 -0.0390 -0.5429
 9811SOL    HW131587   3.192   1.818   8.431  0.0561  0.6795 -1.0665
 9811SOL    HW231588   3.297   1.920   8.390  0.8817  0.2269 -0.1245
 9812SOL     OW31589   0.102   2.991   4.857 -0.1315  0.2674 -0.1295
 9812SOL    HW131590   0.074   3.083   4.855  0.1263  0.3483  0.0643
 9812SOL    HW231591   0.131   2.973   4.767 -0.8859  0.1571 -0.3609
 9813SOL     OW31592   1.508   3.247   1.739 -0.1377 -0.2744 -0.0574
 9813SOL    HW131593   1.582   3.282   1.790 -0.7373  0.7080  0.1563
 9813SOL    HW231594   1.532   3.156   1.723  0.3086 -0.4815  1.5703
 9814SOL     OW31595   7.273   5.744   5.285 -0.1531  0.2736 -0.2413
 9814SOL    HW131596   7.344   5.692   5.248  1.2991  1.3479  0.9241
 9814SOL    HW231597   7.222   5.682   5.337  1.9224  0.0371  1.6565
 9815SOL     OW31598   1.548   0.109   7.098  0.1578 -0.3979  0.7467
 9815SOL    HW131599   1.572   0.201   7.106  2.9257 -0.9751  0.0324
 9815SOL    HW231600   1.478   0.108   7.033 -0.5844  1.2605  1.4635
 9816SOL     OW31601   5.238   6.928   4.496 -0.0575  0.0579  0.3454
 9816SOL    HW131602   5.219   7.013   4.537  0.9684 -0.0614  1.1065
 9816SOL    HW231603   5.213   6.863   4.562 -1.6026 -0.3099 -0.5285
 9817SOL     OW31604   8.078   1.872   0.099 -0.0064  0.5828 -0.1806
 9817SOL    HW131605   8.168   1.862   0.129  0.2069  1.0731 -0.6332
 9817SOL    HW231606   8.048   1.953   0.139 -0.2886  0.3617  0.0618
 9818SOL     OW31607   3.158   5.311   2.711 -0.0001  0.7472  0.4420
 9818SOL    HW131608   3.253   5.321   2.702 -0.0796  0.6680 -0.5891
 9818SOL    HW231609   3.142   5.218   2.693 -0.1772  0.5505  1.5606
 9819SOL     OW31610   8.723   8.423   4.386  0.2729 -0.0661 -0.2201
 9819SOL    HW131611   8.729   8.332   4.415 -2.4404 -0.0155  0.7786
 9819SOL    HW231612   8.677   8.468   4.456 -0.1459  1.6716 -1.5310
 9820SOL     OW31613   7.374   8.258   6.915 -0.2744  0.1602 -0.4819
 9820SOL    HW131614   7.391   8.226   7.003  1.0678 -0.3915 -0.9208
 9820SOL    HW231615   7.284   8.290   6.918  0.4930  2.4159  1.7556
 9821SOL     OW31616   9.549   3.739   3.774 -0.0698  0.2044 -0.2761
 9821SOL    HW131617   9.509   3.825   3.759 -1.1849 -0.4027 -0.9184
 9821SOL    HW231618   9.550   3.699   3.687 -0.2610 -0.7222  0.1430
 9822SOL     OW31619   3.690   7.309   7.084 -0.0041 -0.0360  0.0460
 9822SOL    HW131620   3.629   7.236   7.095  0.7883 -0.4487  2.0546
 9822SOL    HW231621   3.776   7.272   7.104  0.3648  1.5295  1.5285
 9823SOL     OW31622   5.459   5.056   8.874  0.1167  0.0708  0.0368
 9823SOL    HW131623   5.532   5.040   8.934  2.3715  1.5627 -2.0872
 9823SOL    HW231624   5.477   4.999   8.799 -2.1304 -1.1042  0.3282
 9824SOL     OW31625   2.233   6.201   4.537 -0.4557  0.1466 -0.3749
 9824SOL    HW131626   2.173   6.153   4.479 -1.5140  1.4190 -0.3525
 9824SOL    HW231627   2.177   6.247   4.599  0.6494 -1.5717  2.0823
 9825SOL     OW31628   1.676   6.906   4.771  0.0238 -0.1606  0.0609
 9825SOL    HW131629   1.672   6.882   4.678  1.1753  0.3167 -0.1295
 9825SOL    HW231630   1.768   6.897   4.794 -0.1066  0.5610  0.9256
 9826SOL     OW31631   7.026   8.568   2.853 -0.0629  0.0321  0.1721
 9826SOL    HW131632   7.055   8.549   2.763  2.1939 -0.6146  0.9557
 9826SOL    HW231633   6.984   8.654   2.847  0.2660  0.1201 -1.4605
 9827SOL     OW31634   0.508   9.052   6.451  0.4469  0.5331  0.4843
 9827SOL    HW131635   0.592   9.079   6.490  0.5882  0.9179 -0.0821
 9827SOL    HW231636   0.528   8.971   6.405  0.2253 -0.0625  1.3999
 9828SOL     OW31637   9.478   6.254   7.297 -0.7681 -0.0030 -0.0178
 9828SOL    HW131638   9.414   6.185   7.315 -0.4109 -0.1311  0.7971
 9828SOL    HW231639   9.424   6.333   7.284 -1.0571  0.1891  2.0882
 9829SOL     OW31640   1.142   8.568   0.557  0.4039 -0.0691  0.2045
 9829SOL    HW131641   1.058   8.564   0.603  0.3741  1.8130  0.3835
 9829SOL    HW231642   1.185   8.647   0.590  1.2833  0.2311 -1.4909
 9830SOL     OW31643   2.411   7.637   7.527 -0.0332 -0.9196  0.2348
 9830SOL    HW131644   2.439   7.674   7.611 -0.2453  0.9003 -0.4353
 9830SOL    HW231645   2.385   7.547   7.547  0.3310 -0.6579  2.0282
 9831SOL     OW31646   3.625   1.169   8.178 -0.4330  0.3710  0.1360
 9831SOL    HW131647   3.533   1.195   8.175 -0.8246 -0.9015  0.4511
 9831SOL    HW231648   3.631   1.094   8.119  0.1432 -0.2880  1.0008
 9832SOL     OW31649   4.548   7.553   9.231  0.3662 -0.4344 -0.6459
 9832SOL    HW131650   4.536   7.577   9.139  0.4000  0.4000 -0.4384
 9832SOL    HW231651   4.495   7.474   9.242  0.3233 -0.5156 -1.3674
 9833SOL     OW31652   4.777   0.537   9.447 -0.1632 -0.2333 -0.6745
 9833SOL    HW131653   4.852   0.554   9.390  1.1906  0.1792  1.1339
 9833SOL    HW231654   4.736   0.623   9.459 -2.1236 -0.7023 -3.0909
 9834SOL     OW31655   4.285   6.859   2.777 -0.7986 -0.2041 -0.4712
 9834SOL    HW131656   4.251   6.814   2.854  1.3411  0.2337  0.8224
 9834SOL    HW231657   4.232   6.938   2.769 -2.0489 -1.0135 -0.4234
 9835SOL     OW31658   8.624   4.525   5.231 -0.0542 -0.0424  0.0122
 9835SOL    HW131659   8.613   4.560   5.143  0.3854  0.5796  0.2004
 9835SOL    HW231660   8.705   4.474   5.227  0.1227  0.2277  0.1288
 9836SOL     OW31661   5.831   0.311   6.855 -0.1224  0.6591  0.3033
 9836SOL    HW131662   5.760   0.338   6.912 -1.3982 -0.4365 -0.7014
 9836SOL    HW231663   5.852   0.390   6.804  1.1365  1.6846  2.3128
 9837SOL     OW31664   5.308   8.563   4.039 -0.3060  0.1766  0.5265
 9837SOL    HW131665   5.307   8.544   3.945  2.6830  1.1872  0.1926
 9837SOL    HW231666   5.371   8.502   4.076 -1.5968 -0.3521  1.9826
 9838SOL     OW31667   3.474   7.925   3.982  0.0835 -0.3456 -0.0140
 9838SOL    HW131668   3.519   7.867   3.920  0.9290  0.4411 -0.1425
 9838SOL    HW231669   3.512   7.904   4.067 -0.8479 -1.1915  0.2265
 9839SOL     OW31670   5.500   1.585   5.020  0.1798 -0.6053  0.3065
 9839SOL    HW131671   5.564   1.568   4.951  1.1275  2.1224  0.3713
 9839SOL    HW231672   5.428   1.630   4.976 -0.2203 -0.7928  0.7569
 9840SOL     OW31673   9.202   0.663   5.785 -0.5518  0.4554 -0.0603
 9840SOL    HW131674   9.175   0.650   5.876  0.4426  0.0413  0.1829
 9840SOL    HW231675   9.223   0.756   5.779  2.4731 -0.0363  1.0309
 9841SOL     OW31676   9.063   7.588   5.447 -0.4875 -0.7522  0.6836
 9841SOL    HW131677   9.016   7.601   5.530 -0.4155  2.3215  0.3637
 9841SOL    HW231678   8.995   7.599   5.380 -0.2332 -1.5366  0.2949
 9842SOL     OW31679   5.571   7.001   4.357 -0.3962  0.7178  0.0183
 9842SOL    HW131680   5.484   6.977   4.389  0.3500 -1.1959  0.7714
 9842SOL    HW231681   5.556   7.080   4.304 -2.3078  1.4681  1.5463
 9843SOL     OW31682   2.389   8.852   4.196 -0.0080 -0.2318  0.1314
 9843SOL    HW131683   2.368   8.792   4.124 -2.5843 -2.7821  2.6847
 9843SOL    HW231684   2.328   8.925   4.185 -0.5661 -0.7283 -0.1767
 9844SOL     OW31685   1.450   1.919   4.781  0.5935 -0.2265 -0.1368
 9844SOL    HW131686   1.385   1.849   4.770 -0.7435  1.0316 -0.5286
 9844SOL    HW231687   1.534   1.875   4.767 -0.3048 -1.3705 -2.5583
 9845SOL     OW31688   3.008   8.520   2.165 -0.3482 -0.2327  0.4061
 9845SOL    HW131689   2.949   8.445   2.157  0.6333 -1.0682  0.7838
 9845SOL    HW231690   2.958   8.585   2.214 -1.7530 -0.0420 -1.2005
 9846SOL     OW31691   8.429   8.937   1.775  0.0916 -0.1119  0.2758
 9846SOL    HW131692   8.457   8.846   1.769  0.0419 -0.2991  2.1994
 9846SOL    HW231693   8.494   8.978   1.834  0.3715  1.2164 -0.9002
 9847SOL     OW31694   1.010   4.762   4.073 -0.5452  0.6356  0.0879
 9847SOL    HW131695   1.035   4.842   4.120  2.0998 -0.2461  0.3485
 9847SOL    HW231696   1.071   4.758   4.000 -1.5957 -0.4230 -0.7659
 9848SOL     OW31697   5.373   1.038   8.777 -0.0668 -0.0568 -0.5955
 9848SOL    HW131698   5.279   1.021   8.769 -0.3693 -0.3096  2.3917
 9848SOL    HW231699   5.414   0.954   8.756 -0.7121 -0.7073  0.6446
 9849SOL     OW31700   6.575   2.621   1.785  0.0409 -0.2763  0.4101
 9849SOL    HW131701   6.598   2.553   1.721  0.1408 -1.7360  1.9125
 9849SOL    HW231702   6.578   2.703   1.736  2.0191 -1.1088 -0.9874
 9850SOL     OW31703   7.389   2.384   9.415  0.7001  0.1206  0.1074
 9850SOL    HW131704   7.381   2.470   9.374 -0.6805 -0.6091 -1.2740
 9850SOL    HW231705   7.328   2.386   9.488  1.4040  0.6299  0.6904
 9851SOL     OW31706   6.760   7.022   1.701  0.3211 -0.1177 -0.5053
 9851SOL    HW131707   6.697   7.057   1.638 -0.5524 -0.8876 -0.0941
 9851SOL    HW231708   6.734   7.060   1.785  0.8958  0.1653 -0.4490
 9852SOL     OW31709   3.847   7.095   3.706 -0.4915  0.6718  0.0903
 9852SOL    HW131710   3.942   7.083   3.705 -0.3283  1.8846 -0.7674
 9852SOL    HW231711   3.811   7.006   3.710  0.6663  0.1745 -0.3735
 9853SOL     OW31712   0.066   8.222   0.388  0.5874  0.3873  0.0060
 9853SOL    HW131713  -0.002   8.154   0.386 -0.0540  1.0275 -1.0012
 9853SOL    HW231714   0.063   8.256   0.478 -0.1719  0.1504  0.0771
 9854SOL     OW31715   5.835   8.275   6.679  0.3512  0.2878  0.3568
 9854SOL    HW131716   5.791   8.360   6.686 -1.3895 -0.2148 -2.7620
 9854SOL    HW231717   5.770   8.212   6.711  0.2360 -0.1392 -0.6821
 9855SOL     OW31718   7.317   1.691   7.446 -0.6566 -0.4588  0.0848
 9855SOL    HW131719   7.324   1.645   7.363 -0.9666  0.9936 -0.7786
 9855SOL    HW231720   7.401   1.675   7.490 -0.4075 -1.0443 -0.5879
 9856SOL     OW31721   4.762   9.210   0.681  0.0784 -0.1476  0.5017
 9856SOL    HW131722   4.690   9.169   0.633  1.5162 -0.5727 -1.4168
 9856SOL    HW231723   4.737   9.302   0.686  0.0825  0.0308 -1.6039
 9857SOL     OW31724   1.395   7.046   1.780 -0.1301  0.2358  0.0954
 9857SOL    HW131725   1.381   6.952   1.766  0.5510  0.0665  0.4654
 9857SOL    HW231726   1.488   7.059   1.762  0.0045  0.6417  1.0371
 9858SOL     OW31727   8.018   0.507   6.132  0.1161 -0.3900  0.3571
 9858SOL    HW131728   8.045   0.493   6.041 -0.8832 -1.0833  0.1401
 9858SOL    HW231729   8.013   0.602   6.141  1.8919 -0.2591  0.2155
 9859SOL     OW31730   6.566   0.095   4.499 -0.3189 -0.1529 -0.1445
 9859SOL    HW131731   6.634   0.147   4.457  0.9567 -1.7917 -0.2013
 9859SOL    HW231732   6.606   0.063   4.580  0.1547 -3.5638 -1.5568
 9860SOL     OW31733   6.942   5.961   3.859 -0.3131  0.3401  0.6321
 9860SOL    HW131734   6.942   5.889   3.796  0.0284  0.2709  0.7059
 9860SOL    HW231735   6.916   6.038   3.809 -0.4416  0.2092  0.4982
 9861SOL     OW31736   1.023   6.133   3.436 -0.1614  0.2421  0.4329
 9861SOL    HW131737   1.104   6.114   3.388 -0.6855  2.0854 -1.3087
 9861SOL    HW231738   1.040   6.215   3.482 -1.2551  1.0973 -0.6180
 9862SOL     OW31739   5.068   1.070   9.295  0.1441  0.1334  0.2753
 9862SOL    HW131740   5.155   1.077   9.255  0.7919  2.6618  1.8886
 9862SOL    HW231741   5.007   1.094   9.225  1.0398  1.7892  0.0150
 9863SOL     OW31742   6.361   2.448   9.253  0.0360 -0.0813  0.3337
 9863SOL    HW131743   6.403   2.371   9.214 -0.0327  0.2370 -0.3827
 9863SOL    HW231744   6.324   2.416   9.335  1.1486 -0.5121  0.6915
 9864SOL     OW31745   4.783   6.999   4.987 -0.4451 -0.0357  0.2139
 9864SOL    HW131746   4.706   6.968   5.034 -1.0766  1.6797  0.3783
 9864SOL    HW231747   4.748   7.039   4.908  0.4937 -1.4160 -0.9600
 9865SOL     OW31748   3.661   8.792   0.614  0.0282  0.0878 -0.1326
 9865SOL    HW131749   3.592   8.726   0.607  0.0247  0.2033 -1.4981
 9865SOL    HW231750   3.615   8.873   0.635  0.0592 -0.3682  1.8311
 9866SOL     OW31751   2.228   6.804   8.440  0.1694  0.0013  0.0937
 9866SOL    HW131752   2.269   6.790   8.354  0.8894 -1.7395  0.6886
 9866SOL    HW231753   2.200   6.717   8.467 -0.0101  0.5270  1.6502
 9867SOL     OW31754   0.504   4.209   2.253 -0.4557 -0.0508 -0.2682
 9867SOL    HW131755   0.484   4.225   2.345  1.4375  1.0341  0.0126
 9867SOL    HW231756   0.554   4.286   2.225  1.0606 -1.4058 -1.5236
 9868SOL     OW31757   2.173   4.785   0.550  0.0400 -0.3083 -0.3984
 9868SOL    HW131758   2.093   4.838   0.554 -0.0346 -0.4317 -0.2378
 9868SOL    HW231759   2.236   4.841   0.505  0.1478  0.1629  0.3159
 9869SOL     OW31760   0.156   6.794   7.058 -0.4711 -0.6968 -0.0138
 9869SOL    HW131761   0.234   6.811   7.112  0.1218  0.6090 -1.2273
 9869SOL    HW231762   0.184   6.727   6.996 -1.1510 -2.1918  1.2194
 9870SOL     OW31763   2.363   4.186   9.154 -0.0173 -0.1107  0.4635
 9870SOL    HW131764   2.302   4.176   9.227  1.6452 -0.4128  1.8675
 9870SOL    HW231765   2.403   4.271   9.167  1.0884 -0.6259  0.5504
 9871SOL     OW31766   0.552   1.505   2.642  0.5308  0.4379 -0.6373
 9871SOL    HW131767   0.592   1.545   2.720 -0.6587  0.5025 -0.0430
 9871SOL    HW231768   0.504   1.429   2.675 -2.9313  2.3973 -0.6757
 9872SOL     OW31769   7.760   5.799   7.750  0.5070 -0.0347 -0.2210
 9872SOL    HW131770   7.762   5.707   7.723 -0.4926 -0.3330  0.6326
 9872SOL    HW231771   7.782   5.848   7.671 -2.2615 -0.8740 -1.6501
 9873SOL     OW31772   8.083   7.979   1.388  0.1483 -0.0955  0.7987
 9873SOL    HW131773   8.170   7.950   1.412  0.3276  0.3661  0.7224
 9873SOL    HW231774   8.071   7.949   1.298  0.1583 -0.3167  0.8727
 9874SOL     OW31775   0.382   5.112   7.033 -0.3168 -0.3306 -0.3955
 9874SOL    HW131776   0.466   5.080   7.001 -0.5698  0.7885 -2.2946
 9874SOL    HW231777   0.395   5.122   7.128  1.6099 -0.3606 -0.6217
 9875SOL     OW31778   4.756   0.364   4.985  0.1346 -0.1342  0.0526
 9875SOL    HW131779   4.837   0.404   4.952  0.0072  1.5600  1.6133
 9875SOL    HW231780   4.773   0.349   5.078 -0.5398 -1.9970 -0.0856
 9876SOL     OW31781   5.142   2.372   6.603 -0.1190 -0.4049 -0.2315
 9876SOL    HW131782   5.149   2.310   6.531 -2.6950 -0.6831 -0.3386
 9876SOL    HW231783   5.196   2.446   6.577  0.6686 -1.3730 -1.4553
 9877SOL     OW31784   3.056   8.730   9.371 -0.3963 -0.2026  0.3863
 9877SOL    HW131785   2.992   8.696   9.433 -0.9632  0.9719  0.4668
 9877SOL    HW231786   3.041   8.824   9.369 -0.4454 -0.2009 -1.6012
 9878SOL     OW31787   5.182   3.589   3.481 -0.4194 -0.4217 -0.1534
 9878SOL    HW131788   5.194   3.679   3.452 -0.2415 -0.3809  0.0432
 9878SOL    HW231789   5.142   3.596   3.568  0.0023 -0.5202  0.0548
 9879SOL     OW31790   9.163   0.045   8.709 -0.4338 -0.0461 -0.0794
 9879SOL    HW131791   9.077   0.005   8.723  0.2938 -1.2251  1.2428
 9879SOL    HW231792   9.163   0.122   8.766 -0.8950  0.4258 -0.7014
 9880SOL     OW31793   4.240   9.002   1.614 -0.0277 -0.0876 -0.1519
 9880SOL    HW131794   4.220   8.949   1.537 -0.4207 -0.5164  0.2376
 9880SOL    HW231795   4.227   8.942   1.688 -0.8051  0.6431  0.3142
 9881SOL     OW31796   1.660   4.653   1.092 -0.4348  0.0125  0.4470
 9881SOL    HW131797   1.576   4.630   1.051 -0.6501  0.1616  0.8053
 9881SOL    HW231798   1.704   4.568   1.103 -0.0790  0.0287 -0.7208
 9882SOL     OW31799   0.614   5.574   0.284  0.6789 -0.0428  0.1080
 9882SOL    HW131800   0.616   5.569   0.380  1.2264  1.2670  0.1799
 9882SOL    HW231801   0.691   5.525   0.255 -0.4885 -2.0533  0.2235
 9883SOL     OW31802   6.015   1.772   7.374  0.2219 -1.0287 -0.1539
 9883SOL    HW131803   6.039   1.773   7.466  0.1919  2.1311 -0.0579
 9883SOL    HW231804   5.936   1.719   7.370 -0.1194 -0.7323  1.7484
 9884SOL     OW31805   6.208   9.129   8.576  0.1980  0.5181 -0.8786
 9884SOL    HW131806   6.288   9.081   8.600 -1.5602 -1.8710  0.5771
 9884SOL    HW231807   6.197   9.112   8.482  0.4630 -0.6415 -0.7151
 9885SOL     OW31808   6.505   7.432   1.794 -0.5260 -0.6616 -0.2011
 9885SOL    HW131809   6.545   7.345   1.783 -0.9938 -0.9106  0.0411
 9885SOL    HW231810   6.462   7.448   1.710  0.4650 -0.1840 -0.6354
 9886SOL     OW31811   6.862   1.366   8.113  0.0365  0.1100 -0.5742
 9886SOL    HW131812   6.884   1.279   8.078  3.4145  0.4974  0.3006
 9886SOL    HW231813   6.862   1.354   8.208 -2.6485  0.4819 -0.4394
 9887SOL     OW31814   2.964   7.524   4.733  0.2153 -0.5803 -0.4620
 9887SOL    HW131815   2.995   7.608   4.697  1.3600  0.4778  2.6354
 9887SOL    HW231816   2.884   7.547   4.779  0.1992 -1.3185 -0.1225
 9888SOL     OW31817   2.383   7.771   5.632 -0.6822  0.0869  0.2015
 9888SOL    HW131818   2.400   7.732   5.546 -0.5442 -0.4768  0.4768
 9888SOL    HW231819   2.423   7.858   5.628 -0.8146  0.1264 -0.3538
 9889SOL     OW31820   4.968   0.704   9.268 -0.1496  0.3706  0.4103
 9889SOL    HW131821   4.942   0.789   9.304 -0.5017  0.3814  0.1252
 9889SOL    HW231822   5.057   0.691   9.301  0.2287  1.2449 -0.2423
 9890SOL     OW31823   6.908   7.728   0.817  0.0758  0.1565  0.3404
 9890SOL    HW131824   6.913   7.648   0.764  0.0425 -0.0448  0.6406
 9890SOL    HW231825   6.818   7.759   0.806 -0.0119 -0.0405  0.5078
 9891SOL     OW31826   9.221   0.109   6.945  0.4189  0.6276 -0.6760
 9891SOL    HW131827   9.295   0.070   6.993  0.7845  0.2255 -1.5523
 9891SOL    HW231828   9.179   0.036   6.902 -0.2848  0.9108 -0.4788
 9892SOL     OW31829   5.147   5.552   3.274 -0.3483  0.2978 -0.0554
 9892SOL    HW131830   5.128   5.458   3.265 -1.6491  0.4784  0.5020
 9892SOL    HW231831   5.194   5.559   3.357 -0.7851  0.1847  0.2108
 9893SOL     OW31832   3.765   8.998   7.293 -0.3138  0.3316  0.3940
 9893SOL    HW131833   3.778   8.910   7.260 -0.7099  0.4187 -0.0142
 9893SOL    HW231834   3.853   9.031   7.310 -0.0304  0.5491 -1.3059
 9894SOL     OW31835   0.716   0.681   4.885 -0.7960 -0.5229 -0.3796
 9894SOL    HW131836   0.695   0.757   4.940 -0.3492 -0.7235  0.0703
 9894SOL    HW231837   0.630   0.642   4.866 -0.9354 -0.7145  0.5620
 9895SOL     OW31838   9.022   3.759   7.744  0.1440 -0.1371 -0.1385
 9895SOL    HW131839   9.012   3.730   7.835  0.5549 -0.8009 -0.2956
 9895SOL    HW231840   8.958   3.707   7.695 -0.9803  1.1287 -0.0662
 9896SOL     OW31841   4.324   9.569   4.686  0.3607 -0.1625 -0.2019
 9896SOL    HW131842   4.241   9.572   4.639  0.3179  1.5719 -0.0534
 9896SOL    HW231843   4.309   9.508   4.758 -0.7502  0.0779 -0.2200
 9897SOL     OW31844   2.328   2.147   7.165  0.7714 -0.2993 -0.3557
 9897SOL    HW131845   2.325   2.051   7.161  1.0889 -0.3013 -0.5887
 9897SOL    HW231846   2.275   2.176   7.091 -0.7605 -0.2779  0.7152
 9898SOL     OW31847   0.314   0.602   2.910 -0.0461 -0.3816 -0.5270
 9898SOL    HW131848   0.310   0.654   2.830  3.2669  0.4635 -0.2859
 9898SOL    HW231849   0.246   0.639   2.966  1.2210  2.8039 -0.9105
 9899SOL     OW31850   2.544   5.801   5.526 -0.2614  0.1241 -0.1928
 9899SOL    HW131851   2.627   5.753   5.525 -0.6642 -0.6187 -2.2855
 9899SOL    HW231852   2.484   5.742   5.573  0.3511  0.7031  1.4085
 9900SOL     OW31853   4.705   8.565   9.368  0.1686  0.1652 -0.2991
 9900SOL    HW131854   4.744   8.633   9.313  0.8313  1.0762  1.2026
 9900SOL    HW231855   4.746   8.578   9.454 -1.3091 -0.7550  0.5895
 9901SOL     OW31856   0.837   8.818   0.110  0.0283 -0.7082  0.0571
 9901SOL    HW131857   0.924   8.797   0.076  0.7291 -1.0271  1.9294
 9901SOL    HW231858   0.854   8.858   0.196 -1.6551 -0.5007  0.3189
 9902SOL     OW31859   9.426   9.112   2.782 -0.6558 -0.0283 -0.0868
 9902SOL    HW131860   9.435   9.055   2.859 -0.2422  1.3981  0.9644
 9902SOL    HW231861   9.498   9.174   2.790 -1.8317  1.4423 -0.4989
 9903SOL     OW31862   8.714   5.858   7.095  0.7090  0.3509 -0.0399
 9903SOL    HW131863   8.770   5.781   7.104  0.1864  0.0195  0.4306
 9903SOL    HW231864   8.743   5.900   7.014  1.8460  0.3575  0.3509
 9904SOL     OW31865   1.385   8.254   5.536  0.0089  0.2534  0.2363
 9904SOL    HW131866   1.419   8.224   5.452  0.8278  1.5671  0.0730
 9904SOL    HW231867   1.406   8.183   5.597 -0.6999 -0.7667 -0.6574
 9905SOL     OW31868   6.089   0.711   2.993 -0.3287  0.3005  0.1569
 9905SOL    HW131869   6.155   0.700   2.925 -1.0647 -3.1829 -0.1604
 9905SOL    HW231870   6.032   0.781   2.959  1.9102  1.9328 -0.5118
 9906SOL     OW31871   5.952   3.305   3.143  0.4541  0.0574  0.4501
 9906SOL    HW131872   5.908   3.359   3.077  0.0524 -1.4138 -0.5455
 9906SOL    HW231873   6.010   3.365   3.189 -2.2839  1.9931  1.5595
 9907SOL     OW31874   4.639   0.445   2.240  0.1259 -0.0899 -0.9311
 9907SOL    HW131875   4.686   0.501   2.179  0.1413  0.6803 -0.2398
 9907SOL    HW231876   4.552   0.485   2.247 -0.0880 -0.5532 -0.9673
 9908SOL     OW31877   9.440   5.959   7.758  0.1384  0.4052 -0.3290
 9908SOL    HW131878   9.389   6.032   7.722  2.0350  1.4674 -0.9772
 9908SOL    HW231879   9.466   5.908   7.682  1.3584  0.7855 -0.1899
 9909SOL     OW31880   6.104   7.025   0.196  0.3548 -0.1932 -0.1752
 9909SOL    HW131881   6.129   7.117   0.196  1.2181 -0.3135 -3.7299
 9909SOL    HW231882   6.171   6.982   0.250  1.6477  0.9058 -0.8563
 9910SOL     OW31883   6.888   0.661   2.163  0.0546  0.2849  0.0501
 9910SOL    HW131884   6.832   0.717   2.217 -0.2910 -0.3233  0.3379
 9910SOL    HW231885   6.919   0.592   2.223 -0.6961 -0.6566 -0.6010
 9911SOL     OW31886   7.095   0.043   0.453  0.6026  0.2114  0.0114
 9911SOL    HW131887   7.082   0.059   0.546 -0.2828 -0.9614  0.1195
 9911SOL    HW231888   7.083  -0.052   0.444  1.5551  0.1839 -1.1613
 9912SOL     OW31889   5.156   5.115   7.781  0.0413  0.0984  0.3460
 9912SOL    HW131890   5.096   5.097   7.854  2.1721 -1.0460  1.9601
 9912SOL    HW231891   5.190   5.028   7.757 -0.5094  0.4765 -1.9749
 9913SOL     OW31892   8.893   4.858   5.780  0.0712  0.0730  0.4076
 9913SOL    HW131893   8.866   4.860   5.688 -0.9492  1.1981  0.7002
 9913SOL    HW231894   8.963   4.924   5.786  0.4146 -0.2851  0.3623
 9914SOL     OW31895   0.109   1.650   4.777  0.0282  0.0587 -0.5397
 9914SOL    HW131896   0.137   1.559   4.765  0.7056  0.1122  0.5060
 9914SOL    HW231897   0.090   1.657   4.870 -0.5516  0.8472 -0.7143
 9915SOL     OW31898   2.169   1.779   3.348  0.6873  0.9625 -0.4674
 9915SOL    HW131899   2.118   1.859   3.361 -0.8493 -0.1537  0.8320
 9915SOL    HW231900   2.114   1.725   3.291  0.0557 -0.4783  1.3835
 9916SOL     OW31901   4.513   6.610   5.258 -0.2073 -0.4637 -0.1179
 9916SOL    HW131902   4.524   6.516   5.246 -3.7654 -1.0000 -0.2735
 9916SOL    HW231903   4.419   6.622   5.272  0.3589  2.8760  2.0891
 9917SOL     OW31904   3.480   9.503   2.158  0.0300  0.0056 -0.6333
 9917SOL    HW131905   3.533   9.527   2.082  1.4719  1.4141  0.7502
 9917SOL    HW231906   3.414   9.572   2.165  0.1725  0.1133 -0.3529
 9918SOL     OW31907   5.158   5.337   0.161 -0.5048  0.0727  0.3710
 9918SOL    HW131908   5.247   5.365   0.137 -1.6861  2.8822 -1.2775
 9918SOL    HW231909   5.120   5.305   0.079 -1.2971 -0.2707  0.8624
 9919SOL     OW31910   0.924   6.335   9.449  0.4573  0.0613  0.0082
 9919SOL    HW131911   0.840   6.289   9.439  0.1719  0.8307 -1.2914
 9919SOL    HW231912   0.969   6.286   9.517 -1.9314  0.9005  2.3863
 9920SOL     OW31913   2.082   7.278   2.769  0.1838  0.3996  0.3045
 9920SOL    HW131914   2.093   7.372   2.782  0.6455  0.2590  1.0116
 9920SOL    HW231915   2.170   7.242   2.776  0.0442 -0.0569 -0.2293
 9921SOL     OW31916   9.065   3.381   7.061  0.1321  0.2782 -0.0499
 9921SOL    HW131917   9.087   3.301   7.013 -0.3722  0.2453 -0.2305
 9921SOL    HW231918   8.971   3.391   7.049  0.0944  0.5797  0.4642
 9922SOL     OW31919   2.770   1.751   1.694 -0.3230  0.0297 -0.1510
 9922SOL    HW131920   2.707   1.723   1.760 -0.9672  0.4601 -0.5779
 9922SOL    HW231921   2.721   1.754   1.612  0.5175 -0.6717 -0.6927
 9923SOL     OW31922   2.584   9.384   7.346 -0.1352 -0.1818  0.7537
 9923SOL    HW131923   2.530   9.430   7.411  2.1228  0.7319  2.0790
 9923SOL    HW231924   2.644   9.331   7.398  1.1351 -0.1487 -0.6296
 9924SOL     OW31925   7.131   8.365   9.067 -0.4869  0.3273 -0.4093
 9924SOL    HW131926   7.203   8.311   9.036 -0.6805 -0.0586 -0.1942
 9924SOL    HW231927   7.174   8.434   9.118 -0.2812 -0.0402 -0.0787
 9925SOL     OW31928   3.905   1.283   1.222  0.6532  0.1510  0.3523
 9925SOL    HW131929   3.993   1.253   1.198  0.5963 -0.1104  0.4700
 9925SOL    HW231930   3.874   1.332   1.146  0.3408 -0.9471 -0.2371
 9926SOL     OW31931   8.708   5.794   4.221  0.1947 -0.2357  0.4975
 9926SOL    HW131932   8.751   5.725   4.170  1.0129 -0.4575  1.4366
 9926SOL    HW231933   8.759   5.798   4.303 -1.9197 -0.9054  1.9359
 9927SOL     OW31934   2.006   9.582   7.406  0.1857  0.3600  0.1930
 9927SOL    HW131935   2.022   9.644   7.476  0.5374  1.1632 -0.5754
 9927SOL    HW231936   1.915   9.599   7.379 -0.0819 -0.2175  0.6978
 9928SOL     OW31937   8.082   5.224   1.382  0.4667  0.3910 -0.5166
 9928SOL    HW131938   8.164   5.182   1.357 -0.7249 -0.6368 -2.9991
 9928SOL    HW231939   8.099   5.318   1.370  1.0522  0.1430 -1.7924
 9929SOL     OW31940   7.159   8.003   1.359  0.0112  0.0334 -0.5872
 9929SOL    HW131941   7.136   8.082   1.408  0.6267  0.6158 -1.2051
 9929SOL    HW231942   7.144   8.026   1.267  3.2089  0.6042 -1.0977
 9930SOL     OW31943   4.233   2.745   7.065 -0.3956 -0.3264  0.1459
 9930SOL    HW131944   4.262   2.765   6.976 -0.1446  0.6166  0.4218
 9930SOL    HW231945   4.265   2.819   7.117  1.5210 -1.9701  1.4533
 9931SOL     OW31946   3.209   0.111   5.843  0.1245  0.5706  0.2473
 9931SOL    HW131947   3.123   0.122   5.885 -0.0095 -0.1741  0.1839
 9931SOL    HW231948   3.238   0.024   5.872 -0.1522 -0.1440 -1.5167
 9932SOL     OW31949   6.843   2.746   9.424 -0.0513  0.4763 -0.3526
 9932SOL    HW131950   6.770   2.792   9.384  0.1136  1.0180 -0.0434
 9932SOL    HW231951   6.911   2.744   9.356  0.2378  1.4128 -0.1076
 9933SOL     OW31952   7.886   2.405   5.981  0.2877 -0.6885 -0.1721
 9933SOL    HW131953   7.824   2.374   5.915  1.6855 -1.5677 -1.1254
 9933SOL    HW231954   7.950   2.456   5.931  0.2597  0.3509  0.8172
 9934SOL     OW31955   3.717   9.201   2.718 -0.0451  0.3830 -0.1152
 9934SOL    HW131956   3.650   9.269   2.712 -0.0802  0.5537  1.6526
 9934SOL    HW231957   3.717   9.176   2.810 -0.4116 -2.4232 -0.7806
 9935SOL     OW31958   7.853   8.220   9.146  0.1351  0.1431  0.4901
 9935SOL    HW131959   7.817   8.265   9.223 -0.4781  1.9317 -0.7763
 9935SOL    HW231960   7.838   8.281   9.074  1.4541 -1.1305 -0.9186
 9936SOL     OW31961   4.022   1.209   8.549 -0.3144  0.0263  0.3835
 9936SOL    HW131962   4.063   1.295   8.547 -2.1256  0.9361 -0.5540
 9936SOL    HW231963   3.935   1.224   8.512 -0.8085 -2.1449  0.5613
 9937SOL     OW31964   4.249   7.786   8.378  0.9038  0.2046  0.3654
 9937SOL    HW131965   4.235   7.708   8.432 -0.2213  0.4173  0.4107
 9937SOL    HW231966   4.311   7.758   8.311  2.0929 -0.1518  1.5795
 9938SOL     OW31967   6.900   6.256   1.558  0.5623  0.3983 -0.0218
 9938SOL    HW131968   6.926   6.215   1.640  0.2618 -0.0494 -0.1513
 9938SOL    HW231969   6.980   6.259   1.506  0.1526 -2.0951 -0.9071
 9939SOL     OW31970   9.254   6.969   0.251 -0.0023 -0.5192 -0.6162
 9939SOL    HW131971   9.347   6.978   0.272  0.2174  0.0710 -1.8090
 9939SOL    HW231972   9.221   6.907   0.317  1.3691 -1.2594 -0.5884
 9940SOL     OW31973   1.828   0.061   4.744  0.2556  0.0601 -0.2716
 9940SOL    HW131974   1.883   0.136   4.767 -0.5319  0.7976 -0.7606
 9940SOL    HW231975   1.890  -0.007   4.718  0.9427  1.2960 -2.0883
 9941SOL     OW31976   2.479   2.529   3.128 -0.1750 -0.0167  0.0901
 9941SOL    HW131977   2.456   2.539   3.220 -2.0025 -1.9070 -0.0786
 9941SOL    HW231978   2.532   2.606   3.108 -1.3914  1.4803  2.1887
 9942SOL     OW31979   2.556   1.159   4.196 -0.1186  0.0334 -0.2941
 9942SOL    HW131980   2.646   1.129   4.207  0.1293  1.0370  0.6245
 9942SOL    HW231981   2.554   1.244   4.240 -1.5975 -0.1148 -0.0302
 9943SOL     OW31982   8.673   3.987   7.869 -1.0945 -0.1258  0.2774
 9943SOL    HW131983   8.609   4.001   7.939 -0.0246 -0.0485  1.2646
 9943SOL    HW231984   8.652   4.054   7.804 -0.8325  1.1616  1.4653
 9944SOL     OW31985   9.570   4.770   2.217  0.2326 -0.6474 -0.4261
 9944SOL    HW131986   9.551   4.819   2.297  2.9885  2.4753 -1.4752
 9944SOL    HW231987   9.531   4.823   2.147 -0.9331 -2.6089 -1.3624
 9945SOL     OW31988   7.733   4.319   5.079 -0.2865 -0.0821 -0.2399
 9945SOL    HW131989   7.656   4.314   5.022  0.2204  0.5062 -1.0182
 9945SOL    HW231990   7.724   4.403   5.124  0.4716  0.5779 -1.2463
 9946SOL     OW31991   1.417   8.051   6.344  0.3186  0.6624 -0.2891
 9946SOL    HW131992   1.482   8.058   6.414 -0.0877  1.2843  0.0371
 9946SOL    HW231993   1.461   8.087   6.267  0.0964  1.8764  0.1267
 9947SOL     OW31994   6.343   8.281   8.663 -0.0641  0.3031  0.2914
 9947SOL    HW131995   6.363   8.375   8.663  1.4273  0.0455  1.6511
 9947SOL    HW231996   6.422   8.241   8.626 -0.0145 -0.4909  1.2269
 9948SOL     OW31997   3.446   4.316   7.129  0.2679  0.4568 -0.1984
 9948SOL    HW131998   3.538   4.291   7.139  1.1245  3.2935  0.0853
 9948SOL    HW231999   3.440   4.351   7.040 -0.9669 -1.1022 -0.7712
 9949SOL     OW32000   0.824   1.830   2.338 -0.3489 -0.4591 -0.1915
 9949SOL    HW132001   0.841   1.924   2.345  3.1019 -0.9394 -0.2945
 9949SOL    HW232002   0.834   1.811   2.245 -2.9927 -0.7036 -0.4890
 9950SOL     OW32003   3.034   0.925   1.499 -0.2479  0.5890 -0.0845
 9950SOL    HW132004   3.009   0.837   1.529 -0.8867  0.5951 -0.5797
 9950SOL    HW232005   3.070   0.912   1.412  2.4352  0.4619  0.9286
 9951SOL     OW32006   7.739   3.154   7.133  0.0640 -0.0001 -0.1009
 9951SOL    HW132007   7.821   3.130   7.090 -1.1408 -1.2094 -1.8441
 9951SOL    HW232008   7.729   3.247   7.112  0.1981 -0.2334 -1.3150
 9952SOL     OW32009   3.649   5.322   6.660 -0.3089 -0.0433  0.3167
 9952SOL    HW132010   3.575   5.371   6.696 -0.3770 -0.3950  0.6621
 9952SOL    HW232011   3.721   5.338   6.722 -0.8087 -1.7783  1.3985
 9953SOL     OW32012   5.743   6.560   0.818  0.2862  0.1261 -0.1785
 9953SOL    HW132013   5.669   6.620   0.815  0.1885 -0.0228 -1.2204
 9953SOL    HW232014   5.814   6.610   0.859 -0.6221 -0.0094  1.6182
 9954SOL     OW32015   8.464   3.861   1.965 -0.3688 -0.0678 -0.3710
 9954SOL    HW132016   8.398   3.853   2.034  0.7729  0.6304  0.8382
 9954SOL    HW232017   8.496   3.771   1.952 -0.4233 -0.1725  0.1829
 9955SOL     OW32018   2.506   3.921   7.183  0.0541  0.0103 -0.0349
 9955SOL    HW132019   2.415   3.916   7.213  0.9505 -0.3340  2.9527
 9955SOL    HW232020   2.535   4.009   7.207  1.1148 -0.6262  1.1232
 9956SOL     OW32021   8.643   2.418   0.248  0.0653  0.1325 -0.5640
 9956SOL    HW132022   8.708   2.359   0.287 -0.4159 -1.1846 -1.6536
 9956SOL    HW232023   8.680   2.442   0.163 -0.7278 -0.4241 -1.0860
 9957SOL     OW32024   7.614   6.275   1.729 -0.2311 -0.3621 -0.2929
 9957SOL    HW132025   7.652   6.311   1.649 -0.5741  0.6985  0.0007
 9957SOL    HW232026   7.575   6.351   1.773 -2.7551 -1.3560 -0.6153
 9958SOL     OW32027   1.044   1.678   6.920  0.0982  0.2838 -0.6685
 9958SOL    HW132028   1.030   1.688   6.826 -2.1052 -0.8563 -0.5318
 9958SOL    HW232029   1.099   1.600   6.928 -1.1094 -0.6369 -1.0000
 9959SOL     OW32030   7.244   3.572   3.976  0.4513 -0.1751  0.2120
 9959SOL    HW132031   7.234   3.482   3.947 -1.3413  0.2558 -0.6268
 9959SOL    HW232032   7.268   3.621   3.897  1.0075  0.1549  0.5758
 9960SOL     OW32033   3.549   8.730   6.184 -0.4162 -0.2121  0.5653
 9960SOL    HW132034   3.465   8.732   6.230 -0.8518  0.5248 -0.2470
 9960SOL    HW232035   3.614   8.718   6.253 -0.9566  2.0276  1.5186
 9961SOL     OW32036   3.540   0.968   0.088  0.2241  0.6120  0.3657
 9961SOL    HW132037   3.479   0.922   0.145  0.0373  1.5031  0.9117
 9961SOL    HW232038   3.484   1.027   0.036  0.2072 -1.1904 -1.8024
 9962SOL     OW32039   3.001   4.048   2.185 -0.4776 -0.1678 -0.4564
 9962SOL    HW132040   3.065   4.022   2.118  3.2077 -1.0658  3.0090
 9962SOL    HW232041   2.982   4.139   2.166 -0.6968 -0.7214 -3.4208
 9963SOL     OW32042   3.100   7.575   6.661 -0.0124 -0.6209 -0.1686
 9963SOL    HW132043   3.145   7.491   6.672 -0.1585 -0.4955  1.5928
 9963SOL    HW232044   3.147   7.635   6.719 -1.5551 -0.1415  0.6273
 9964SOL     OW32045   3.004   6.582   3.932 -0.3720 -0.5450 -0.4235
 9964SOL    HW132046   2.918   6.592   3.974 -0.3412  2.8982 -0.9697
 9964SOL    HW232047   3.045   6.668   3.938  2.3066 -1.5945 -1.8653
 9965SOL     OW32048   0.825   0.488   2.639  0.3845  0.3806 -0.0779
 9965SOL    HW132049   0.815   0.399   2.672 -0.3991  0.7606  0.7641
 9965SOL    HW232050   0.889   0.529   2.697  1.7876 -0.0144 -1.2941
 9966SOL     OW32051   1.262   4.782   9.229 -0.6700 -0.0387  0.4724
 9966SOL    HW132052   1.207   4.744   9.161 -0.9918  1.5573 -0.2105
 9966SOL    HW232053   1.305   4.856   9.186  0.9362 -0.3977  1.3749
 9967SOL     OW32054   7.041   2.503   0.829  0.0813  0.0840  0.3713
 9967SOL    HW132055   7.131   2.491   0.798  1.0509  1.5491  2.3524
 9967SOL    HW232056   7.012   2.585   0.787  0.0577  0.1598  0.5361
 9968SOL     OW32057   1.602   1.601   2.063 -0.6625  0.5117 -0.4051
 9968SOL    HW132058   1.541   1.534   2.032 -0.7822  0.1875  0.4950
 9968SOL    HW232059   1.574   1.619   2.153  1.4379 -0.7211  0.5624
 9969SOL     OW32060   7.420   2.053   6.734  0.2647  0.1999 -0.9066
 9969SOL    HW132061   7.463   2.041   6.819  0.3021 -1.1213 -1.1004
 9969SOL    HW232062   7.354   1.984   6.730  0.4931  0.0293 -2.1052
 9970SOL     OW32063   7.066   2.646   3.669  0.3305  0.0244  0.0761
 9970SOL    HW132064   7.124   2.602   3.730 -0.1900 -1.6765 -0.5992
 9970SOL    HW232065   7.100   2.623   3.582  0.3922  1.4620 -0.3057
 9971SOL     OW32066   9.543   5.462   0.260 -0.0157  0.3177 -0.2690
 9971SOL    HW132067   9.525   5.457   0.354  0.9231  1.3770 -0.0098
 9971SOL    HW232068   9.547   5.371   0.231 -2.9639 -0.0566  0.1542
 9972SOL     OW32069   7.827   2.107   4.960  0.3674  0.1485 -0.4008
 9972SOL    HW132070   7.857   2.016   4.951 -1.3311 -0.8280  2.3505
 9972SOL    HW232071   7.855   2.132   5.048 -1.6616  1.2554 -0.0280
 9973SOL     OW32072   5.442   3.170   8.749  0.5810 -0.1246 -0.0443
 9973SOL    HW132073   5.396   3.248   8.779 -0.8305 -0.2204 -1.7845
 9973SOL    HW232074   5.389   3.097   8.780  0.2451 -0.2787 -0.9468
 9974SOL     OW32075   7.461   1.096   4.756  0.0295 -0.0941 -0.1709
 9974SOL    HW132076   7.469   1.114   4.662  0.2012  3.2023  0.3597
 9974SOL    HW232077   7.536   1.142   4.795 -0.4150 -0.8374  1.6411
 9975SOL     OW32078   5.868   9.361   6.915 -0.3196  0.3334 -0.4897
 9975SOL    HW132079   5.904   9.272   6.910 -0.0007  0.4038  0.4779
 9975SOL    HW232080   5.819   9.363   6.996  0.9571  1.4962  0.3028
 9976SOL     OW32081   5.984   0.600   3.813 -0.6049  0.0016  0.3789
 9976SOL    HW132082   5.928   0.610   3.891 -0.5644  0.8804  0.3071
 9976SOL    HW232083   5.975   0.508   3.789 -0.7660 -0.2438  1.3148
 9977SOL     OW32084   1.898   9.202   4.727 -0.5444  0.2806  0.0578
 9977SOL    HW132085   1.903   9.153   4.645 -1.3592  1.1818 -0.5522
 9977SOL    HW232086   1.809   9.188   4.758 -0.0913 -0.4823  1.0864
 9978SOL     OW32087   8.291   1.231   5.618 -0.4396 -0.1652 -0.2720
 9978SOL    HW132088   8.203   1.211   5.652 -0.4613  1.3019  0.6032
 9978SOL    HW232089   8.348   1.221   5.694  0.3942 -2.3848 -1.1136
 9979SOL     OW32090   8.225   7.674   0.097 -0.3685 -0.1187 -0.3065
 9979SOL    HW132091   8.261   7.668   0.009 -1.1939 -1.6492 -0.5771
 9979SOL    HW232092   8.290   7.630   0.152 -0.4330 -0.2482 -0.3345
 9980SOL     OW32093   6.459   1.675   5.790  0.3948 -0.3673 -0.3314
 9980SOL    HW132094   6.451   1.683   5.885 -0.5179 -1.5672 -0.2857
 9980SOL    HW232095   6.371   1.655   5.760  0.9142 -1.2805 -1.2919
 9981SOL     OW32096   7.604   1.200   7.962  0.4638 -0.7752 -0.5689
 9981SOL    HW132097   7.603   1.193   7.866  1.7115 -0.8623 -0.5963
 9981SOL    HW232098   7.535   1.263   7.983  0.6251 -0.2546 -1.5726
 9982SOL     OW32099   6.281   0.317   3.528 -0.2803  0.1378  0.2719
 9982SOL    HW132100   6.232   0.398   3.538 -0.4095  0.2961 -1.3587
 9982SOL    HW232101   6.217   0.253   3.497  0.1576 -0.1339 -0.0951
 9983SOL     OW32102   0.935   5.420   3.899  0.2216  0.1189  0.4440
 9983SOL    HW132103   0.852   5.435   3.945  0.6563 -0.7722  1.5962
 9983SOL    HW232104   0.995   5.484   3.937  0.3067  0.1107  0.3238
 9984SOL     OW32105   4.739   4.985   6.531  0.3950  0.2432 -0.1273
 9984SOL    HW132106   4.776   4.976   6.443 -0.4289  1.4615 -0.6304
 9984SOL    HW232107   4.719   4.896   6.558  2.8802 -0.3963 -0.1607
 9985SOL     OW32108   4.550   1.900   3.996 -0.5041 -0.4381  0.7243
 9985SOL    HW132109   4.506   1.984   4.012 -0.4357 -0.2788  0.0736
 9985SOL    HW232110   4.641   1.916   4.019 -0.8918 -1.0005  2.9063
 9986SOL     OW32111   8.863   2.638   6.123 -0.0587 -0.1208 -0.3468
 9986SOL    HW132112   8.926   2.699   6.084 -0.4067  0.0062 -0.7189
 9986SOL    HW232113   8.789   2.637   6.062  0.0480 -1.1168 -0.4793
 9987SOL     OW32114   3.769   5.596   5.383  0.1450 -0.1652 -0.0993
 9987SOL    HW132115   3.723   5.665   5.336 -2.8442 -1.8717  0.0710
 9987SOL    HW232116   3.801   5.638   5.462  0.5537  1.5238 -1.1087
 9988SOL     OW32117   3.375   3.926   3.048 -0.6220  0.3740 -0.4499
 9988SOL    HW132118   3.380   3.864   2.975  2.3153 -0.7095  0.5378
 9988SOL    HW232119   3.371   3.870   3.126  0.9711  1.4071  0.4093
 9989SOL     OW32120   5.385   2.283   6.713 -0.0267  0.1006 -0.8224
 9989SOL    HW132121   5.302   2.321   6.685 -0.3131 -0.1966 -0.3860
 9989SOL    HW232122   5.414   2.339   6.785 -0.1774 -0.1850 -0.5397
 9990SOL     OW32123   6.205   4.644   4.041  0.4744 -0.2747 -0.0455
 9990SOL    HW132124   6.286   4.692   4.058  0.2398  0.9518 -2.0977
 9990SOL    HW232125   6.183   4.664   3.950 -2.2647 -0.3660  0.4929
 9991SOL     OW32126   1.471   8.982   6.711 -0.3404 -0.0837 -0.1288
 9991SOL    HW132127   1.420   9.009   6.787 -0.1440 -1.3278  0.4649
 9991SOL    HW232128   1.493   8.891   6.728  1.1440  0.1058 -0.8910
 9992SOL     OW32129   0.723   6.239   7.531  0.2420  0.3730  0.4865
 9992SOL    HW132130   0.778   6.231   7.608  1.6906  0.0847 -0.5366
 9992SOL    HW232131   0.733   6.156   7.484 -1.1683  0.2637  0.3133
 9993SOL     OW32132   5.553   1.102   1.390 -0.0663 -0.0141  0.4215
 9993SOL    HW132133   5.530   1.049   1.314  0.0446 -0.4848  0.7082
 9993SOL    HW232134   5.578   1.187   1.354  1.7273 -0.7672 -0.2141
 9994SOL     OW32135   3.884   8.046   1.570 -0.0101  0.3799 -0.4237
 9994SOL    HW132136   3.877   7.976   1.505 -1.1057 -0.3521  0.4600
 9994SOL    HW232137   3.909   8.123   1.519  0.3441 -0.4375 -1.5369
 9995SOL     OW32138   1.006   6.413   7.378  0.3111  0.0202 -0.1676
 9995SOL    HW132139   1.034   6.321   7.374  3.0110  0.7076  0.8222
 9995SOL    HW232140   1.008   6.441   7.286  2.0795 -0.2474 -0.2448
 9996SOL     OW32141   5.172   0.202   2.692 -0.1647  0.1802 -0.2637
 9996SOL    HW132142   5.181   0.113   2.727  0.8291  0.6681  0.7539
 9996SOL    HW232143   5.260   0.226   2.665 -0.3304  1.0714 -0.0227
 9997SOL     OW32144   4.667   5.911   5.729 -0.3114 -0.5243 -0.0848
 9997SOL    HW132145   4.697   5.832   5.775 -2.1110 -1.4771 -0.4671
 9997SOL    HW232146   4.684   5.892   5.636  0.4865  0.1138 -0.0761
 9998SOL     OW32147   9.503   0.113   3.451  0.0711  0.3619 -0.0278
 9998SOL    HW132148   9.553   0.191   3.426  1.8763  0.0063  2.1743
 9998SOL    HW232149   9.545   0.082   3.531  0.7236 -4.0608 -1.8111
 9999SOL     OW32150   1.298   6.388   0.803 -0.6477 -0.1604  0.0565
 9999SOL    HW132151   1.222   6.412   0.856 -1.0782  0.9545 -1.0148
 9999SOL    HW232152   1.313   6.464   0.747  1.3595 -0.2988  0.3383
10000SOL     OW32153   1.824   7.490   5.412 -0.3158  0.3430  0.0104
10000SOL    HW132154   1.856   7.579   5.429 -0.0039  0.1533  0.4493
10000SOL    HW232155   1.791   7.492   5.323  0.0607  0.7960 -0.1182
10001SOL     OW32156   8.104   0.400   7.639  0.1270 -0.2817 -0.1938
10001SOL    HW132157   8.170   0.454   7.596 -0.8223  1.9078  0.9105
10001SOL    HW232158   8.025   0.455   7.640 -0.8949 -1.6805  1.0529
10002SOL     OW32159   3.923   5.201   2.278  0.3385  0.0057  0.2423
10002SOL    HW132160   4.004   5.149   2.278  0.5087  0.2686  0.4532
10002SOL    HW232161   3.943   5.276   2.222 -0.3043 -0.7507 -1.0609
10003SOL     OW32162   7.213   1.827   7.856 -0.0304 -0.2817 -0.0763
10003SOL    HW132163   7.240   1.775   7.931 -0.3007 -0.6096 -0.2023
10003SOL    HW232164   7.217   1.918   7.887  0.4319 -0.3748  0.1451
10004SOL     OW32165   3.813   0.670   5.065  0.0509 -0.6915  0.4480
10004SOL    HW132166   3.899   0.663   5.022  0.2608  0.2628  0.6949
10004SOL    HW232167   3.778   0.581   5.062  0.0119 -0.6663 -1.7867
10005SOL     OW32168   6.821   4.932   9.299  0.0325 -0.2822 -0.0890
10005SOL    HW132169   6.849   5.002   9.358  0.0588  0.0986 -0.5392
10005SOL    HW232170   6.730   4.915   9.323  0.3008 -0.7214  0.6176
10006SOL     OW32171   5.011   7.040   4.651 -0.4283 -0.3230 -0.2836
10006SOL    HW132172   4.932   7.092   4.666 -2.4632 -2.8179 -1.6855
10006SOL    HW232173   4.998   6.961   4.703  2.5014  0.2893  1.6226
10007SOL     OW32174   5.030   3.124   2.010  0.1944 -0.4461  0.1462
10007SOL    HW132175   4.943   3.095   1.982 -0.2125  1.4667 -0.7580
10007SOL    HW232176   5.038   3.095   2.100 -1.5749 -0.2985  0.3818
10008SOL     OW32177   9.189   9.234   9.387  0.3816  0.0648  0.1297
10008SOL    HW132178   9.141   9.315   9.372  0.5820  0.2610  0.5332
10008SOL    HW232179   9.274   9.262   9.422 -0.5949 -0.3812  3.1435
10009SOL     OW32180   7.929   8.598   0.491  0.4661  0.2860 -0.3566
10009SOL    HW132181   7.863   8.656   0.530  1.3023  0.7090  0.4866
10009SOL    HW232182   7.929   8.620   0.398  0.4667  1.3517 -0.1163
10010SOL     OW32183   7.357   9.111   7.868 -1.1800  0.0793  0.3183
10010SOL    HW132184   7.425   9.165   7.827  1.1185 -1.0150  2.4613
10010SOL    HW232185   7.301   9.174   7.913 -0.1874  0.8868  0.4680
10011SOL     OW32186   4.729   3.466   5.428  0.3277  0.2083  0.1210
10011SOL    HW132187   4.651   3.469   5.484 -1.1194  2.4869 -1.8178
10011SOL    HW232188   4.696   3.437   5.343  1.8773 -0.1515 -0.3788
10012SOL     OW32189   6.910   0.232   1.434 -0.5708  1.0529 -0.2556
10012SOL    HW132190   6.893   0.161   1.496  1.4728 -0.4238 -1.2505
10012SOL    HW232191   6.824   0.255   1.399 -1.4538  0.1371  1.2025
10013SOL     OW32192   6.585   1.471   2.288 -0.2060 -0.1031 -0.0787
10013SOL    HW132193   6.586   1.375   2.289  1.3543 -0.1144  0.9614
10013SOL    HW232194   6.504   1.495   2.333  1.0819 -0.9980  2.9683
10014SOL     OW32195   6.916   1.795   0.393 -0.1009 -0.6209  0.4594
10014SOL    HW132196   6.890   1.706   0.371 -1.3689 -0.6081  1.7322
10014SOL    HW232197   6.840   1.849   0.370  0.3248 -0.0006  0.4889
10015SOL     OW32198   7.145   8.566   0.528 -0.3453  0.7435 -0.6100
10015SOL    HW132199   7.091   8.533   0.456  1.4784 -2.0745 -0.8425
10015SOL    HW232200   7.092   8.552   0.606 -0.3724 -1.1381 -0.9208
10016SOL     OW32201   8.959   2.488   8.222 -0.1744  0.1087  0.7916
10016SOL    HW132202   9.032   2.427   8.231 -0.4603 -0.6029 -1.2226
10016SOL    HW232203   8.999   2.574   8.217  0.3402 -0.0360  1.9442
10017SOL     OW32204   4.088   6.004   2.641  0.2600  0.0770 -0.1924
10017SOL    HW132205   4.141   5.926   2.657  0.4937  0.1443 -0.6314
10017SOL    HW232206   4.005   5.971   2.606  0.3814  0.0259 -0.4360
10018SOL     OW32207   9.331   0.925   9.061 -0.0392  0.0151 -0.1740
10018SOL    HW132208   9.301   0.944   9.149  1.6014  0.6146  0.2883
10018SOL    HW232209   9.253   0.892   9.016 -1.4115  1.6505  0.8800
10019SOL     OW32210   9.318   9.561   2.591 -0.3149 -0.8582 -0.8002
10019SOL    HW132211   9.290   9.641   2.547 -0.8013  1.0683  2.6688
10019SOL    HW232212   9.414   9.566   2.590 -0.3389  0.5150  0.4897
10020SOL     OW32213   6.591   2.137   2.552  0.2448  0.0475 -0.1952
10020SOL    HW132214   6.568   2.213   2.606 -0.4169 -0.2207 -0.0901
10020SOL    HW232215   6.667   2.165   2.502 -0.0787  0.8309 -0.2571
10021SOL     OW32216   3.951   1.576   6.893 -0.0638 -0.2748 -0.1536
10021SOL    HW132217   3.967   1.494   6.940 -0.1689 -1.0811 -1.4823
10021SOL    HW232218   3.857   1.591   6.902  0.1503  0.4631  1.2457
10022SOL     OW32219   2.612   1.292   2.228  0.2332 -0.2971 -0.1971
10022SOL    HW132220   2.706   1.276   2.220 -0.0151 -2.0499  0.0872
10022SOL    HW232221   2.601   1.327   2.317  0.5570 -0.6463 -0.0174
10023SOL     OW32222   5.333   0.122   4.523 -0.0277 -0.2875  0.5125
10023SOL    HW132223   5.267   0.054   4.511 -2.6196  1.5355  3.0611
10023SOL    HW232224   5.367   0.108   4.611 -0.0588  1.2079  0.7958
10024SOL     OW32225   8.945   8.446   3.995 -0.1889  0.2120  0.4418
10024SOL    HW132226   9.014   8.419   3.934  0.3514  1.0144  0.6847
10024SOL    HW232227   8.883   8.373   3.994 -0.0805  0.1224 -0.8914
10025SOL     OW32228   3.653   6.895   9.399  0.1966  0.0335  0.6660
10025SOL    HW132229   3.709   6.900   9.476 -2.6227 -3.3977  3.3011
10025SOL    HW232230   3.684   6.817   9.352 -0.8789 -0.5791  0.9363
10026SOL     OW32231   6.099   2.840   8.686  0.9167  0.0911  0.4913
10026SOL    HW132232   6.160   2.774   8.654 -0.5139 -1.4089  0.7414
10026SOL    HW232233   6.112   2.841   8.781 -1.7925 -2.8394  1.0381
10027SOL     OW32234   2.098   1.448   4.984  0.0725  0.0163 -0.4760
10027SOL    HW132235   2.027   1.485   5.037  0.7637 -0.4235  0.8178
10027SOL    HW232236   2.165   1.424   5.048  1.7536  1.1758 -1.7208
10028SOL     OW32237   1.212   0.582   3.508 -0.5341  0.4295  0.0217
10028SOL    HW132238   1.141   0.545   3.456  0.6078  0.1659 -1.3852
10028SOL    HW232239   1.168   0.622   3.583 -2.1342 -0.0381 -0.6352
10029SOL     OW32240   0.621   8.913   5.569  0.3516 -0.1100 -0.1651
10029SOL    HW132241   0.581   8.845   5.517 -1.9749  0.3565  0.9016
10029SOL    HW232242   0.629   8.988   5.509 -2.7489  0.5859  0.1297
10030SOL     OW32243   7.190   6.334   2.944 -0.7149 -0.4673  0.6108
10030SOL    HW132244   7.194   6.243   2.972  1.1606 -0.1398  1.5403
10030SOL    HW232245   7.250   6.380   3.002  1.7875  0.6173 -2.4917
10031SOL     OW32246   0.144   0.637   3.421 -0.2019 -0.5802  0.1453
10031SOL    HW132247   0.070   0.691   3.395 -0.6459 -1.5463 -0.6840
10031SOL    HW232248   0.104   0.554   3.449  0.4434 -0.4283  1.5848
10032SOL     OW32249   7.679   5.152   0.185 -0.6323 -0.3182 -0.1066
10032SOL    HW132250   7.684   5.088   0.256  0.3270 -0.9993 -0.7555
10032SOL    HW232251   7.598   5.200   0.201  0.0591  0.2278  2.0045
10033SOL     OW32252   8.176   2.803   1.683  0.4373 -0.0836  0.8148
10033SOL    HW132253   8.242   2.744   1.720 -0.4943 -0.3604  2.1303
10033SOL    HW232254   8.121   2.826   1.758 -0.2066  1.1433 -0.0082
10034SOL     OW32255   9.455   7.110   4.740 -0.4987  0.3615 -0.4028
10034SOL    HW132256   9.419   7.183   4.790  0.2331  1.2463 -1.1324
10034SOL    HW232257   9.508   7.061   4.804 -1.1277  0.3617  0.1280
10035SOL     OW32258   7.453   5.959   9.040 -0.1202  0.2328  0.1817
10035SOL    HW132259   7.501   5.877   9.055  0.4574 -0.1422 -2.9888
10035SOL    HW232260   7.395   5.940   8.966  0.5213  2.8056 -1.1187
10036SOL     OW32261   6.217   7.557   0.021 -0.3379  0.5708 -0.0818
10036SOL    HW132262   6.289   7.605   0.061 -0.3440 -0.1321  0.7872
10036SOL    HW232263   6.233   7.564  -0.073  1.9093 -1.1113  0.0968
10037SOL     OW32264   4.239   2.515   9.246  0.5026 -0.2249  0.4808
10037SOL    HW132265   4.159   2.537   9.294 -0.5266 -1.8730 -0.3848
10037SOL    HW232266   4.282   2.600   9.232 -2.5396  1.2028 -1.5018
10038SOL     OW32267   9.324   2.854   4.708 -0.5160 -0.1526 -0.4066
10038SOL    HW132268   9.347   2.917   4.640 -1.3549  0.7942  0.1581
10038SOL    HW232269   9.277   2.905   4.774  2.0652 -0.5664  1.9635
10039SOL     OW32270   7.330   2.090   0.995 -0.3726 -0.0966 -0.1403
10039SOL    HW132271   7.323   2.168   1.051 -0.6846  0.2574 -0.6542
10039SOL    HW232272   7.239   2.071   0.970 -0.2074  0.0139 -0.8586
10040SOL     OW32273   4.680   2.260   8.121 -0.1177 -0.1061  0.4689
10040SOL    HW132274   4.766   2.224   8.100  0.6818  0.9352  1.7955
10040SOL    HW232275   4.694   2.310   8.201 -1.5664  1.6445 -0.3090
10041SOL     OW32276   8.638   2.925   7.650 -0.2967  0.0674 -0.1738
10041SOL    HW132277   8.640   3.015   7.681 -0.9047 -0.0496  0.2079
10041SOL    HW232278   8.575   2.925   7.578  0.7256  0.2297 -1.0938
10042SOL     OW32279   4.460   1.919   4.449 -0.3731  0.1005  0.0504
10042SOL    HW132280   4.414   1.860   4.509  0.6754 -1.2909 -0.4738
10042SOL    HW232281   4.484   1.864   4.375  1.0138  1.0938 -0.2657
10043SOL     OW32282   8.744   5.917   9.586 -0.3531 -0.0733 -0.1195
10043SOL    HW132283   8.810   5.947   9.523 -0.0915  0.8537  0.5686
10043SOL    HW232284   8.794   5.869   9.651 -0.7513 -1.9267 -1.1188
10044SOL     OW32285   3.697   1.781   0.428 -0.1278 -0.2235 -0.0572
10044SOL    HW132286   3.791   1.794   0.432  0.0071 -1.2677  0.6291
10044SOL    HW232287   3.660   1.868   0.447  0.6796  0.2755 -0.7168
10045SOL     OW32288   4.685   5.249   6.460  0.6336 -0.5802 -0.4410
10045SOL    HW132289   4.686   5.291   6.546 -1.2602 -0.4985 -0.4181
10045SOL    HW232290   4.709   5.158   6.477  1.2940 -0.3274  0.0166
10046SOL     OW32291   9.310   6.967   8.742  0.4333 -0.2207 -0.1174
10046SOL    HW132292   9.353   7.037   8.792 -1.2102  0.3525  0.5636
10046SOL    HW232293   9.380   6.904   8.725  1.1582 -0.3494  2.7289
10047SOL     OW32294   6.050   5.876   7.387  0.7285  0.0502  0.7404
10047SOL    HW132295   5.997   5.904   7.462  0.9543  1.6951  0.3205
10047SOL    HW232296   6.105   5.952   7.366  0.3697 -0.2130 -1.3620
10048SOL     OW32297   5.237   6.345   5.722 -0.5828 -0.0396 -0.0234
10048SOL    HW132298   5.309   6.312   5.776 -0.0008 -1.8284 -1.7459
10048SOL    HW232299   5.175   6.272   5.718 -2.8900  1.6631  1.8954
10049SOL     OW32300   0.157   5.215   3.114 -0.0499  0.1948 -0.7852
10049SOL    HW132301   0.169   5.295   3.165 -0.3636  0.2574 -0.8044
10049SOL    HW232302   0.080   5.234   3.059  0.8386  0.4783 -1.9712
10050SOL     OW32303   9.218   0.752   6.315  1.3170  0.3374  0.8186
10050SOL    HW132304   9.273   0.678   6.339 -0.5107 -1.8222 -1.2386
10050SOL    HW232305   9.257   0.786   6.235  0.8168  0.1193  0.4825
10051SOL     OW32306   6.106   5.235   5.649 -0.4227  0.0556  0.1000
10051SOL    HW132307   6.025   5.279   5.673 -0.2882  0.5824 -0.3860
10051SOL    HW232308   6.093   5.208   5.558 -0.2727 -0.3708  0.2022
10052SOL     OW32309   0.648   1.797   8.624 -0.1771  0.2307  0.5063
10052SOL    HW132310   0.668   1.865   8.560 -0.7013  2.2468  2.3861
10052SOL    HW232311   0.699   1.820   8.701 -1.0346 -1.0171  1.4935
10053SOL     OW32312   5.455   0.435   0.717 -0.3327 -0.3107  0.0816
10053SOL    HW132313   5.419   0.506   0.665 -1.6277  0.4779  1.9289
10053SOL    HW232314   5.442   0.463   0.808  2.6212 -1.1977  0.8832
10054SOL     OW32315   0.102   4.336   3.940 -0.1523  0.3712  0.6145
10054SOL    HW132316   0.172   4.399   3.958 -0.7725  0.9239  1.1130
10054SOL    HW232317   0.053   4.330   4.022 -0.4845 -0.2874  0.3802
10055SOL     OW32318   4.637   7.201   4.030 -0.6408 -0.1101  0.0662
10055SOL    HW132319   4.631   7.140   3.956 -2.0980  0.0638  0.0112
10055SOL    HW232320   4.681   7.151   4.099  0.4678 -0.3725 -0.7942
10056SOL     OW32321   3.958   4.315   9.272  0.2458 -0.4221 -0.6847
10056SOL    HW132322   3.997   4.394   9.235 -1.6392  0.2358 -1.4132
10056SOL    HW232323   4.026   4.279   9.329  0.8087  2.3524  0.5778
10057SOL     OW32324   5.891   3.969   6.824 -0.0158  0.0558  0.4862
10057SOL    HW132325   5.900   4.055   6.867 -0.6622 -0.0358  0.8136
10057SOL    HW232326   5.913   3.986   6.732  1.0167  0.3318  0.7688
10058SOL     OW32327   8.547   4.014   0.319 -0.4685 -0.2060 -0.5359
10058SOL    HW132328   8.549   3.961   0.399  0.5081 -0.1491 -0.5134
10058SOL    HW232329   8.481   4.081   0.337  0.1997  0.2105  0.4979
10059SOL     OW32330   0.838   7.206   7.657  0.3405  0.0584  0.4138
10059SOL    HW132331   0.851   7.254   7.576  2.0837 -0.1196  0.5661
10059SOL    HW232332   0.857   7.115   7.636 -0.7102 -0.2477  0.6798
10060SOL     OW32333   8.285   6.149   7.399 -0.3513  0.1234  0.1655
10060SOL    HW132334   8.369   6.192   7.411  0.1914 -0.8614 -0.0264
10060SOL    HW232335   8.300   6.084   7.331 -1.6473  0.9375 -0.9556
10061SOL     OW32336   3.763   3.913   3.630  0.5780  0.0819  0.1082
10061SOL    HW132337   3.739   3.980   3.565 -0.3584  1.1628  1.5079
10061SOL    HW232338   3.708   3.838   3.608 -0.3083  0.7130  0.0996
10062SOL     OW32339   9.180   9.632   5.278  0.0440  0.3256  0.1442
10062SOL    HW132340   9.270   9.666   5.273  0.1113  0.0377 -0.6238
10062SOL    HW232341   9.125   9.707   5.256  0.1622  0.1412 -0.8030
10063SOL     OW32342   5.423   6.591   3.637 -0.4862  0.2921 -0.5180
10063SOL    HW132343   5.388   6.502   3.642 -1.5620  0.7098 -0.4384
10063SOL    HW232344   5.456   6.598   3.547 -2.7980  0.6642 -1.3916
10064SOL     OW32345   2.610   0.666   8.152 -0.0989  0.7630  0.1361
10064SOL    HW132346   2.649   0.655   8.065  0.8939  0.8176  0.5750
10064SOL    HW232347   2.553   0.589   8.162 -2.0204  1.8648 -1.4759
10065SOL     OW32348   8.889   3.202   3.119 -0.3048 -0.6395 -0.0832
10065SOL    HW132349   8.809   3.179   3.168 -0.8815 -0.8350 -1.0871
10065SOL    HW232350   8.890   3.142   3.045  1.1274 -1.0573  0.2501
10066SOL     OW32351   7.542   0.483   4.968  0.2811  0.0616 -0.1400
10066SOL    HW132352   7.546   0.573   4.934  1.1779  0.3799  0.7566
10066SOL    HW232353   7.527   0.495   5.062 -0.0506 -0.7519 -0.0870
10067SOL     OW32354   3.342   0.796   1.053 -0.1589  0.2353  0.5786
10067SOL    HW132355   3.390   0.838   0.981 -0.1021 -1.5827 -0.4994
10067SOL    HW232356   3.300   0.720   1.013  0.2725 -1.1362  2.5756
10068SOL     OW32357   0.175   7.251   7.289  0.0573  0.3196 -0.5580
10068SOL    HW132358   0.114   7.178   7.276  0.0220  0.3882 -0.7807
10068SOL    HW232359   0.252   7.228   7.236  0.7010 -0.3165  0.6193
10069SOL     OW32360   0.088   0.460   1.109 -0.3449 -0.1342 -0.1527
10069SOL    HW132361   0.141   0.400   1.058 -0.2655 -1.0213  0.9418
10069SOL    HW232362   0.003   0.417   1.117  0.3675 -1.2575  2.5524
10070SOL     OW32363   2.726   9.286   4.700 -0.2816  0.1113  0.0464
10070SOL    HW132364   2.639   9.255   4.723 -0.5653  0.2106 -0.8245
10070SOL    HW232365   2.713   9.378   4.677  0.3812  0.6462  1.6774
10071SOL     OW32366   4.140   3.092   8.111 -0.5598 -0.7241  0.1241
10071SOL    HW132367   4.193   3.156   8.063 -1.0717 -2.0065 -2.3307
10071SOL    HW232368   4.052   3.101   8.074 -1.2257 -1.1544  1.5313
10072SOL     OW32369   0.709   0.347   8.114 -0.1725  0.4897 -0.2163
10072SOL    HW132370   0.660   0.311   8.040 -2.4543  1.6473  0.6398
10072SOL    HW232371   0.761   0.418   8.076  2.2528 -1.7894 -1.4268
10073SOL     OW32372   5.432   5.392   4.761  0.4004 -0.0024 -0.0694
10073SOL    HW132373   5.465   5.418   4.847 -0.6301  1.1140  0.0146
10073SOL    HW232374   5.351   5.346   4.778 -1.1823  2.4333 -0.4798
10074SOL     OW32375   6.472   2.184   5.409  0.4113  0.4239 -0.2496
10074SOL    HW132376   6.534   2.128   5.361 -0.7840 -1.3299  0.1357
10074SOL    HW232377   6.521   2.214   5.485  1.7284  1.6581 -1.5221
10075SOL     OW32378   4.543   2.964   3.519  0.0235 -0.0420  0.2603
10075SOL    HW132379   4.606   2.945   3.450  1.9765  2.3814  1.2394
10075SOL    HW232380   4.579   2.920   3.597 -0.8591 -0.6961  0.3236
10076SOL     OW32381   5.641   6.477   6.711 -0.8828  0.0066 -0.5072
10076SOL    HW132382   5.641   6.396   6.762 -0.4149  0.7168  0.6587
10076SOL    HW232383   5.548   6.499   6.702 -1.0576 -1.0995 -1.5812
10077SOL     OW32384   8.066   5.839   0.368 -0.4478 -0.4304 -0.4362
10077SOL    HW132385   7.988   5.877   0.409 -0.7269 -0.7964 -0.6253
10077SOL    HW232386   8.129   5.911   0.364  0.1020 -0.6788  1.9024
10078SOL     OW32387   2.811   8.728   5.585 -0.1021  0.2280 -0.3032
10078SOL    HW132388   2.893   8.727   5.635 -0.1357 -1.7168 -0.2035
10078SOL    HW232389   2.755   8.665   5.630 -0.8227 -0.1639 -1.6966
10079SOL     OW32390   0.107   2.305   6.672 -0.6634  0.3190  0.3479
10079SOL    HW132391   0.138   2.327   6.584 -0.9942  3.7278  0.9677
10079SOL    HW232392   0.012   2.311   6.666 -1.1286 -4.1872 -0.0749
10080SOL     OW32393   4.148   0.972   8.711  0.3397 -0.0064  0.0396
10080SOL    HW132394   4.125   1.027   8.786 -0.7267 -0.8043  0.3185
10080SOL    HW232395   4.153   1.033   8.637  0.8195  0.7029  0.6475
10081SOL     OW32396   8.556   2.147   6.347  0.8724 -0.5958 -0.4763
10081SOL    HW132397   8.512   2.184   6.270  0.6580  0.3479  0.0879
10081SOL    HW232398   8.496   2.078   6.377  1.1055 -1.1933 -1.3205
10082SOL     OW32399   6.178   0.685   8.389 -0.0893  0.2424  0.2444
10082SOL    HW132400   6.083   0.686   8.400 -0.2077  2.0535 -0.6230
10082SOL    HW232401   6.207   0.771   8.419  1.4343 -0.6436  1.4897
10083SOL     OW32402   7.642   1.277   3.805  0.3084 -0.6302  0.2513
10083SOL    HW132403   7.731   1.243   3.816  0.6564 -0.3154 -1.3075
10083SOL    HW232404   7.591   1.202   3.774  0.3766 -0.4728 -0.2537
10084SOL     OW32405   1.636   6.300   8.007 -0.1855 -0.1633  0.6384
10084SOL    HW132406   1.576   6.328   7.939  1.0127 -1.0459 -0.8524
10084SOL    HW232407   1.580   6.266   8.077 -1.4419 -1.9631 -1.1313
10085SOL     OW32408   9.251   0.680   6.963 -0.0868  0.1382 -0.0753
10085SOL    HW132409   9.257   0.609   6.898  0.7765  1.7693 -1.8824
10085SOL    HW232410   9.226   0.756   6.912 -0.1895  1.3236  1.6807
10086SOL     OW32411   8.213   5.319   0.665  0.3407 -0.2891  0.6826
10086SOL    HW132412   8.120   5.301   0.653  0.5637 -0.8529 -0.2791
10086SOL    HW232413   8.232   5.389   0.602  0.7052 -0.6244  0.4177
10087SOL     OW32414   7.123   5.263   1.509  0.4524  0.1735  0.3477
10087SOL    HW132415   7.037   5.281   1.471 -0.4666 -1.5568  1.4909
10087SOL    HW232416   7.130   5.322   1.584 -0.6687 -1.1106  1.4983
10088SOL     OW32417   7.908   1.823   0.956  0.0683 -0.0958  0.1832
10088SOL    HW132418   7.832   1.854   1.005  0.3474  0.5661  0.2042
10088SOL    HW232419   7.966   1.899   0.949  1.1686 -0.8211  0.9874
10089SOL     OW32420   8.673   7.056   4.700  0.7732 -0.1359 -0.2597
10089SOL    HW132421   8.658   7.061   4.605  1.6901 -2.5371 -0.5908
10089SOL    HW232422   8.748   7.114   4.715 -0.0565  1.1294 -0.7868
10090SOL     OW32423   9.456   4.961   7.713 -0.6719  0.2913 -0.5353
10090SOL    HW132424   9.374   4.915   7.732 -0.0178 -0.6318  0.1567
10090SOL    HW232425   9.496   4.976   7.799 -0.2988  1.0999 -0.8380
10091SOL     OW32426   5.409   8.519   8.616 -0.4493  0.2509 -0.2251
10091SOL    HW132427   5.426   8.610   8.595  0.7610  0.1671  0.3405
10091SOL    HW232428   5.385   8.519   8.709 -0.7367  0.0262 -0.2969
10092SOL     OW32429   6.289   3.279   3.787  0.0749  0.3214 -0.0903
10092SOL    HW132430   6.224   3.338   3.749 -1.6530 -1.5447 -0.1468
10092SOL    HW232431   6.248   3.193   3.786  2.4762 -0.9176  0.0727
10093SOL     OW32432   2.734   5.561   2.590  0.0510  0.7634  0.1574
10093SOL    HW132433   2.758   5.550   2.682 -0.2730 -0.0358  0.1562
10093SOL    HW232434   2.815   5.545   2.542 -0.2188 -0.9737  0.2041
10094SOL     OW32435   3.137   2.895   3.197 -0.1819 -0.2838  0.3344
10094SOL    HW132436   3.222   2.922   3.231  0.2807 -1.0792 -0.1471
10094SOL    HW232437   3.142   2.800   3.193 -0.5106 -0.2644 -1.1684
10095SOL     OW32438   6.041   3.190   0.991 -0.4919 -0.1320  0.5413
10095SOL    HW132439   6.120   3.142   1.018 -0.2992  0.2616  0.6799
10095SOL    HW232440   5.977   3.121   0.972  0.0352 -0.4764 -0.0480
10096SOL     OW32441   1.430   7.516   4.569  0.0326  0.0652 -0.2865
10096SOL    HW132442   1.509   7.506   4.516 -0.4251  1.5512 -1.3201
10096SOL    HW232443   1.416   7.610   4.574 -1.3207 -0.1458  0.4075
10097SOL     OW32444   7.908   7.135   4.908 -0.1086  0.5049  0.1108
10097SOL    HW132445   7.912   7.044   4.877 -1.0734 -0.1170  1.6782
10097SOL    HW232446   7.854   7.180   4.844  0.7973  0.1119 -0.9602
10098SOL     OW32447   4.565   8.808   8.834  0.4706  0.2161 -0.2414
10098SOL    HW132448   4.554   8.900   8.857  0.1350  0.1172  0.0019
10098SOL    HW232449   4.491   8.788   8.776  0.5470  0.1010 -0.3017
10099SOL     OW32450   9.585   9.087   0.342 -0.6653 -0.1001  0.5242
10099SOL    HW132451   9.501   9.104   0.386 -1.6907  0.8684 -1.6396
10099SOL    HW232452   9.563   9.023   0.274  0.4074  0.0538  0.0205
10100SOL     OW32453   3.491   2.422   9.119  0.2597 -0.1278  0.3313
10100SOL    HW132454   3.399   2.435   9.140  0.1397  0.0784 -0.3164
10100SOL    HW232455   3.526   2.511   9.111  0.1441 -0.1899 -1.0325
10101SOL     OW32456   3.048   4.592   2.957  0.4182 -0.1286 -0.1122
10101SOL    HW132457   3.073   4.681   2.929 -0.6014  0.6229  1.2217
10101SOL    HW232458   3.099   4.534   2.901  1.5084  1.3021 -0.6680
10102SOL     OW32459   7.937   8.570   4.325  0.0976 -0.3135 -0.3882
10102SOL    HW132460   7.868   8.623   4.285 -1.6577 -1.5764  0.8342
10102SOL    HW232461   7.991   8.541   4.252 -1.2271 -0.0770 -1.4876
10103SOL     OW32462   0.696   2.711   5.388  0.1883  0.1890 -0.0388
10103SOL    HW132463   0.770   2.748   5.339  0.9497 -1.2828 -0.0631
10103SOL    HW232464   0.645   2.787   5.414  1.1904  1.1906 -0.8563
10104SOL     OW32465   3.943   2.846   8.605  0.4331  0.3665 -0.2553
10104SOL    HW132466   4.023   2.871   8.650 -0.6226  0.2889  1.7897
10104SOL    HW232467   3.969   2.773   8.549  1.7393  0.1024  0.6357
10105SOL     OW32468   4.312   2.917   0.135 -0.2005 -0.2337  0.0546
10105SOL    HW132469   4.314   3.013   0.135 -0.8635 -0.2064  0.9453
10105SOL    HW232470   4.266   2.894   0.216 -1.1996 -1.2810 -0.7755
10106SOL     OW32471   8.817   9.496   8.961  0.1092  0.0711  0.2009
10106SOL    HW132472   8.778   9.555   8.896  0.1646  0.2922  0.3677
10106SOL    HW232473   8.824   9.549   9.040  0.5644 -0.0300  0.2311
10107SOL     OW32474   3.671   4.458   3.965 -0.4532  0.3098  0.0798
10107SOL    HW132475   3.630   4.396   4.025 -0.9024  0.6120  0.0966
10107SOL    HW232476   3.736   4.407   3.918 -0.6988 -0.1324  0.2137
10108SOL     OW32477   8.014   6.432   1.870 -0.1361  0.4054 -0.0044
10108SOL    HW132478   7.943   6.460   1.928 -0.4974 -1.2396  0.3867
10108SOL    HW232479   7.970   6.404   1.790  0.1868  0.5667 -0.2396
10109SOL     OW32480   3.123   7.010   2.965  0.4843 -0.4178 -0.0330
10109SOL    HW132481   3.198   6.955   2.989 -0.2628 -0.7209  1.8190
10109SOL    HW232482   3.147   7.049   2.881  2.4845 -0.9195  0.2594
10110SOL     OW32483   6.597   6.477   1.323  0.2494 -0.0542  0.4887
10110SOL    HW132484   6.529   6.536   1.355 -0.4226 -1.2585  1.3724
10110SOL    HW232485   6.629   6.432   1.401  0.6092 -1.0044 -0.1855
10111SOL     OW32486   4.784   8.862   8.579 -0.1575  0.0597 -0.1805
10111SOL    HW132487   4.791   8.831   8.488  0.2853  1.1586 -0.5393
10111SOL    HW232488   4.697   8.834   8.607 -0.9455  1.0606 -1.4921
10112SOL     OW32489   1.059   8.205   9.489 -0.1076  0.4686 -0.2120
10112SOL    HW132490   1.029   8.174   9.574  0.3169  1.5136  0.3301
10112SOL    HW232491   1.027   8.139   9.427 -1.5171  0.3441  0.5989
10113SOL     OW32492   9.162   5.135   3.348  0.3123  0.4500 -0.0274
10113SOL    HW132493   9.134   5.099   3.432  0.3572  0.4056 -0.0311
10113SOL    HW232494   9.213   5.064   3.308  1.3718  0.9118  0.4542
10114SOL     OW32495   9.336   6.210   4.313  0.5159  0.1879  0.2477
10114SOL    HW132496   9.390   6.283   4.279 -0.8958  1.3662  0.4327
10114SOL    HW232497   9.256   6.252   4.343  0.1466 -1.3292  1.4951
10115SOL     OW32498   2.693   7.176   2.830 -0.4316 -0.7873 -0.2138
10115SOL    HW132499   2.750   7.127   2.890  0.1720 -0.6579 -0.6683
10115SOL    HW232500   2.606   7.168   2.868  0.1293  0.4065  1.3942
10116SOL     OW32501   4.759   2.461   4.554 -0.0401  0.0533 -0.0698
10116SOL    HW132502   4.821   2.502   4.494 -1.5534  0.9029 -1.1298
10116SOL    HW232503   4.673   2.496   4.528 -0.8426 -0.0472  2.1644
10117SOL     OW32504   0.275   3.184   8.386 -0.4470  0.3825  0.2799
10117SOL    HW132505   0.297   3.225   8.470 -4.0646  0.8013  1.1977
10117SOL    HW232506   0.294   3.091   8.400 -0.0905  0.5781  1.1899
10118SOL     OW32507   2.892   6.393   5.496  0.6598 -0.7292  0.0646
10118SOL    HW132508   2.832   6.442   5.439 -0.2483 -1.9793 -0.0898
10118SOL    HW232509   2.961   6.456   5.517  0.1251  0.2742 -1.0383
10119SOL     OW32510   8.639   4.823   8.342 -0.8584 -0.4323 -0.0093
10119SOL    HW132511   8.612   4.742   8.384  1.2391 -0.0395  2.3662
10119SOL    HW232512   8.566   4.884   8.357 -0.8585 -0.8067  1.6644
10120SOL     OW32513   2.101   6.072   8.579  0.8750  0.4256 -0.3984
10120SOL    HW132514   2.125   6.066   8.486  2.6756  0.2012  0.0488
10120SOL    HW232515   2.126   5.987   8.615 -0.1907  0.3642  0.2261
10121SOL     OW32516   0.868   6.592   5.319 -0.5424  0.1131 -0.0483
10121SOL    HW132517   0.859   6.554   5.232  2.2190 -0.9293  0.0319
10121SOL    HW232518   0.783   6.577   5.361 -1.6262 -0.1677 -2.2237
10122SOL     OW32519   3.867   6.701   5.446 -0.1594 -0.6276  0.6101
10122SOL    HW132520   3.847   6.653   5.527  0.2690 -1.2501  0.3533
10122SOL    HW232521   3.961   6.689   5.434 -0.4059 -1.4912 -0.5887
10123SOL     OW32522   1.157   2.172   8.846  0.5356  0.0701  0.0550
10123SOL    HW132523   1.214   2.133   8.912  0.8369  0.5490  0.0836
10123SOL    HW232524   1.093   2.104   8.826  0.4427 -0.0769  0.8406
10124SOL     OW32525   9.272   8.484   6.082  0.5912 -0.7364 -0.1953
10124SOL    HW132526   9.319   8.401   6.072  2.8398  0.4043  0.1145
10124SOL    HW232527   9.340   8.546   6.111 -1.7083  0.3057  3.8225
10125SOL     OW32528   2.054   3.869   5.783 -0.4855 -0.2397 -0.2303
10125SOL    HW132529   1.991   3.884   5.852 -0.2759  1.8031 -0.4299
10125SOL    HW232530   2.034   3.934   5.716  1.6401  0.3138 -0.4125
10126SOL     OW32531   3.754   3.567   7.315  0.3924  0.5731  0.1465
10126SOL    HW132532   3.786   3.556   7.405 -0.3422  1.0088  0.4712
10126SOL    HW232533   3.707   3.485   7.296  1.0163  0.2553 -0.0457
10127SOL     OW32534   7.254   0.601   0.906 -0.0108  0.2548 -0.3772
10127SOL    HW132535   7.280   0.685   0.945  0.9204 -0.5730  0.8576
10127SOL    HW232536   7.327   0.542   0.925 -0.0818 -0.5310 -2.3376
10128SOL     OW32537   9.576   3.848   4.906 -0.1110 -0.3569  0.0149
10128SOL    HW132538   9.622   3.856   4.989  1.3765  1.3080 -0.9063
10128SOL    HW232539   9.624   3.780   4.858 -0.1021 -0.3257 -0.0203
10129SOL     OW32540   0.606   8.161   5.144  0.6126 -0.5708  0.5922
10129SOL    HW132541   0.609   8.188   5.236  1.0054  0.8395  0.1855
10129SOL    HW232542   0.517   8.181   5.116  1.0434  0.8262  0.1568
10130SOL     OW32543   9.147   2.972   1.244 -0.4728 -0.2607  0.5005
10130SOL    HW132544   9.157   2.899   1.184 -0.3269  1.3875 -1.6026
10130SOL    HW232545   9.055   2.996   1.239  0.0251  1.6615 -1.4299
10131SOL     OW32546   5.512   6.482   4.137 -0.0647  0.3014 -0.2727
10131SOL    HW132547   5.566   6.559   4.155  0.8984 -0.5228  0.4976
10131SOL    HW232548   5.444   6.514   4.077  0.4673  1.6768 -0.1888
10132SOL     OW32549   8.426   3.815   4.806 -0.0319 -0.0808  0.0097
10132SOL    HW132550   8.343   3.825   4.760  0.1176 -0.7772 -0.4175
10132SOL    HW232551   8.450   3.905   4.830 -0.5497  0.2019 -0.4866
10133SOL     OW32552   2.519   8.931   6.516 -0.0501 -0.5614 -0.2869
10133SOL    HW132553   2.543   9.008   6.568 -1.4902 -0.3564  0.1418
10133SOL    HW232554   2.521   8.859   6.579  1.5484 -0.9452 -0.7451
10134SOL     OW32555   1.128   2.871   3.888  0.6549  0.1213 -0.1936
10134SOL    HW132556   1.120   2.953   3.938 -1.0234 -0.5046  0.6664
10134SOL    HW232557   1.175   2.812   3.947 -0.9508 -0.4851  0.5427
10135SOL     OW32558   5.247   0.665   9.323 -0.3419  0.2797  0.0614
10135SOL    HW132559   5.306   0.590   9.319  0.4559  0.8584  0.7364
10135SOL    HW232560   5.278   0.717   9.397 -1.2290  0.9931 -0.0443
10136SOL     OW32561   0.346   4.732   6.654  0.0939  0.7091  0.6051
10136SOL    HW132562   0.295   4.812   6.672 -0.7531  0.2094  0.4747
10136SOL    HW232563   0.425   4.741   6.708  0.3231  1.9363  0.0964
10137SOL     OW32564   3.605   7.733   8.999  0.2859  0.0833 -0.5440
10137SOL    HW132565   3.649   7.680   9.066 -1.6104 -0.2097  0.5645
10137SOL    HW232566   3.647   7.819   9.004  0.4920 -0.0754  0.7170
10138SOL     OW32567   8.499   4.751   6.096 -0.0358  0.7251 -0.2380
10138SOL    HW132568   8.456   4.826   6.056 -0.0097  0.6385 -0.4317
10138SOL    HW232569   8.584   4.784   6.125 -0.2581  0.9144  0.2090
10139SOL     OW32570   7.382   5.176   4.975 -0.0017 -0.1173  0.0246
10139SOL    HW132571   7.303   5.141   4.934  1.8106 -2.9687 -1.3566
10139SOL    HW232572   7.394   5.124   5.054  1.3640 -1.0037 -0.7086
10140SOL     OW32573   4.981   0.227   4.308  0.5953 -0.5451 -0.6422
10140SOL    HW132574   5.036   0.207   4.384 -0.3250 -1.9176 -0.3098
10140SOL    HW232575   4.936   0.145   4.289 -2.4404  0.8570 -0.0200
10141SOL     OW32576   3.110   0.340   2.512 -0.4423 -0.0315  0.1240
10141SOL    HW132577   3.020   0.332   2.544 -0.1106  1.3845  1.5153
10141SOL    HW232578   3.135   0.430   2.532  0.9351 -0.0737 -1.2345
10142SOL     OW32579   0.301   0.203   2.286  0.6448  0.3938  0.3745
10142SOL    HW132580   0.381   0.167   2.324  0.7301  0.4070  0.2088
10142SOL    HW232581   0.244   0.219   2.361  0.2341 -0.9824  0.3930
10143SOL     OW32582   9.336   8.391   5.456 -1.0853  0.0977  0.4217
10143SOL    HW132583   9.388   8.369   5.379 -2.3772  0.0011 -0.4488
10143SOL    HW232584   9.348   8.485   5.467 -1.6381  0.2774 -0.4701
10144SOL     OW32585   3.224   6.298   6.691 -0.2585 -0.0025 -0.2635
10144SOL    HW132586   3.301   6.322   6.638 -0.0804  1.9873  0.7794
10144SOL    HW232587   3.261   6.263   6.772 -0.2994  2.3939  0.8955
10145SOL     OW32588   2.594   2.387   7.203 -0.7180  0.1483  0.0709
10145SOL    HW132589   2.639   2.327   7.145 -0.6675 -0.6088  0.8672
10145SOL    HW232590   2.541   2.331   7.259 -0.8602  0.8594  0.6691
10146SOL     OW32591   1.550   7.372   1.658  0.1670  0.0040 -0.0269
10146SOL    HW132592   1.551   7.467   1.644  2.8074 -0.1383 -1.2973
10146SOL    HW232593   1.505   7.361   1.742 -3.9616  2.0003 -1.7004
10147SOL     OW32594   5.870   3.225   8.265  0.1769 -0.1831 -0.0245
10147SOL    HW132595   5.949   3.261   8.305 -0.1966 -0.0201  0.5745
10147SOL    HW232596   5.849   3.285   8.193  0.6803 -0.3148 -0.2860
10148SOL     OW32597   3.573   1.348   5.477  0.1483  0.4437 -0.0588
10148SOL    HW132598   3.552   1.274   5.534  0.5488 -0.7292 -1.3767
10148SOL    HW232599   3.490   1.392   5.464 -0.0760  0.3154  0.8451
10149SOL     OW32600   6.036   2.037   6.904  0.0450  0.2656 -0.4359
10149SOL    HW132601   5.962   1.996   6.949 -0.9822  1.1445 -1.2496
10149SOL    HW232602   6.072   1.969   6.849  0.3848 -0.4049  0.5823
10150SOL     OW32603   1.452   5.889   6.340 -0.1654 -0.1497  0.0662
10150SOL    HW132604   1.404   5.834   6.403 -1.8517 -0.5069 -1.4207
10150SOL    HW232605   1.461   5.833   6.263  0.6675  0.7121 -0.4757
10151SOL     OW32606   2.719   4.937   9.000 -0.1095  0.7866 -0.2779
10151SOL    HW132607   2.681   4.939   8.912 -2.8285 -0.6595  0.7536
10151SOL    HW232608   2.689   5.018   9.041 -0.9046  0.3172  0.0798
10152SOL     OW32609   7.084   3.437   0.776  0.0694  0.0233 -0.9938
10152SOL    HW132610   7.050   3.473   0.694  1.3691  1.0516 -1.1127
10152SOL    HW232611   7.179   3.439   0.765  0.2919  0.9442  0.8565
10153SOL     OW32612   5.245   6.218   7.259 -0.1149  0.4012  0.6438
10153SOL    HW132613   5.239   6.250   7.349 -0.3401 -3.0724  2.0355
10153SOL    HW232614   5.327   6.254   7.226 -0.3265  2.2653  1.9503
10154SOL     OW32615   3.302   8.843   3.909 -0.1840 -0.0976  0.0483
10154SOL    HW132616   3.363   8.882   3.972 -0.4677  1.0146 -0.3525
10154SOL    HW232617   3.357   8.784   3.856 -0.0540 -1.5718  1.7168
10155SOL     OW32618   9.594   2.841   0.333  0.2017  0.1197 -0.1593
10155SOL    HW132619   9.680   2.876   0.307  0.0974 -0.7365 -1.8138
10155SOL    HW232620   9.541   2.848   0.253 -1.5376  1.3272  1.0286
10156SOL     OW32621   8.906   1.853   7.007  0.2133  0.3581 -0.0214
10156SOL    HW132622   8.902   1.939   6.966  0.0384  0.3443 -0.0369
10156SOL    HW232623   8.880   1.792   6.938  0.2256  0.3044  0.0207
10157SOL     OW32624   9.534   1.541   8.379 -0.2204 -0.2832 -0.4762
10157SOL    HW132625   9.526   1.605   8.449  0.0297 -0.6973 -0.0687
10157SOL    HW232626   9.444   1.524   8.351 -0.3122 -0.0568 -0.3180
10158SOL     OW32627   8.189   0.798   3.337  0.3591 -0.0974  0.3053
10158SOL    HW132628   8.189   0.817   3.243  4.4747  0.7906  0.2795
10158SOL    HW232629   8.154   0.709   3.343  0.9148 -0.5787 -2.2140
10159SOL     OW32630   9.612   0.512   2.237 -0.0651 -0.8746 -0.0164
10159SOL    HW132631   9.608   0.531   2.143  0.7550  2.0613  0.4306
10159SOL    HW232632   9.705   0.519   2.258 -0.3992  0.0510  1.2489
10160SOL     OW32633   7.111   4.241   3.887  0.4945  0.5425 -0.0245
10160SOL    HW132634   7.036   4.272   3.837  0.6159  1.8327  0.5605
10160SOL    HW232635   7.105   4.145   3.882 -0.3681  0.6348 -1.1718
10161SOL     OW32636   6.193   7.730   4.522  0.1780 -0.7252  0.3164
10161SOL    HW132637   6.272   7.772   4.556  1.8494 -2.1346 -1.5776
10161SOL    HW232638   6.193   7.643   4.562 -0.5596 -0.6555  0.4747
10162SOL     OW32639   3.433   6.890   8.997  0.0964 -0.9272  0.2753
10162SOL    HW132640   3.521   6.905   8.963 -0.1271 -0.0697  0.0456
10162SOL    HW232641   3.394   6.825   8.939 -0.2760  0.4999 -1.1336
10163SOL     OW32642   9.367   9.101   3.262  0.2623 -0.4944  0.0704
10163SOL    HW132643   9.414   9.129   3.340  0.6127  0.2457 -0.4050
10163SOL    HW232644   9.352   9.007   3.276  0.0944 -0.3235  1.1391
10164SOL     OW32645   3.199   5.246   4.435  0.2193 -0.0558  0.2380
10164SOL    HW132646   3.280   5.261   4.386  1.3417  1.2350  2.3458
10164SOL    HW232647   3.221   5.175   4.496 -0.3169  0.1216  0.6472
10165SOL     OW32648   3.243   5.718   0.945 -0.3212  0.5630 -0.2917
10165SOL    HW132649   3.216   5.795   0.895  0.3025  0.4257 -0.8448
10165SOL    HW232650   3.334   5.734   0.968 -0.4835  0.4473  0.4795
10166SOL     OW32651   2.919   9.188   8.917  0.0472 -0.4668 -0.2011
10166SOL    HW132652   2.851   9.252   8.897  1.0337  0.3691 -1.0182
10166SOL    HW232653   2.985   9.201   8.848  1.1045 -1.1380  0.6511
10167SOL     OW32654   2.591   7.393   3.889 -0.3332  0.0110 -0.5897
10167SOL    HW132655   2.529   7.352   3.950 -0.2740 -0.8702 -1.0977
10167SOL    HW232656   2.539   7.413   3.812 -0.4336  1.2410 -0.2275
10168SOL     OW32657   8.228   2.326   3.703 -0.0989  0.7680  0.2177
10168SOL    HW132658   8.165   2.269   3.746  1.4488  0.5020  2.2625
10168SOL    HW232659   8.306   2.272   3.691  1.1656  2.1765  1.5790
10169SOL     OW32660   8.488   6.126   4.346  0.0272 -0.3718  0.5906
10169SOL    HW132661   8.466   6.067   4.274 -1.3027  1.7136 -0.8203
10169SOL    HW232662   8.584   6.122   4.351  0.0354 -1.8901 -0.0993
10170SOL     OW32663   6.158   3.049   3.711 -0.5662  0.1630  0.1958
10170SOL    HW132664   6.089   2.990   3.680 -1.0853 -0.1078  1.7975
10170SOL    HW232665   6.173   3.023   3.802  0.5646  1.2362  0.3365
10171SOL     OW32666   5.153   0.367   0.868  0.4598 -0.3158  0.0199
10171SOL    HW132667   5.244   0.338   0.871  1.4393  2.1470 -2.0832
10171SOL    HW232668   5.135   0.401   0.955  0.4311 -3.5379  1.4155
10172SOL     OW32669   0.716   0.983   7.853  0.5064 -0.0167 -0.4790
10172SOL    HW132670   0.647   1.050   7.853  1.4212  0.9590 -1.7969
10172SOL    HW232671   0.681   0.914   7.797 -0.1371 -0.3383  0.2996
10173SOL     OW32672   5.276   3.382   3.928 -0.0110 -0.0161 -0.2273
10173SOL    HW132673   5.315   3.469   3.933 -0.7616  0.3633 -0.6401
10173SOL    HW232674   5.320   3.331   3.995  1.3270  0.3237 -0.8174
10174SOL     OW32675   0.947   3.115   3.341 -0.0101 -0.0508 -0.4181
10174SOL    HW132676   1.021   3.065   3.376 -0.5832 -0.3049  0.4616
10174SOL    HW232677   0.881   3.113   3.411 -0.0254  1.9958 -0.3088
10175SOL     OW32678   9.490   0.048   4.927  0.2740 -0.2523 -0.3427
10175SOL    HW132679   9.543   0.078   4.854  0.4503  0.7261  0.1718
10175SOL    HW232680   9.547   0.057   5.004  0.1985 -1.5558 -0.1094
10176SOL     OW32681   7.179   2.845   8.537 -0.0686  0.2023 -0.5730
10176SOL    HW132682   7.243   2.860   8.607 -0.8970 -0.8175  0.4579
10176SOL    HW232683   7.116   2.917   8.545 -0.3692 -0.1127  0.0124
10177SOL     OW32684   9.020   2.188   1.807 -0.0471  0.5425 -0.3269
10177SOL    HW132685   8.960   2.206   1.735 -1.6575  0.4484  0.9252
10177SOL    HW232686   9.089   2.254   1.798 -1.3875  1.9605 -0.6952
10178SOL     OW32687   8.906   3.188   6.185 -0.6876 -0.2859 -0.3610
10178SOL    HW132688   8.931   3.212   6.095 -1.6240 -0.2032 -0.6127
10178SOL    HW232689   8.965   3.117   6.208 -1.4274 -1.3416 -1.6145
10179SOL     OW32690   8.635   7.437   1.058 -0.4943 -0.7445  0.5472
10179SOL    HW132691   8.572   7.477   0.998 -1.3101  0.1853  1.9540
10179SOL    HW232692   8.720   7.454   1.017 -1.0973 -1.7720 -1.2429
10180SOL     OW32693   5.255   2.379   1.205  0.1028  0.0065  0.4030
10180SOL    HW132694   5.305   2.320   1.149  1.2454  1.6446 -0.3852
10180SOL    HW232695   5.175   2.330   1.227  0.9335 -1.7450 -0.3110
10181SOL     OW32696   4.306   5.591   6.903  0.3868  0.2752 -0.1227
10181SOL    HW132697   4.328   5.562   6.992  1.0666  0.1265 -0.3280
10181SOL    HW232698   4.272   5.679   6.914 -2.7005 -0.8939  0.6282
10182SOL     OW32699   5.310   8.005   8.353 -0.4201 -0.6163  0.1332
10182SOL    HW132700   5.244   8.068   8.381 -0.6735 -1.0544  0.5257
10182SOL    HW232701   5.294   7.928   8.406  1.4623 -0.1620  1.4819
10183SOL     OW32702   5.608   1.626   1.460  0.1020 -0.1094  0.0096
10183SOL    HW132703   5.659   1.559   1.415 -1.8224 -0.6637 -1.4915
10183SOL    HW232704   5.583   1.587   1.543 -0.1003 -0.8554 -0.3973
10184SOL     OW32705   4.104   2.363   6.036 -0.4351  0.0589 -0.2630
10184SOL    HW132706   4.106   2.341   5.942  0.0556 -1.5896  0.0924
10184SOL    HW232707   4.037   2.305   6.072 -0.1928  0.2588  0.5150
10185SOL     OW32708   7.559   8.708   9.064  0.2631  0.4814  0.1775
10185SOL    HW132709   7.606   8.676   9.141  0.1812  0.2581  0.1376
10185SOL    HW232710   7.598   8.661   8.991  0.2459  0.5887  0.1002
10186SOL     OW32711   0.700   1.243   7.108  0.4344 -0.7994 -0.3820
10186SOL    HW132712   0.781   1.267   7.062  0.0921 -0.0482 -0.5942
10186SOL    HW232713   0.642   1.211   7.038  0.5995 -1.5108 -0.2065
10187SOL     OW32714   7.498   5.400   5.369 -0.1960 -0.3538  0.4023
10187SOL    HW132715   7.536   5.483   5.341 -1.6590  0.3314  0.3521
10187SOL    HW232716   7.564   5.334   5.345 -0.9032  0.2155 -3.9445
10188SOL     OW32717   6.992   6.840   0.747 -0.2709  0.2857 -0.5396
10188SOL    HW132718   7.081   6.846   0.714  0.5257 -1.5687  1.1127
10188SOL    HW232719   6.958   6.758   0.711 -0.5640 -0.0673  0.5083
10189SOL     OW32720   9.006   0.680   0.980 -0.4212 -0.5710  0.9736
10189SOL    HW132721   9.055   0.709   0.903 -1.6387  0.8922  0.7078
10189SOL    HW232722   9.050   0.723   1.053 -0.7136 -0.0225  0.8329
10190SOL     OW32723   0.112   6.237   5.219 -0.5484 -0.4108 -0.1806
10190SOL    HW132724   0.180   6.202   5.275 -0.7849 -1.2654 -0.4173
10190SOL    HW232725   0.149   6.318   5.184  0.2987 -0.8063 -0.2237
10191SOL     OW32726   7.250   5.623   8.264  0.2443 -0.5102  0.2682
10191SOL    HW132727   7.207   5.543   8.295 -0.5278  0.1954  1.0966
10191SOL    HW232728   7.270   5.606   8.172 -1.5247 -1.0194 -0.0680
10192SOL     OW32729   7.553   9.469   4.387 -0.0406 -0.2738 -0.3174
10192SOL    HW132730   7.465   9.435   4.371 -0.6037  1.6641 -1.6119
10192SOL    HW232731   7.549   9.501   4.477 -1.1619  1.1419 -0.8341
10193SOL     OW32732   6.289   3.856   8.712  0.2693  0.3208  0.5231
10193SOL    HW132733   6.373   3.815   8.690 -0.4972 -0.2777 -1.4827
10193SOL    HW232734   6.311   3.921   8.779  2.0076 -1.1497  1.4719
10194SOL     OW32735   1.383   5.677   1.418  0.2845 -0.2812 -0.1639
10194SOL    HW132736   1.426   5.751   1.375 -1.1624  1.9009  1.8859
10194SOL    HW232737   1.427   5.670   1.503 -0.9823 -0.3611  0.5105
10195SOL     OW32738   7.679   6.411   8.300 -0.2999  0.5274  0.3367
10195SOL    HW132739   7.633   6.435   8.381  0.1710 -0.9866  1.0982
10195SOL    HW232740   7.637   6.464   8.232 -1.6567  0.8276  1.3558
10196SOL     OW32741   0.127   8.258   1.093 -0.7948  0.1624 -0.2091
10196SOL    HW132742   0.051   8.216   1.134  0.5952 -1.4676  0.8270
10196SOL    HW232743   0.144   8.204   1.015 -0.6147  0.4523 -0.3735
10197SOL     OW32744   5.846   9.412   5.150  0.2415  0.0067  0.2305
10197SOL    HW132745   5.806   9.391   5.065 -0.2221  0.2097  0.3976
10197SOL    HW232746   5.789   9.371   5.215  0.9557 -0.6964  0.4204
10198SOL     OW32747   0.600   0.316   6.946 -0.2055 -0.0002 -0.3500
10198SOL    HW132748   0.654   0.389   6.917  0.7800 -0.7003 -0.3678
10198SOL    HW232749   0.621   0.306   7.040  0.0209 -0.5254 -0.4488
10199SOL     OW32750   6.480   7.432   7.901 -0.3365 -0.4081 -0.7844
10199SOL    HW132751   6.544   7.492   7.862  0.1513  1.3422  2.3175
10199SOL    HW232752   6.421   7.489   7.949 -0.0395 -2.3316  2.1069
10200SOL     OW32753   7.192   5.657   0.681  0.0892  0.3384 -0.2886
10200SOL    HW132754   7.212   5.750   0.674  1.1251  0.1218 -0.3487
10200SOL    HW232755   7.228   5.619   0.601  0.2950 -0.2131  0.0612
10201SOL     OW32756   3.900   6.907   7.300  0.5305  0.4145  0.6534
10201SOL    HW132757   3.986   6.870   7.321  1.0164  1.2335  0.1499
10201SOL    HW232758   3.894   6.987   7.352  1.0034  1.5170 -0.9248
10202SOL     OW32759   7.444   8.489   8.829 -0.0734 -0.3105  0.0179
10202SOL    HW132760   7.442   8.422   8.898 -1.0783  0.7905  1.0996
10202SOL    HW232761   7.352   8.502   8.806  0.2317 -0.4681 -1.3698
10203SOL     OW32762   1.759   1.681   8.639 -0.3999  0.1219 -0.3736
10203SOL    HW132763   1.835   1.682   8.580  0.4702  0.4463  0.7150
10203SOL    HW232764   1.696   1.624   8.596 -0.2120  1.1763 -2.1264
10204SOL     OW32765   2.114   2.315   0.558  0.2664  0.1820 -0.4473
10204SOL    HW132766   2.060   2.384   0.520  1.3405  0.4031 -1.6328
10204SOL    HW232767   2.130   2.343   0.648 -0.6633  0.6566 -0.4231
10205SOL     OW32768   7.404   2.428   0.065  0.9558 -0.2057  0.1591
10205SOL    HW132769   7.389   2.493   0.134  0.5853 -0.5722  0.4283
10205SOL    HW232770   7.487   2.455   0.025  1.4392 -0.2711  1.0703
10206SOL     OW32771   8.689   0.833   3.723 -0.8175  0.0871 -0.3381
10206SOL    HW132772   8.747   0.840   3.647 -0.3206  0.2742  0.0515
10206SOL    HW232773   8.609   0.793   3.689  0.3201 -2.2409 -0.5007
10207SOL     OW32774   5.744   3.400   1.137 -0.1098 -0.1279 -0.4371
10207SOL    HW132775   5.838   3.392   1.153  0.0586  0.0405 -1.3095
10207SOL    HW232776   5.727   3.494   1.135 -0.0847 -0.1414 -1.4535
10208SOL     OW32777   4.815   8.232   0.449  0.5539  0.1688 -0.0006
10208SOL    HW132778   4.756   8.173   0.402  0.7516 -1.9839  2.2057
10208SOL    HW232779   4.789   8.320   0.422 -0.4430 -0.8534 -2.6970
10209SOL     OW32780   9.046   6.277   1.737  0.5480 -0.2129  0.4415
10209SOL    HW132781   9.050   6.371   1.717 -0.5310 -0.3223 -0.3639
10209SOL    HW232782   8.983   6.271   1.809  0.7332 -0.2986  0.5948
10210SOL     OW32783   2.007   2.808   2.200 -0.3431  0.3654  0.0730
10210SOL    HW132784   2.015   2.791   2.294 -1.0545  0.9472  0.2537
10210SOL    HW232785   1.913   2.806   2.183 -0.1825 -0.5985 -0.8106
10211SOL     OW32786   3.588   0.215   6.615  0.2580 -0.1092 -0.3884
10211SOL    HW132787   3.634   0.263   6.684  1.2771  2.0809 -2.4424
10211SOL    HW232788   3.649   0.146   6.588  0.4492 -0.0567 -0.0913
10212SOL     OW32789   3.405   5.127   4.267  0.3091  0.1028  0.0804
10212SOL    HW132790   3.488   5.116   4.220 -0.4364  0.6296 -1.4295
10212SOL    HW232791   3.346   5.063   4.226 -0.9186  1.9109 -1.1252
10213SOL     OW32792   2.665   3.248   7.038  0.1222  0.4565 -0.2250
10213SOL    HW132793   2.625   3.235   6.952 -0.8761 -1.8541  0.5148
10213SOL    HW232794   2.637   3.335   7.065 -0.8825  0.5686 -1.5596
10214SOL     OW32795   6.930   6.888   8.629 -0.0313 -0.1431 -0.7433
10214SOL    HW132796   7.022   6.900   8.653 -0.8117  2.8862  1.2922
10214SOL    HW232797   6.925   6.917   8.538  1.0536 -0.6585 -0.9853
10215SOL     OW32798   6.841   6.558   5.756  0.2222  0.2367 -0.5496
10215SOL    HW132799   6.859   6.465   5.771  0.9292  0.5520  0.6500
10215SOL    HW232800   6.751   6.561   5.725 -0.4374 -0.7112  1.1594
10216SOL     OW32801   3.217   0.705   0.210  0.6830  0.6709 -0.2069
10216SOL    HW132802   3.257   0.663   0.134 -0.3711  0.7869 -0.8403
10216SOL    HW232803   3.163   0.774   0.173 -1.9572 -0.9391  0.4143
10217SOL     OW32804   5.554   2.646   9.139 -0.2059  0.5755 -0.5103
10217SOL    HW132805   5.475   2.695   9.163 -0.6761 -0.0686 -0.6995
10217SOL    HW232806   5.535   2.556   9.165  0.4978  0.4259 -0.4996
10218SOL     OW32807   5.333   5.364   5.259 -0.1473  0.3766  0.2806
10218SOL    HW132808   5.380   5.447   5.255  0.4743  0.0218  0.0986
10218SOL    HW232809   5.243   5.389   5.281  0.7551  0.8932  4.2662
10219SOL     OW32810   3.287   6.025   5.869 -0.3418  0.7488  0.0119
10219SOL    HW132811   3.340   5.989   5.940  0.2408  3.8021  1.2509
10219SOL    HW232812   3.339   6.010   5.790  0.3080 -0.1631  0.5892
10220SOL     OW32813   7.319   9.147   0.338 -0.5129  0.0226 -0.3361
10220SOL    HW132814   7.273   9.063   0.338 -0.8264  0.0661 -3.5739
10220SOL    HW232815   7.384   9.138   0.268 -0.5390  2.4478 -0.7524
10221SOL     OW32816   2.122   5.558   8.842 -0.2117  0.4549 -1.1361
10221SOL    HW132817   2.044   5.604   8.874  1.3438  1.4451  1.5230
10221SOL    HW232818   2.089   5.473   8.812 -2.4143  1.1960 -0.9964
10222SOL     OW32819   9.325   4.344   8.647 -0.5297  0.0331 -0.3339
10222SOL    HW132820   9.270   4.407   8.694 -1.0358 -0.6590  0.0193
10222SOL    HW232821   9.329   4.268   8.706 -0.4600 -0.5105 -1.0328
10223SOL     OW32822   2.312   2.715   9.272 -1.1284  0.5263 -0.3115
10223SOL    HW132823   2.287   2.754   9.188 -0.5452 -0.0559 -0.7607
10223SOL    HW232824   2.374   2.646   9.250 -0.1978  1.0119  0.6659
10224SOL     OW32825   5.971   2.030   7.733 -0.7058  0.4291 -0.1511
10224SOL    HW132826   6.019   2.100   7.689 -1.6541  1.1861 -0.0047
10224SOL    HW232827   6.031   1.955   7.731 -0.2480  0.8009 -1.6296
10225SOL     OW32828   9.190   3.579   4.402 -0.2846 -0.2271  0.2487
10225SOL    HW132829   9.121   3.534   4.352  0.5382 -1.0356 -0.1979
10225SOL    HW232830   9.249   3.613   4.335  0.6351 -0.9992  0.6428
10226SOL     OW32831   3.092   4.046   8.309 -0.0744 -0.1668 -0.8944
10226SOL    HW132832   3.001   4.073   8.303 -0.0867  0.0032 -0.0987
10226SOL    HW232833   3.142   4.128   8.305 -0.0749 -0.0459  0.7630
10227SOL     OW32834   6.780   1.360   1.147 -0.4199 -0.3596  0.5684
10227SOL    HW132835   6.874   1.346   1.140 -0.4398  0.0705 -0.8949
10227SOL    HW232836   6.760   1.423   1.078 -2.0444 -1.7467 -0.2971
10228SOL     OW32837   4.336   4.168   6.430  0.3689 -0.0577 -0.0224
10228SOL    HW132838   4.245   4.185   6.454  0.2773  0.7792 -0.9226
10228SOL    HW232839   4.362   4.095   6.487 -1.1204 -0.8817 -0.3359
10229SOL     OW32840   7.056   5.857   3.176  0.4324  0.6272 -0.0427
10229SOL    HW132841   6.986   5.812   3.130 -0.1597  0.6561  0.8042
10229SOL    HW232842   7.128   5.795   3.178  0.1351  0.2763 -0.1722
10230SOL     OW32843   2.229   6.018   3.016  0.0832 -0.1796 -0.2907
10230SOL    HW132844   2.172   5.964   2.962  1.7135 -1.2255 -1.0504
10230SOL    HW232845   2.223   5.980   3.104 -1.6632  0.7932  0.0532
10231SOL     OW32846   7.476   1.608   7.824 -0.0279 -0.1132 -0.0935
10231SOL    HW132847   7.483   1.702   7.809  2.2195 -0.2583 -0.2241
10231SOL    HW232848   7.539   1.569   7.763 -1.3185 -1.7746 -0.4488
10232SOL     OW32849   0.640   5.425   3.896  0.0987 -0.2375 -0.1289
10232SOL    HW132850   0.629   5.337   3.931  0.0410  0.2798  1.1949
10232SOL    HW232851   0.581   5.429   3.821 -0.2012 -1.1792  0.0479
10233SOL     OW32852   9.434   6.750   7.197 -0.1458 -0.1649  0.1207
10233SOL    HW132853   9.382   6.830   7.197  1.1892  0.7462 -1.1469
10233SOL    HW232854   9.511   6.772   7.248  0.5257 -0.4171 -0.7619
10234SOL     OW32855   1.221   6.320   1.490 -0.2838  0.5771 -0.1006
10234SOL    HW132856   1.180   6.237   1.515  0.0652  0.3193 -0.3596
10234SOL    HW232857   1.263   6.351   1.570 -1.6645  1.2594  0.3767
10235SOL     OW32858   4.575   4.382   2.358  0.2481 -0.5490 -0.1407
10235SOL    HW132859   4.546   4.322   2.290 -0.4897 -0.8099  0.3987
10235SOL    HW232860   4.496   4.402   2.409  0.8859 -0.7922  0.9748
10236SOL     OW32861   3.546   4.449   8.106  0.3076  0.3734 -0.1710
10236SOL    HW132862   3.512   4.511   8.042 -1.9175 -0.3781  0.1804
10236SOL    HW232863   3.528   4.363   8.068  1.0068 -0.0697  0.4717
10237SOL     OW32864   4.552   4.300   9.002 -0.1505  0.2274  0.2992
10237SOL    HW132865   4.459   4.312   8.982 -0.6064 -1.4650  1.2198
10237SOL    HW232866   4.595   4.307   8.917 -1.2352  0.0066 -0.2952
10238SOL     OW32867   8.715   0.203   0.701 -0.0124 -0.7637  0.2354
10238SOL    HW132868   8.677   0.145   0.635  1.1289 -1.9638  0.6017
10238SOL    HW232869   8.643   0.261   0.726 -1.1367 -1.9101 -0.2591
10239SOL     OW32870   5.059   6.214   7.772  0.5334 -0.4177  0.1032
10239SOL    HW132871   5.009   6.275   7.826  0.9930 -0.0648  0.1372
10239SOL    HW232872   5.010   6.209   7.690  0.5682  0.1141  0.0463
10240SOL     OW32873   4.734   1.587   8.457 -0.4034 -0.0175 -0.4082
10240SOL    HW132874   4.659   1.535   8.429  0.6059 -0.1675 -3.2066
10240SOL    HW232875   4.809   1.544   8.416  0.8403  1.8064 -0.1538
10241SOL     OW32876   9.064   7.290   3.905  0.4151 -0.4726  0.2217
10241SOL    HW132877   9.056   7.356   3.973  1.0499 -0.0712 -0.0888
10241SOL    HW232878   9.158   7.284   3.887  0.1490  2.1579 -3.2041
10242SOL     OW32879   7.296   8.336   4.543 -0.1494  0.1980 -0.5807
10242SOL    HW132880   7.367   8.361   4.484  1.0303 -0.6238  0.4604
10242SOL    HW232881   7.272   8.417   4.588  1.5188  0.1121  0.5184
10243SOL     OW32882   5.071   7.841   3.930  0.1850 -0.2079  0.2907
10243SOL    HW132883   5.089   7.933   3.910 -1.1621  0.0677  0.2416
10243SOL    HW232884   5.156   7.805   3.954  0.5043  1.4519  1.9453
10244SOL     OW32885   3.888   3.826   8.633  0.6243  0.7801  0.1394
10244SOL    HW132886   3.821   3.893   8.649 -0.5095 -0.8864  3.4303
10244SOL    HW232887   3.911   3.836   8.541 -3.9758  1.6899 -1.1647
10245SOL     OW32888   0.540   4.372   3.899  0.6953  0.4785  0.5312
10245SOL    HW132889   0.479   4.376   3.825  0.2439 -0.8806  0.8101
10245SOL    HW232890   0.507   4.437   3.961 -0.0001  0.3321  0.3240
10246SOL     OW32891   8.893   8.941   5.579 -0.2531 -0.3161  0.1252
10246SOL    HW132892   8.871   9.013   5.639 -3.1927 -0.9317 -0.0619
10246SOL    HW232893   8.943   8.880   5.633  0.2757  0.7749  0.9219
10247SOL     OW32894   4.885   4.911   7.459 -0.0011  0.5680 -0.1654
10247SOL    HW132895   4.891   4.879   7.549  1.7317  1.8366  0.2265
10247SOL    HW232896   4.817   4.979   7.462 -0.1379  0.4217  0.1151
10248SOL     OW32897   3.594   2.688   0.949  0.5665 -0.0503 -0.0114
10248SOL    HW132898   3.627   2.660   0.864  1.5144 -0.6373  0.5341
10248SOL    HW232899   3.504   2.655   0.952  0.7033 -0.4890 -0.5712
10249SOL     OW32900   9.481   6.044   2.585 -0.0201 -0.0643  0.2500
10249SOL    HW132901   9.455   6.043   2.677 -2.3063  2.2393 -0.2765
10249SOL    HW232902   9.545   6.115   2.579 -0.2731  0.1400 -0.0309
10250SOL     OW32903   7.068   3.610   4.188 -0.4860 -0.0121  0.0796
10250SOL    HW132904   7.047   3.521   4.215  2.1856 -0.2943  1.5516
10250SOL    HW232905   7.120   3.599   4.108  1.3012  0.0248  1.1756
10251SOL     OW32906   5.933   6.176   1.144  0.1418  0.5590 -0.5827
10251SOL    HW132907   5.989   6.155   1.219 -1.3853 -0.6700  0.2719
10251SOL    HW232908   5.972   6.255   1.106  1.4930  0.6683  0.9356
10252SOL     OW32909   9.538   5.693   7.420 -0.1681 -0.4003  0.0139
10252SOL    HW132910   9.532   5.598   7.427 -1.1748 -0.4480 -1.1907
10252SOL    HW232911   9.623   5.709   7.379  0.8409 -0.6501  1.8975
10253SOL     OW32912   6.954   4.685   4.679 -0.0736 -0.6358 -0.1805
10253SOL    HW132913   6.877   4.629   4.687 -1.0811  0.8553  1.3265
10253SOL    HW232914   6.954   4.737   4.760  2.1756 -0.1608 -0.4294
10254SOL     OW32915   3.623   5.684   8.992 -0.3620  0.4414  0.8298
10254SOL    HW132916   3.674   5.659   9.069  0.8858  2.8409  0.8647
10254SOL    HW232917   3.657   5.770   8.967 -2.1163  0.6309 -1.2067
10255SOL     OW32918   9.389   6.667   5.435  0.1084 -0.0443  0.2991
10255SOL    HW132919   9.473   6.627   5.457  0.1394  0.3843  0.9497
10255SOL    HW232920   9.411   6.737   5.374  0.1612 -0.3049  0.0143
10256SOL     OW32921   4.060   3.538   1.552  0.1199  0.5234 -0.0189
10256SOL    HW132922   4.016   3.575   1.628 -1.5067 -1.1058 -0.1058
10256SOL    HW232923   4.000   3.471   1.520  2.0166 -0.7289 -1.1048
10257SOL     OW32924   8.970   5.866   3.228  0.7330  0.1611 -0.1956
10257SOL    HW132925   8.963   5.851   3.322  0.8040  0.3673 -0.1558
10257SOL    HW232926   9.001   5.957   3.221  1.9825 -0.2584 -0.3846
10258SOL     OW32927   0.062   8.693   7.060 -0.5314  0.4688  0.1262
10258SOL    HW132928  -0.018   8.734   7.027  0.1150  1.6892  0.0261
10258SOL    HW232929   0.031   8.619   7.113 -1.6379 -0.8938 -2.2417
10259SOL     OW32930   7.640   6.236   7.913 -0.2505  0.1787  0.5106
10259SOL    HW132931   7.582   6.171   7.953 -0.5447 -0.1493 -0.4376
10259SOL    HW232932   7.641   6.214   7.820 -0.0249  1.2866  0.2401
10260SOL     OW32933   6.950   1.967   0.686  0.0696  0.2057 -0.1941
10260SOL    HW132934   6.861   1.937   0.703 -0.4242  0.4253 -2.1337
10260SOL    HW232935   6.975   1.921   0.606  1.2891  0.9863 -0.2852
10261SOL     OW32936   0.346   5.766   1.584 -0.0627  0.5233  0.0668
10261SOL    HW132937   0.288   5.719   1.644 -0.8327  0.3258 -0.8091
10261SOL    HW232938   0.313   5.745   1.497  1.5472  0.1245 -0.4964
10262SOL     OW32939   6.193   2.525   7.383 -0.2906 -0.3013 -0.0837
10262SOL    HW132940   6.163   2.555   7.297  0.7517 -1.1405 -0.7666
10262SOL    HW232941   6.113   2.502   7.430 -0.8172 -0.9246 -1.2536
10263SOL     OW32942   4.451   9.030   6.783 -0.6066 -0.1721 -0.1242
10263SOL    HW132943   4.376   9.011   6.839  0.3088 -0.6168  0.9673
10263SOL    HW232944   4.415   9.024   6.694 -2.0553  0.4683  0.3799
10264SOL     OW32945   6.538   8.723   2.030  0.0865  0.0812 -0.0283
10264SOL    HW132946   6.491   8.639   2.030  1.2892 -0.6187 -0.0742
10264SOL    HW232947   6.469   8.789   2.020 -1.0018 -0.8187  1.1977
10265SOL     OW32948   0.765   9.345   2.710  0.1833  0.5184 -0.2017
10265SOL    HW132949   0.759   9.314   2.800 -2.5814  0.0414 -0.4667
10265SOL    HW232950   0.750   9.267   2.656 -0.1381  1.1389 -1.0391
10266SOL     OW32951   0.428   1.921   5.147  0.0378 -0.0384 -0.0330
10266SOL    HW132952   0.338   1.946   5.170  0.8683  0.2108  3.5098
10266SOL    HW232953   0.451   1.852   5.210  2.1482 -0.5498 -1.2620
10267SOL     OW32954   7.576   1.618   1.533  0.1859 -0.0820  0.5855
10267SOL    HW132955   7.533   1.659   1.608  0.9298  0.6133  0.6488
10267SOL    HW232956   7.619   1.690   1.488  0.4845 -0.6238 -0.0113
10268SOL     OW32957   0.558   9.334   4.664  0.1416 -0.3902  0.0244
10268SOL    HW132958   0.613   9.283   4.605  0.4530  1.0644 -1.0083
10268SOL    HW232959   0.605   9.334   4.748  2.3883  1.7409 -1.1089
10269SOL     OW32960   5.729   9.547   6.405 -0.4174  0.2401  0.1950
10269SOL    HW132961   5.799   9.593   6.358 -0.3172  0.6670  0.7462
10269SOL    HW232962   5.773   9.476   6.450 -0.0329  1.4843  1.8818
10270SOL     OW32963   6.035   9.516   7.778  0.1030  0.2404  0.4472
10270SOL    HW132964   6.069   9.440   7.731 -0.0420  0.1657  0.4646
10270SOL    HW232965   5.942   9.519   7.757  0.1417  0.5130  0.3130
10271SOL     OW32966   1.949   8.967   6.853 -0.1212  0.0942  0.2940
10271SOL    HW132967   1.967   8.948   6.945 -0.8737  1.2589  0.7142
10271SOL    HW232968   1.854   8.980   6.850 -0.3215 -1.3955 -0.9522
10272SOL     OW32969   5.925   3.452   4.002  0.1490 -0.1474  0.1881
10272SOL    HW132970   5.850   3.406   4.040  1.5831 -2.5718  0.3226
10272SOL    HW232971   5.945   3.404   3.922  1.6406  0.3114  0.2439
10273SOL     OW32972   5.504   1.062   4.421  0.2119  0.0615  0.5943
10273SOL    HW132973   5.418   1.070   4.462  0.0330  0.0307  0.2344
10273SOL    HW232974   5.485   1.065   4.327  0.7279  1.4131  0.5177
10274SOL     OW32975   0.576   8.337   4.544  0.5818  0.0073  0.0434
10274SOL    HW132976   0.609   8.373   4.462  1.6182  0.7036  0.7359
10274SOL    HW232977   0.502   8.394   4.567  1.7412  1.3024  0.7455
10275SOL     OW32978   5.511   6.109   6.161  0.0607 -0.3270 -0.4263
10275SOL    HW132979   5.444   6.161   6.207  1.7385  2.1509 -0.5744
10275SOL    HW232980   5.513   6.146   6.073  0.6157 -1.3819 -0.8751
10276SOL     OW32981   7.482   2.734   9.053  0.5409  0.1548 -0.2902
10276SOL    HW132982   7.560   2.770   9.010  1.0175 -1.3915 -0.7689
10276SOL    HW232983   7.494   2.639   9.051 -0.9293 -0.0837  0.4559
10277SOL     OW32984   6.688   7.362   9.423 -0.2142  0.1896 -0.7296
10277SOL    HW132985   6.635   7.312   9.485  0.7178 -0.1251 -0.1625
10277SOL    HW232986   6.776   7.327   9.434 -0.0802 -0.0663 -2.4553
10278SOL     OW32987   7.137   1.171   2.384  0.4122  0.2782 -0.1984
10278SOL    HW132988   7.144   1.075   2.389  2.2504  0.4334  2.0004
10278SOL    HW232989   7.189   1.194   2.307 -0.1696 -0.4911 -0.8392
10279SOL     OW32990   8.344   3.718   2.775 -0.1933  0.0561  0.1211
10279SOL    HW132991   8.418   3.660   2.757 -0.2395 -0.8717  2.5706
10279SOL    HW232992   8.385   3.800   2.804 -0.0624 -0.4557  1.4736
10280SOL     OW32993   9.444   5.939   0.973 -0.1494  0.1632 -0.2598
10280SOL    HW132994   9.352   5.916   0.966  0.1217 -1.2729  0.4844
10280SOL    HW232995   9.481   5.916   0.888 -0.5683  1.2489 -0.7445
10281SOL     OW32996   5.491   1.624   9.215  0.2025  0.7597  0.1955
10281SOL    HW132997   5.485   1.718   9.230  2.3645  1.2355 -1.4419
10281SOL    HW232998   5.534   1.616   9.129 -0.1843 -1.7205  0.1515
10282SOL     OW32999   9.087   8.972   6.472  0.2751  0.3945 -0.4137
10282SOL    HW133000   9.110   8.953   6.563  0.3016  0.7914 -0.3360
10282SOL    HW233001   9.172   8.982   6.428  0.2902  2.1463 -0.0670
10283SOL     OW33002   5.908   0.925   6.788  0.1449 -0.0129 -0.1185
10283SOL    HW133003   5.935   0.968   6.869  0.6778 -2.0494  0.8573
10283SOL    HW233004   5.816   0.904   6.801  0.6070 -1.7509  0.6992
10284SOL     OW33005   4.591   7.791   6.599 -0.1717  0.2440 -0.1625
10284SOL    HW133006   4.647   7.864   6.627  0.7570 -0.4209 -0.2298
10284SOL    HW233007   4.644   7.713   6.615 -0.7015 -0.3369 -1.1556
10285SOL     OW33008   7.525   1.309   6.692  0.2144 -0.6363  0.0317
10285SOL    HW133009   7.452   1.289   6.632  0.2124 -2.7079  0.6674
10285SOL    HW233010   7.483   1.352   6.767 -0.3194 -1.4957  0.2381
10286SOL     OW33011   7.687   8.489   4.482  0.1919 -0.2305  0.2525
10286SOL    HW133012   7.740   8.450   4.552  0.8663  0.1940 -0.0098
10286SOL    HW233013   7.747   8.549   4.437 -0.4074 -0.0328 -0.3010
10287SOL     OW33014   4.990   0.032   6.709  0.0830 -0.4791 -0.2150
10287SOL    HW133015   4.918  -0.029   6.692 -1.1983  1.1643 -0.9764
10287SOL    HW233016   4.961   0.082   6.785 -0.5342  1.5354 -1.7184
10288SOL     OW33017   4.992   7.548   2.491 -0.2203 -0.4224  0.1121
10288SOL    HW133018   4.901   7.521   2.503 -0.7640  0.9173 -0.7954
10288SOL    HW233019   4.994   7.587   2.404  1.8670 -3.0488 -1.1857
10289SOL     OW33020   7.466   9.567   7.362 -0.1385  0.4317 -0.4663
10289SOL    HW133021   7.419   9.650   7.349  1.8673  1.5749 -0.9383
10289SOL    HW233022   7.466   9.526   7.275 -0.4680  0.3280 -0.4154
10290SOL     OW33023   5.717   2.906   6.634  0.0343 -0.5470  0.3913
10290SOL    HW133024   5.758   2.859   6.561 -0.9561 -0.7488 -0.0505
10290SOL    HW233025   5.791   2.936   6.688  0.9033  1.2263 -1.6515
10291SOL     OW33026   3.331   1.012   2.337 -0.3257 -0.7503  0.4336
10291SOL    HW133027   3.294   0.936   2.292  1.5062 -1.7777  0.5824
10291SOL    HW233028   3.301   1.087   2.286  0.1714 -1.7533 -1.4077
10292SOL     OW33029   5.447   3.870   7.407  0.5097 -0.8033  0.1011
10292SOL    HW133030   5.359   3.846   7.379  0.4008 -2.0452  1.3540
10292SOL    HW233031   5.443   3.965   7.421 -0.5591 -0.8104 -0.0906
10293SOL     OW33032   4.146   8.624   4.710  0.5419 -0.4694 -0.3018
10293SOL    HW133033   4.053   8.616   4.687 -0.1680  1.6232  1.4515
10293SOL    HW233034   4.192   8.609   4.628 -1.5470  1.7249 -2.0548
10294SOL     OW33035   4.341   5.363   1.205 -0.1753 -0.1025 -0.3351
10294SOL    HW133036   4.395   5.319   1.139 -1.3314 -1.2026 -0.5908
10294SOL    HW233037   4.327   5.451   1.170  0.4013 -0.2116 -0.8626
10295SOL     OW33038   1.718   9.119   2.018 -0.0470  0.3802 -0.0497
10295SOL    HW133039   1.707   9.043   1.961  0.7915 -1.4090  2.0446
10295SOL    HW233040   1.810   9.116   2.045 -1.0607 -0.7829  3.8422
10296SOL     OW33041   5.402   6.012   8.008 -0.4970  0.4811  0.1731
10296SOL    HW133042   5.307   6.015   7.999 -0.4503  1.0642 -0.1079
10296SOL    HW233043   5.427   6.100   8.035 -0.2339 -0.1466  2.1557
10297SOL     OW33044   8.947   5.929   1.315  0.6362  0.3399  0.0721
10297SOL    HW133045   9.033   5.887   1.321  0.1402 -0.5903  1.3736
10297SOL    HW233046   8.890   5.872   1.368 -1.3832 -0.5393 -2.8187
10298SOL     OW33047   6.850   5.333   8.913  0.2427 -0.0547 -0.2667
10298SOL    HW133048   6.873   5.263   8.975 -0.2241 -0.3168 -0.3890
10298SOL    HW233049   6.774   5.376   8.952  0.5570  0.4223 -0.1688
10299SOL     OW33050   0.064   9.119   4.674 -0.1598  0.8506 -0.1989
10299SOL    HW133051   0.060   9.024   4.681  0.3392  0.6453 -2.2404
10299SOL    HW233052   0.152   9.142   4.702 -0.2852  0.7323  0.3047
10300SOL     OW33053   5.871   1.644   5.426 -0.2320 -0.0129 -0.5594
10300SOL    HW133054   5.844   1.730   5.460  0.2226 -0.5740  1.3695
10300SOL    HW233055   5.796   1.587   5.442 -0.7004  0.0802 -2.2443
10301SOL     OW33056   0.504   4.071   9.264 -0.4542 -0.5324 -0.2029
10301SOL    HW133057   0.443   4.129   9.218  1.0313  1.5494  0.2965
10301SOL    HW233058   0.574   4.054   9.199  1.3796  1.9826  0.9524
10302SOL     OW33059   4.114   4.120   0.542  0.1619  0.6239  0.3227
10302SOL    HW133060   4.157   4.037   0.563 -0.4261  0.1580 -0.2485
10302SOL    HW233061   4.039   4.095   0.488 -0.1083  1.5202  0.2607
10303SOL     OW33062   3.674   0.416   5.881  0.1716  0.7851  0.1869
10303SOL    HW133063   3.701   0.469   5.805 -1.0865 -0.1119 -0.9286
10303SOL    HW233064   3.754   0.374   5.910  0.3555 -0.5916 -2.0657
10304SOL     OW33065   5.493   2.987   9.512  0.1344  0.1175 -0.2557
10304SOL    HW133066   5.570   2.930   9.510  0.7371  0.7552  1.8195
10304SOL    HW233067   5.497   3.035   9.429  1.3153 -0.7018 -0.7020
10305SOL     OW33068   2.665   1.783   9.432 -0.7573  0.5626 -0.2800
10305SOL    HW133069   2.612   1.749   9.504  0.3233  1.1006  0.8116
10305SOL    HW233070   2.616   1.857   9.398 -0.7853  0.9587  0.6140
10306SOL     OW33071   8.755   6.290   9.060 -0.2138  0.2276  0.4404
10306SOL    HW133072   8.782   6.371   9.105  0.2137  0.4860 -0.2696
10306SOL    HW233073   8.774   6.221   9.124 -0.7967  0.6951  1.1443
10307SOL     OW33074   6.194   8.612   6.572  0.3882  0.3041  0.4656
10307SOL    HW133075   6.155   8.559   6.503 -1.5738  2.3073 -0.0624
10307SOL    HW233076   6.269   8.655   6.531  0.2563  0.1663  0.0794
10308SOL     OW33077   5.513   9.540   4.194  0.2570  0.2480 -0.1428
10308SOL    HW133078   5.563   9.458   4.199  0.1120  0.2121  1.2120
10308SOL    HW233079   5.461   9.532   4.114  0.2018 -1.0217 -0.0005
10309SOL     OW33080   1.782   5.748   1.278 -0.5961 -0.8429  0.0783
10309SOL    HW133081   1.730   5.713   1.205 -0.9192 -0.9442  0.3552
10309SOL    HW233082   1.757   5.841   1.283 -0.4747 -0.8043 -0.0227
10310SOL     OW33083   2.858   1.939   0.088 -0.0568  0.5802  1.0623
10310SOL    HW133084   2.784   1.883   0.110  1.4043 -2.3349 -0.8215
10310SOL    HW233085   2.854   1.948  -0.007  1.9583  0.3589  0.9183
10311SOL     OW33086   5.807   1.317   6.042 -0.3011  0.0394 -0.2301
10311SOL    HW133087   5.823   1.229   6.008 -0.4198  0.6050 -1.8115
10311SOL    HW233088   5.886   1.366   6.020 -0.2982  0.3723  0.4994
10312SOL     OW33089   7.652   1.516   5.872  0.0871  0.0687 -0.1774
10312SOL    HW133090   7.606   1.545   5.951 -0.5288  0.1254 -0.5522
10312SOL    HW233091   7.745   1.524   5.894 -0.0794  0.5049  0.3870
10313SOL     OW33092   2.123   8.727   5.129 -0.4020  0.3453 -1.0013
10313SOL    HW133093   2.201   8.780   5.117  0.1782 -0.2584 -0.0592
10313SOL    HW233094   2.151   8.657   5.189 -1.2272 -0.8052 -1.9042
10314SOL     OW33095   1.886   8.824   4.252 -0.0333  0.0715 -0.0053
10314SOL    HW133096   1.824   8.775   4.198 -1.3863  1.0983  0.5506
10314SOL    HW233097   1.947   8.758   4.285 -0.4071 -0.8701 -1.1205
10315SOL     OW33098   2.401   8.908   7.601 -0.8050  0.7310  0.6578
10315SOL    HW133099   2.494   8.888   7.595 -0.8710 -0.1018  2.0844
10315SOL    HW233100   2.392   8.993   7.558  0.2845 -0.0282 -1.1838
10316SOL     OW33101   4.393   2.524   0.811 -0.3186  0.5578  0.6040
10316SOL    HW133102   4.409   2.430   0.810 -1.6612  0.3041  0.1002
10316SOL    HW233103   4.301   2.532   0.838 -0.9200  1.5807 -1.5374
10317SOL     OW33104   0.591   5.189   6.789  0.0905 -0.0433 -0.6295
10317SOL    HW133105   0.580   5.166   6.881 -2.3652 -2.4549 -1.4094
10317SOL    HW233106   0.680   5.223   6.784  0.3674  0.0279  2.5778
10318SOL     OW33107   6.431   6.366   2.488 -0.4971 -0.2898  0.0626
10318SOL    HW133108   6.420   6.442   2.431  0.6498 -1.0535 -1.2503
10318SOL    HW233109   6.426   6.401   2.577 -2.4104  0.9267 -0.4744
10319SOL     OW33110   0.263   7.861   6.008 -0.3950  0.1763  0.3062
10319SOL    HW133111   0.250   7.805   6.084  0.7804  0.5523  0.7933
10319SOL    HW233112   0.188   7.841   5.951 -2.4192  1.3734  2.4119
10320SOL     OW33113   5.545   7.652   9.343  0.7125 -0.5817 -0.3299
10320SOL    HW133114   5.457   7.665   9.378  1.6079  1.6126  1.3182
10320SOL    HW233115   5.555   7.557   9.341 -1.5806 -0.9016 -0.3495
10321SOL     OW33116   1.136   0.243   7.918  0.0878 -0.3493 -0.2475
10321SOL    HW133117   1.062   0.187   7.895  0.1684 -0.8168  0.5653
10321SOL    HW233118   1.108   0.287   7.999  0.2748  0.3041 -0.5337
10322SOL     OW33119   7.334   0.069   2.256  0.2682  0.0420  0.6461
10322SOL    HW133120   7.317  -0.019   2.223 -0.1677 -0.1975  1.4765
10322SOL    HW233121   7.251   0.115   2.248  0.3561  0.2136  0.7134
10323SOL     OW33122   7.186   0.212   8.854  0.1384  0.5742  0.0762
10323SOL    HW133123   7.230   0.235   8.772 -0.0888 -1.5454 -0.6959
10323SOL    HW233124   7.094   0.201   8.830 -0.5446  2.8849  1.2682
10324SOL     OW33125   8.177   4.575   8.560 -0.0351  0.0430 -0.0668
10324SOL    HW133126   8.194   4.661   8.599 -0.3785 -0.0270  0.2486
10324SOL    HW233127   8.131   4.527   8.629 -1.6930  0.2985 -0.9262
10325SOL     OW33128   3.078   3.665   7.433 -0.5658  0.2034 -0.0110
10325SOL    HW133129   3.076   3.741   7.375  2.3175 -0.0025 -0.5338
10325SOL    HW233130   3.157   3.678   7.486 -0.3024 -2.1293  0.2756
10326SOL     OW33131   6.768   6.512   8.602  0.5407 -0.2403 -0.0659
10326SOL    HW133132   6.764   6.490   8.509  1.5401 -0.1399 -0.1460
10326SOL    HW233133   6.862   6.509   8.624  0.3638  0.2112  0.8214
10327SOL     OW33134   1.556   0.178   0.624  0.0138 -0.8112 -0.5607
10327SOL    HW133135   1.582   0.251   0.681  0.8001  0.7704 -2.7845
10327SOL    HW233136   1.619   0.108   0.644  0.8471  0.0464 -0.1078
10328SOL     OW33137   2.472   7.577   3.037  0.4035 -0.0994  0.2768
10328SOL    HW133138   2.510   7.514   3.098 -1.0765 -2.5044 -1.1392
10328SOL    HW233139   2.393   7.608   3.081 -0.6000 -1.7452 -0.2722
10329SOL     OW33140   5.918   7.850   7.265 -0.3538 -0.0948  0.5735
10329SOL    HW133141   5.938   7.773   7.319 -1.3242  0.2395  1.4465
10329SOL    HW233142   6.002   7.894   7.254  0.5100 -2.0051 -1.1586
10330SOL     OW33143   1.697   8.942   4.403  0.2775  0.1131 -0.2325
10330SOL    HW133144   1.707   8.944   4.498 -0.8742  2.3256 -0.0874
10330SOL    HW233145   1.781   8.910   4.371  0.4814 -1.2823  1.5349
10331SOL     OW33146   3.237   0.028   5.241 -0.3909  0.7300  0.0616
10331SOL    HW133147   3.245  -0.017   5.325 -1.1028  1.2614  0.4301
10331SOL    HW233148   3.293   0.105   5.249 -0.3281  0.6920 -0.0125
10332SOL     OW33149   0.172   2.046   8.786 -0.1773 -0.3162  0.3615
10332SOL    HW133150   0.164   1.954   8.814  0.6653 -0.5951 -0.2849
10332SOL    HW233151   0.193   2.041   8.693 -0.5217  0.5536  0.2269
10333SOL     OW33152   2.118   3.227   3.487  0.1021  0.6385 -0.4450
10333SOL    HW133153   2.126   3.321   3.501  1.0191  0.6608 -0.9802
10333SOL    HW233154   2.209   3.197   3.481 -0.1710 -0.4035  0.5065
10334SOL     OW33155   8.018   1.202   5.663 -0.3501 -0.4037  0.2072
10334SOL    HW133156   7.967   1.283   5.669  1.1551  0.5542  1.1379
10334SOL    HW233157   8.001   1.169   5.575 -2.4658 -0.1121  0.4545
10335SOL     OW33158   2.315   8.807   5.369 -0.6839  0.5148  0.1138
10335SOL    HW133159   2.388   8.776   5.423 -1.8759 -2.0149  0.4263
10335SOL    HW233160   2.355   8.830   5.286  0.5268 -0.6704  0.3211
10336SOL     OW33161   3.003   8.039   7.618 -0.2845  0.0067 -0.2007
10336SOL    HW133162   3.077   8.035   7.678 -0.5019 -1.1484  0.0107
10336SOL    HW233163   3.042   8.051   7.531  0.5407 -4.7292 -0.7131
10337SOL     OW33164   2.777   7.531   1.801  0.0406  0.4126  0.0956
10337SOL    HW133165   2.796   7.437   1.804 -0.1482  0.2542 -1.9188
10337SOL    HW233166   2.777   7.559   1.892  1.8629 -1.1831  0.6395
10338SOL     OW33167   4.938   6.224   2.708  0.1923 -0.0690 -0.6112
10338SOL    HW133168   5.008   6.272   2.753  0.0224 -0.2443 -0.1616
10338SOL    HW233169   4.968   6.134   2.705 -0.1059 -0.1828 -0.2330
10339SOL     OW33170   5.601   1.662   6.437  0.0600  0.8376  0.3860
10339SOL    HW133171   5.664   1.714   6.488 -0.0322  1.1931  0.1368
10339SOL    HW233172   5.589   1.711   6.356 -0.3642  0.6504  0.3330
10340SOL     OW33173   7.362   5.044   4.421 -0.4202 -0.1155 -0.0451
10340SOL    HW133174   7.320   5.003   4.346 -1.6573  1.3222 -0.2021
10340SOL    HW233175   7.409   5.119   4.384  2.7217 -1.8885  0.0748
10341SOL     OW33176   9.603   3.391   2.946 -0.1532  0.2738 -0.5547
10341SOL    HW133177   9.614   3.475   2.990  1.2853 -1.0313  1.8171
10341SOL    HW233178   9.545   3.341   3.004  1.3846 -1.3421 -0.3379
10342SOL     OW33179   9.278   1.577   8.728  0.7393 -0.2938 -0.2205
10342SOL    HW133180   9.221   1.501   8.721 -0.9147  0.8433  0.2528
10342SOL    HW233181   9.218   1.652   8.730  2.3571  1.4241 -4.5562
10343SOL     OW33182   6.003   6.791   7.306  0.4006  0.4611 -0.6318
10343SOL    HW133183   5.990   6.706   7.348  2.1465 -1.7944 -4.1061
10343SOL    HW233184   5.927   6.843   7.332 -2.1651 -3.0487 -0.3241
10344SOL     OW33185   0.412   3.766   5.924 -0.1567 -0.2080  0.4572
10344SOL    HW133186   0.426   3.745   6.016 -2.5862  1.0931  1.2116
10344SOL    HW233187   0.403   3.862   5.922  1.6892  0.0100 -1.4614
10345SOL     OW33188   2.063   9.239   2.961  0.3198 -0.1013  0.3485
10345SOL    HW133189   2.157   9.234   2.944  0.6268 -1.2079  2.1331
10345SOL    HW233190   2.024   9.176   2.900  0.7322  0.2483 -0.2868
10346SOL     OW33191   4.714   8.094   7.521  0.0867 -0.4523 -0.8162
10346SOL    HW133192   4.697   8.173   7.469 -0.1964 -0.0586 -0.1510
10346SOL    HW233193   4.677   8.023   7.470  1.5374 -0.3499 -2.0776
10347SOL     OW33194   1.895   9.042   1.641 -0.2873 -0.4178 -0.0058
10347SOL    HW133195   1.827   9.012   1.701  1.1623 -0.4955  1.6486
10347SOL    HW233196   1.965   9.075   1.697  1.4190 -1.1335 -1.6119
10348SOL     OW33197   7.532   0.657   3.375  0.3249  0.0568  0.4170
10348SOL    HW133198   7.519   0.738   3.326 -0.1411  0.0341  0.5011
10348SOL    HW233199   7.622   0.631   3.355 -0.3036 -0.7491 -1.6462
10349SOL     OW33200   1.691   0.594   6.686 -0.2269  0.1546  0.2514
10349SOL    HW133201   1.667   0.640   6.605 -1.2106 -0.5793  0.0970
10349SOL    HW233202   1.673   0.657   6.755 -0.0563  0.5452 -0.0561
10350SOL     OW33203   4.315   7.164   4.416 -0.1285 -0.2501 -0.0589
10350SOL    HW133204   4.282   7.076   4.401  0.3853 -0.4427 -0.0625
10350SOL    HW233205   4.337   7.197   4.329  1.7910 -0.9522  0.1179
10351SOL     OW33206   0.608   7.188   2.878  0.1592 -0.6340  0.1215
10351SOL    HW133207   0.582   7.097   2.890 -1.4410 -0.7596 -3.1851
10351SOL    HW233208   0.527   7.238   2.892  0.6331  0.1218  0.2201
10352SOL     OW33209   7.775   8.373   7.175 -0.1010  0.1993 -0.2075
10352SOL    HW133210   7.695   8.322   7.191 -0.3297  0.4895 -0.3980
10352SOL    HW233211   7.800   8.406   7.261 -1.5850  2.1313 -0.4335
10353SOL     OW33212   0.276   0.902   7.982  0.6813  0.2477  0.0618
10353SOL    HW133213   0.350   0.869   8.034  0.5474  1.3180  0.9732
10353SOL    HW233214   0.205   0.841   8.000  1.6110 -1.5457 -1.8019
10354SOL     OW33215   6.707   1.470   3.589 -0.1733  0.4931  0.2755
10354SOL    HW133216   6.752   1.481   3.673 -1.3555 -2.3577  1.3820
10354SOL    HW233217   6.624   1.428   3.611 -1.4959  1.6481 -2.1533
10355SOL     OW33218   6.427   6.258   2.104  0.2757 -0.1507  0.3550
10355SOL    HW133219   6.479   6.249   2.025 -0.3118 -0.6735  0.0173
10355SOL    HW233220   6.485   6.229   2.175  0.7172  0.0728  0.0877
10356SOL     OW33221   0.555   3.817   1.358 -0.2949  0.0632  0.3597
10356SOL    HW133222   0.510   3.748   1.405 -0.3524  0.1032  0.3638
10356SOL    HW233223   0.609   3.860   1.424 -0.2055 -0.0215  0.3429
10357SOL     OW33224   8.904   1.680   4.918 -0.0324 -0.1415 -0.3159
10357SOL    HW133225   8.889   1.688   5.012 -0.4201 -0.6149 -0.3330
10357SOL    HW233226   8.854   1.752   4.879  3.0417  2.4007  0.0576
10358SOL     OW33227   0.002   7.697   1.162  1.0932 -0.3916 -0.3341
10358SOL    HW133228  -0.008   7.771   1.222  0.3482  1.5866 -2.6829
10358SOL    HW233229  -0.015   7.619   1.215  1.6112  1.1168  2.2055
10359SOL     OW33230   0.330   1.056   4.875 -0.3689 -0.5593 -0.3281
10359SOL    HW133231   0.403   1.036   4.816  0.0557 -2.1584  0.6838
10359SOL    HW233232   0.369   1.113   4.941 -0.7439  0.8826 -1.3014
10360SOL     OW33233   0.061   2.121   9.179 -0.7223  0.3583  0.1576
10360SOL    HW133234   0.091   2.168   9.101 -2.3600  0.1926 -0.6231
10360SOL    HW233235   0.110   2.039   9.179  0.7585  1.1951  0.4647
10361SOL     OW33236   6.275   3.272   0.521  1.2015  0.1921 -0.3932
10361SOL    HW133237   6.243   3.362   0.528 -1.6539 -0.7298 -0.1502
10361SOL    HW233238   6.253   3.232   0.605  1.4349 -0.9991 -0.8817
10362SOL     OW33239   3.723   6.125   3.731 -0.4188  0.2751 -0.7148
10362SOL    HW133240   3.805   6.109   3.778 -0.3481  1.1172 -0.5496
10362SOL    HW233241   3.684   6.038   3.722  0.2091 -0.0596 -0.2776
10363SOL     OW33242   9.533   8.497   3.281  0.6733 -0.3660 -0.4895
10363SOL    HW133243   9.591   8.556   3.232  0.9297 -1.6692 -1.8369
10363SOL    HW233244   9.477   8.458   3.214 -1.5626  0.5596  0.7313
10364SOL     OW33245   4.833   7.588   0.905  0.4667  0.3015 -0.5855
10364SOL    HW133246   4.900   7.593   0.973  0.3732 -0.9570 -0.3760
10364SOL    HW233247   4.798   7.677   0.898  0.4809  0.4527  1.0075
10365SOL     OW33248   1.825   5.779   2.664  0.4315  0.5687 -0.1905
10365SOL    HW133249   1.754   5.717   2.648  0.0549  1.3163 -1.5983
10365SOL    HW233250   1.904   5.727   2.660 -0.0013 -0.2432  1.1994
10366SOL     OW33251   7.023   8.591   5.517 -0.2493 -0.1576  0.2709
10366SOL    HW133252   6.957   8.525   5.535  0.1861 -0.4963  0.6431
10366SOL    HW233253   6.976   8.659   5.468 -1.0100 -0.1187  1.0190
10367SOL     OW33254   5.876   0.581   6.765  0.0089  0.1384 -0.3499
10367SOL    HW133255   5.955   0.601   6.715  0.3725  1.3717  0.6541
10367SOL    HW233256   5.804   0.604   6.707  0.3428 -1.5518 -1.4987
10368SOL     OW33257   1.332   8.913   0.418  0.5206 -0.2314 -0.6811
10368SOL    HW133258   1.409   8.856   0.406 -0.3735 -2.1647  1.7810
10368SOL    HW233259   1.271   8.885   0.350  1.3830  0.1949 -1.6460
10369SOL     OW33260   0.533   3.965   6.718  0.1802  0.0670  0.6219
10369SOL    HW133261   0.503   4.055   6.733 -1.0738 -0.1621 -0.3501
10369SOL    HW233262   0.529   3.924   6.804  0.1555  0.7523  0.9601
10370SOL     OW33263   6.671   1.936   1.804  0.4642 -0.1796  0.0656
10370SOL    HW133264   6.659   1.842   1.815  0.4969 -0.5123 -2.3410
10370SOL    HW233265   6.687   1.968   1.893  1.7768 -2.6330  0.8219
10371SOL     OW33266   8.142   5.645   4.707 -0.4328  0.0071  0.2114
10371SOL    HW133267   8.183   5.601   4.633  0.0903 -0.7060  0.8928
10371SOL    HW233268   8.170   5.736   4.701 -0.0259 -0.1451 -0.2028
10372SOL     OW33269   1.170   7.834   1.813 -0.2211  0.0811 -0.4235
10372SOL    HW133270   1.212   7.768   1.758 -0.2360 -0.1284 -0.1818
10372SOL    HW233271   1.184   7.804   1.903 -0.3312  0.3436 -0.3170
10373SOL     OW33272   5.230   2.525   3.475 -0.2593  0.4607  0.0295
10373SOL    HW133273   5.234   2.621   3.473 -0.1798  0.5227  1.8104
10373SOL    HW233274   5.146   2.504   3.434 -0.6959  1.3396  0.4517
10374SOL     OW33275   8.658   5.979   8.183  0.3339  0.2001  0.2417
10374SOL    HW133276   8.564   5.992   8.178  0.0958 -0.8912  1.3432
10374SOL    HW233277   8.681   5.940   8.099 -0.3418 -0.2526  0.2543
10375SOL     OW33278   5.772   5.629   2.123  0.0624  0.0046  0.1819
10375SOL    HW133279   5.754   5.700   2.062 -0.6273 -0.4945 -0.2033
10375SOL    HW233280   5.819   5.671   2.195 -2.0431  1.2655  0.9051
10376SOL     OW33281   6.753   1.206   8.944  0.1999 -0.2688 -0.4489
10376SOL    HW133282   6.684   1.244   8.890 -0.5755  2.5270  2.2462
10376SOL    HW233283   6.790   1.136   8.890 -2.6183  0.1761 -3.2215
10377SOL     OW33284   7.674   8.211   3.927 -0.1495  0.2934  0.2540
10377SOL    HW133285   7.709   8.291   3.887  0.5581 -1.3408 -2.7486
10377SOL    HW233286   7.749   8.152   3.932 -1.2280 -1.2217 -0.5889
10378SOL     OW33287   7.312   7.997   9.361  0.1825 -0.0937  0.1583
10378SOL    HW133288   7.272   7.947   9.290 -0.4575  0.3639  0.1846
10378SOL    HW233289   7.317   7.935   9.434 -1.0523 -0.0025  0.3456
10379SOL     OW33290   2.243   1.384   4.537 -0.2007 -0.0789  0.6949
10379SOL    HW133291   2.319   1.392   4.594  0.4576 -2.0162  0.1722
10379SOL    HW233292   2.268   1.318   4.472 -3.0223 -2.5142  1.8152
10380SOL     OW33293   6.685   9.525   2.828  0.2553 -0.1135  0.9105
10380SOL    HW133294   6.711   9.603   2.779 -1.1272  0.4129  0.9634
10380SOL    HW233295   6.600   9.548   2.866 -2.0727 -2.8831 -2.0955
10381SOL     OW33296   2.353   6.135   4.006 -0.1033 -0.3634 -0.0689
10381SOL    HW133297   2.303   6.097   4.078  0.2632  1.4585  1.2259
10381SOL    HW233298   2.440   6.150   4.043  0.4698 -0.5208 -1.2954
10382SOL     OW33299   0.932   9.180   3.478  0.0291 -0.1408 -0.0239
10382SOL    HW133300   0.853   9.213   3.435  0.2131  1.4110  0.7541
10382SOL    HW233301   0.928   9.085   3.466 -1.1503  0.0431 -1.3353
10383SOL     OW33302   4.505   0.837   3.264  0.0740  0.0234  0.0947
10383SOL    HW133303   4.600   0.844   3.252  0.2554 -0.4176  1.1313
10383SOL    HW233304   4.490   0.744   3.280 -0.3427  0.2993  1.3813
10384SOL     OW33305   4.772   2.976   3.925 -0.2071  0.6416  0.0335
10384SOL    HW133306   4.818   3.050   3.887  0.6890  0.6559  1.1155
10384SOL    HW233307   4.796   2.976   4.017  0.1268 -1.2057  0.0005
10385SOL     OW33308   3.130   6.149   3.163  0.7074  0.0793 -0.1242
10385SOL    HW133309   3.130   6.089   3.088  0.9823  0.4257 -0.4072
10385SOL    HW233310   3.222   6.160   3.185  0.5794 -0.7821  0.8912
10386SOL     OW33311   2.084   1.209   8.442 -0.4802  0.1108  0.4017
10386SOL    HW133312   2.107   1.224   8.534 -0.2561 -0.1581  0.3894
10386SOL    HW233313   2.058   1.117   8.439 -0.7986  0.2030  0.2578
10387SOL     OW33314   9.357   6.614   0.502  1.1203 -0.9949 -0.0263
10387SOL    HW133315   9.453   6.608   0.501  1.2623  0.6038  1.1922
10387SOL    HW233316   9.328   6.523   0.494  2.8008 -1.9725  3.0709
10388SOL     OW33317   7.113   8.462   4.835 -0.2482 -0.4364  0.1185
10388SOL    HW133318   7.161   8.444   4.916  0.5674 -1.2177 -0.5242
10388SOL    HW233319   7.091   8.376   4.800  1.3095 -0.2046 -1.5881
10389SOL     OW33320   6.795   8.924   3.182 -0.1896 -0.0435  0.6387
10389SOL    HW133321   6.798   9.007   3.229 -0.9939  0.9184 -0.9286
10389SOL    HW233322   6.828   8.944   3.095 -1.4758 -1.0957 -0.1358
10390SOL     OW33323   6.693   7.245   6.280 -0.1370  0.0264  0.0291
10390SOL    HW133324   6.633   7.318   6.265  1.0028  1.1369  0.7109
10390SOL    HW233325   6.705   7.205   6.194 -2.1340 -0.4702 -0.0613
10391SOL     OW33326   2.875   0.324   3.234 -0.5405 -0.0657 -0.7781
10391SOL    HW133327   2.781   0.307   3.247 -0.5310 -0.1160 -0.7732
10391SOL    HW233328   2.900   0.264   3.164 -0.5727  0.1443 -0.9702
10392SOL     OW33329   5.053   2.468   5.374  0.1275 -0.4196  0.2993
10392SOL    HW133330   5.144   2.443   5.389  0.0440 -1.1368 -0.3470
10392SOL    HW233331   5.058   2.559   5.347  0.6650 -0.4802  0.1744
10393SOL     OW33332   0.771   1.832   6.837  0.3777 -0.3352  0.7104
10393SOL    HW133333   0.677   1.816   6.845  0.0828  1.2977  0.9295
10393SOL    HW233334   0.807   1.812   6.923  0.0458  0.0373  0.9403
10394SOL     OW33335   7.255   6.855   5.689  0.3065  0.0692  0.2565
10394SOL    HW133336   7.176   6.848   5.742  0.4799 -1.5160  0.3268
10394SOL    HW233337   7.324   6.875   5.752  0.2797 -0.4385  0.4473
10395SOL     OW33338   4.278   0.051   5.650 -0.1753  0.4611 -0.5211
10395SOL    HW133339   4.278   0.021   5.742 -0.7524  0.0815 -0.6347
10395SOL    HW233340   4.338   0.125   5.649  1.3925 -0.7628 -0.2418
10396SOL     OW33341   0.801   3.858   2.938  0.0569 -0.2693  0.1625
10396SOL    HW133342   0.841   3.932   2.892  2.2756 -1.0547  0.6901
10396SOL    HW233343   0.808   3.785   2.876 -0.8836 -0.3607  0.1529
10397SOL     OW33344   7.087   0.748   4.871 -0.2389 -0.2264  0.3122
10397SOL    HW133345   7.103   0.715   4.959  0.4877  0.6392  0.5105
10397SOL    HW233346   7.014   0.809   4.881  2.1658  2.7633  1.0439
10398SOL     OW33347   4.857   0.878   5.722  0.6017  0.3968 -0.0525
10398SOL    HW133348   4.768   0.911   5.737  0.6190  1.3229 -1.7321
10398SOL    HW233349   4.845   0.803   5.663  0.6934 -1.8748  2.5936
10399SOL     OW33350   6.184   7.661   2.080 -0.2673  0.2940 -0.3501
10399SOL    HW133351   6.135   7.743   2.077  1.2198  1.2314 -0.3325
10399SOL    HW233352   6.120   7.595   2.107 -1.6620  1.3093 -1.0650
10400SOL     OW33353   5.749   0.371   0.632  0.8883  0.2183  0.5301
10400SOL    HW133354   5.824   0.400   0.684  0.9809  0.2316  0.3898
10400SOL    HW233355   5.674   0.419   0.669  0.8409 -0.2705  1.0857
10401SOL     OW33356   6.947   6.240   9.295  0.3317 -0.1725 -0.4213
10401SOL    HW133357   7.023   6.253   9.237  1.2348 -0.8311  0.5687
10401SOL    HW233358   6.881   6.201   9.239  1.9145 -2.8304 -0.6266
10402SOL     OW33359   0.334   4.373   2.430 -0.1425  0.4295  0.3681
10402SOL    HW133360   0.294   4.450   2.389 -0.4927  1.3083  2.2827
10402SOL    HW233361   0.381   4.407   2.506  1.3458 -1.0338  0.1826
10403SOL     OW33362   0.483   4.529   7.612  0.9907  0.2897 -0.0192
10403SOL    HW133363   0.486   4.544   7.707 -0.3336 -0.6588  0.1994
10403SOL    HW233364   0.401   4.570   7.584  0.0903 -1.6094 -0.3039
10404SOL     OW33365   5.947   2.302   0.731  0.3115 -0.4572  0.5506
10404SOL    HW133366   5.918   2.325   0.643  0.1253  0.6331  0.8823
10404SOL    HW233367   5.976   2.384   0.769  0.2951 -0.8956  1.5477
10405SOL     OW33368   1.889   2.468   5.688 -0.3447  0.3660  0.7738
10405SOL    HW133369   1.959   2.409   5.716 -0.3877  1.0477  2.4414
10405SOL    HW233370   1.933   2.536   5.637 -0.1285 -0.4471 -0.1355
10406SOL     OW33371   3.299   8.915   9.045  0.1051  1.3378 -0.6789
10406SOL    HW133372   3.212   8.893   9.014  0.5140  0.6025 -1.3347
10406SOL    HW233373   3.312   8.859   9.122  0.5707  0.3121 -1.4771
10407SOL     OW33374   9.127   1.315   7.285 -0.5178 -0.0697 -0.5168
10407SOL    HW133375   9.038   1.334   7.316 -0.6412  0.3893 -1.1400
10407SOL    HW233376   9.120   1.317   7.190  0.0904 -0.3944 -0.5722
10408SOL     OW33377   4.293   5.908   7.429 -0.4768  0.6520  0.4729
10408SOL    HW133378   4.387   5.893   7.418 -0.7185 -2.5055  1.5772
10408SOL    HW233379   4.268   5.959   7.352  1.6793 -0.9464 -1.4534
10409SOL     OW33380   8.000   7.595   3.981 -0.1020  0.3351 -0.3446
10409SOL    HW133381   7.943   7.554   3.916  0.0378 -0.3438 -0.0511
10409SOL    HW233382   8.083   7.547   3.974  0.5110  1.4353 -0.9038
10410SOL     OW33383   7.860   1.428   8.917  0.7918  0.5382  0.3080
10410SOL    HW133384   7.886   1.483   8.843  0.8339 -0.0806 -0.1529
10410SOL    HW233385   7.828   1.489   8.983 -1.9785  1.0159 -1.2888
10411SOL     OW33386   8.897   1.747   0.918  0.4664 -0.1343  0.1278
10411SOL    HW133387   8.892   1.656   0.889 -0.3422  0.4278 -1.5925
10411SOL    HW233388   8.867   1.744   1.009 -0.1839 -1.4906 -0.1001
10412SOL     OW33389   9.611   5.973   1.631 -0.1270 -0.2044 -0.3623
10412SOL    HW133390   9.635   5.914   1.702 -0.2981 -1.3080 -1.1942
10412SOL    HW233391   9.622   6.061   1.668  1.0097 -0.7317  0.6218
10413SOL     OW33392   4.523   8.945   2.457 -0.1502 -0.3077 -0.8867
10413SOL    HW133393   4.501   8.853   2.471 -0.1993 -0.1883 -0.1667
10413SOL    HW233394   4.618   8.949   2.469  0.0436 -0.4878 -2.1889
10414SOL     OW33395   5.395   4.434   6.538 -0.0329  0.0476 -0.5564
10414SOL    HW133396   5.435   4.445   6.452  0.2341  2.1426 -0.2280
10414SOL    HW233397   5.301   4.430   6.521  0.0775 -0.6796 -1.0204
10415SOL     OW33398   8.083   6.343   4.951  0.2659 -0.2212 -0.2711
10415SOL    HW133399   8.165   6.297   4.936  1.1890  1.5304 -0.8336
10415SOL    HW233400   8.108   6.426   4.992 -1.2853  0.0404  0.2302
10416SOL     OW33401   5.173   0.626   4.187 -0.0269  0.0228  0.2045
10416SOL    HW133402   5.173   0.548   4.242  2.9608 -0.7100 -0.6062
10416SOL    HW233403   5.245   0.679   4.221 -1.4464  2.0594  0.1952
10417SOL     OW33404   4.819   5.847   0.886 -0.9286 -0.5266  0.4149
10417SOL    HW133405   4.843   5.891   0.968  0.7467 -1.7808  0.6668
10417SOL    HW233406   4.739   5.890   0.857 -0.1885  1.6563  1.4021
10418SOL     OW33407   4.392   7.812   0.951  0.0863  0.3018 -0.2273
10418SOL    HW133408   4.375   7.899   0.915 -0.9508  1.0782  2.0040
10418SOL    HW233409   4.319   7.795   1.009 -1.7549 -3.6871 -3.2390
10419SOL     OW33410   3.639   0.578   0.902  0.2517 -0.1697  0.0641
10419SOL    HW133411   3.683   0.660   0.924  0.8148 -0.7641  1.2452
10419SOL    HW233412   3.637   0.529   0.984 -2.4434 -0.2760  0.0430
10420SOL     OW33413   8.075   7.227   6.223 -0.4544  0.0210 -0.2775
10420SOL    HW133414   8.005   7.264   6.277 -0.6898 -0.8754  0.0461
10420SOL    HW233415   8.155   7.244   6.272 -0.5884 -0.1339 -0.0050
10421SOL     OW33416   5.047   2.801   0.666  0.0373 -0.3203  0.3335
10421SOL    HW133417   5.044   2.878   0.609 -1.5156 -1.3214 -1.0098
10421SOL    HW233418   5.086   2.833   0.747 -1.6564  2.1996  0.2615
10422SOL     OW33419   7.266   2.901   5.873 -0.6466 -0.1476  0.2631
10422SOL    HW133420   7.193   2.960   5.853 -0.5423 -0.3480 -0.7980
10422SOL    HW233421   7.337   2.960   5.898 -0.5006  0.2129 -0.9230
10423SOL     OW33422   7.330   1.343   5.881  0.2278  0.0301 -0.1483
10423SOL    HW133423   7.382   1.379   5.952 -0.2462 -0.4585  0.4627
10423SOL    HW233424   7.241   1.336   5.917  0.0593 -0.5770 -0.6566
10424SOL     OW33425   6.587   3.246   2.484 -0.2967  0.4943 -0.6147
10424SOL    HW133426   6.510   3.251   2.540  0.5271  0.2783  0.5817
10424SOL    HW233427   6.637   3.325   2.505 -0.0914  0.5259 -1.2117
10425SOL     OW33428   4.637   7.427   1.227 -0.4265  0.1551 -0.5835
10425SOL    HW133429   4.624   7.440   1.321  2.0071 -1.3112  0.0317
10425SOL    HW233430   4.653   7.515   1.193  0.4572  0.5205  0.7109
10426SOL     OW33431   3.898   3.342   9.609  0.2763  0.4208  0.1195
10426SOL    HW133432   3.859   3.362   9.524  1.9801  0.0514 -0.7947
10426SOL    HW233433   3.982   3.302   9.587  1.2466  1.3459  2.0004
10427SOL     OW33434   5.971   8.047   7.643 -0.1806  0.3650  0.1705
10427SOL    HW133435   5.969   8.138   7.612 -1.2810  0.2401 -0.1859
10427SOL    HW233436   5.880   8.018   7.635  0.4638 -1.3475 -1.4737
10428SOL     OW33437   6.988   2.124   1.540  0.1103  0.5509  0.5952
10428SOL    HW133438   6.934   2.075   1.478  0.7679 -0.2429  0.6250
10428SOL    HW233439   6.984   2.215   1.510  0.5016  0.1654 -0.6879
10429SOL     OW33440   5.277   1.427   2.014  0.0891  0.1924 -0.1727
10429SOL    HW133441   5.206   1.416   2.077  0.4540 -0.0088  0.2025
10429SOL    HW233442   5.334   1.351   2.028  0.5606  0.5283 -0.2348
10430SOL     OW33443   0.661   8.653   5.738  0.7096  0.6179  0.2859
10430SOL    HW133444   0.728   8.694   5.684 -1.4173  4.6936  0.3527
10430SOL    HW233445   0.589   8.636   5.678  1.1987 -2.6639  0.4277
10431SOL     OW33446   7.060   6.428   1.070  0.4064  0.0169  0.7760
10431SOL    HW133447   7.116   6.502   1.092 -1.7679  1.7574  0.6779
10431SOL    HW233448   7.120   6.366   1.027  1.8660  2.8050 -1.5855
10432SOL     OW33449   2.850   1.772   9.222  0.3955  0.0705 -0.1856
10432SOL    HW133450   2.793   1.779   9.298  2.1810 -0.8796  1.3373
10432SOL    HW233451   2.838   1.682   9.192  0.2809  0.2011 -0.5316
10433SOL     OW33452   3.709   3.743   0.729  0.1700 -0.2487 -0.0271
10433SOL    HW133453   3.654   3.681   0.681 -0.5335  2.2238 -2.7033
10433SOL    HW233454   3.795   3.739   0.686  0.0843  0.6568 -0.3194
10434SOL     OW33455   7.359   6.711   6.690 -0.4848  0.0413  0.1460
10434SOL    HW133456   7.348   6.657   6.612  0.5549 -1.4464  0.9792
10434SOL    HW233457   7.407   6.789   6.659 -0.4658 -0.3181 -0.7616
10435SOL     OW33458   1.438   7.836   5.453  0.4682 -0.2893  0.1731
10435SOL    HW133459   1.505   7.887   5.407  1.3230  0.0660  1.7534
10435SOL    HW233460   1.357   7.884   5.437  0.7546 -0.1324 -0.8756
10436SOL     OW33461   7.803   7.353   5.582  0.0355  0.5860  0.1739
10436SOL    HW133462   7.852   7.377   5.503 -0.7616  2.9965  0.3110
10436SOL    HW233463   7.801   7.258   5.582  2.7116  0.4401 -1.0551
10437SOL     OW33464   4.791   9.100   0.290  0.1013  0.3655 -0.1548
10437SOL    HW133465   4.862   9.053   0.246  0.1707  0.4583 -0.1430
10437SOL    HW233466   4.796   9.189   0.255  0.8006  0.7101  0.7862
10438SOL     OW33467   3.631   4.817   3.870  0.2285 -0.6495  0.3031
10438SOL    HW133468   3.684   4.784   3.943  0.7957  1.1804  0.7746
10438SOL    HW233469   3.583   4.892   3.907  0.3455  0.1632 -1.1264
10439SOL     OW33470   9.580   5.965   6.161 -0.4007 -0.0159 -0.0533
10439SOL    HW133471   9.604   6.050   6.124 -2.3001  0.6856  0.2394
10439SOL    HW233472   9.616   5.965   6.249 -1.4857  1.0492  0.4116
10440SOL     OW33473   8.415   0.349   6.160  0.2231 -0.8308  0.4938
10440SOL    HW133474   8.366   0.272   6.189 -0.8784 -0.2107  0.3618
10440SOL    HW233475   8.354   0.396   6.103  0.3295  0.8328  1.6446
10441SOL     OW33476   2.495   6.448   7.808  1.0461  0.4203  0.1202
10441SOL    HW133477   2.413   6.461   7.761  1.6742  0.9231 -0.8737
10441SOL    HW233478   2.475   6.472   7.898 -0.3730 -1.2191  0.2947
10442SOL     OW33479   3.054   0.908   5.810  0.1313 -0.1642 -0.2039
10442SOL    HW133480   2.966   0.874   5.800  1.1592 -3.6380  1.0066
10442SOL    HW233481   3.109   0.846   5.762  1.9764  1.8558 -0.8741
10443SOL     OW33482   2.901   8.980   6.332 -0.5469  0.3704 -0.1713
10443SOL    HW133483   2.970   9.013   6.275 -0.4829 -1.5767 -1.3152
10443SOL    HW233484   2.901   9.039   6.407 -0.7295  3.1283 -2.2035
10444SOL     OW33485   3.469   3.466   1.436 -0.2359  0.8256  0.1548
10444SOL    HW133486   3.511   3.406   1.497 -2.4900  0.0650  1.0856
10444SOL    HW233487   3.444   3.541   1.490  1.3546  2.0477 -0.7298
10445SOL     OW33488   6.007   6.012   4.949 -0.3748 -0.4472  0.4447
10445SOL    HW133489   6.044   5.935   4.907 -1.2012 -1.8412  2.1826
10445SOL    HW233490   5.916   6.015   4.918 -0.0388  0.5313 -0.5155
10446SOL     OW33491   1.188   0.307   7.509 -0.2689 -0.3127  0.4991
10446SOL    HW133492   1.185   0.378   7.573 -1.3502 -0.7043  0.9104
10446SOL    HW233493   1.281   0.283   7.504  0.1142  1.1465  0.3091
10447SOL     OW33494   3.079   1.976   4.781 -0.2547 -0.8357 -0.0308
10447SOL    HW133495   3.102   2.020   4.862 -2.2875 -2.6640  1.6700
10447SOL    HW233496   3.017   2.035   4.738  2.7997  1.3945 -1.7496
10448SOL     OW33497   5.719   0.117   1.772 -0.3787  0.4175  0.0596
10448SOL    HW133498   5.731   0.208   1.746  1.4554 -0.3217 -1.9929
10448SOL    HW233499   5.665   0.078   1.703  1.4425 -0.7216 -0.7973
10449SOL     OW33500   9.109   1.674   9.613 -0.1148  0.3602 -0.4808
10449SOL    HW133501   9.039   1.642   9.556 -1.9551  2.4233  0.4802
10449SOL    HW233502   9.131   1.760   9.577 -1.0587  1.5369  1.6050
10450SOL     OW33503   6.376   6.581   3.085 -0.5467 -0.1856 -0.3644
10450SOL    HW133504   6.345   6.623   3.005  1.3144 -0.3049 -1.2016
10450SOL    HW233505   6.456   6.536   3.059 -0.3566 -0.9539  1.3969
10451SOL     OW33506   1.617   0.461   2.329  0.3038 -0.2779 -0.0051
10451SOL    HW133507   1.562   0.525   2.285  1.7218  0.1049 -1.2983
10451SOL    HW233508   1.562   0.382   2.336 -1.0204  0.6433  0.4676
10452SOL     OW33509   6.987   4.098   8.934 -0.5375  0.4892 -0.1596
10452SOL    HW133510   7.039   4.018   8.942 -1.0894  0.1472  0.1302
10452SOL    HW233511   7.050   4.169   8.944  0.1561  0.1221 -1.5324
10453SOL     OW33512   3.710   1.713   7.094 -0.2083 -0.2461 -0.1265
10453SOL    HW133513   3.734   1.804   7.078  1.0110 -0.6682 -0.8159
10453SOL    HW233514   3.755   1.690   7.176  0.0615 -0.4316 -0.3255
10454SOL     OW33515   3.977   4.759   9.420 -0.0493 -0.6505  0.1280
10454SOL    HW133516   4.000   4.837   9.472  0.3759 -0.5647 -0.1838
10454SOL    HW233517   4.000   4.685   9.477 -0.3861 -0.5524  0.3964
10455SOL     OW33518   8.773   1.903   0.354  0.0261  0.7575  0.0877
10455SOL    HW133519   8.863   1.872   0.345  0.1773  1.0437  0.6202
10455SOL    HW233520   8.720   1.831   0.318  0.4043  0.1401  0.7387
10456SOL     OW33521   3.006   4.499   8.244  0.1135 -0.3040  0.1050
10456SOL    HW133522   3.086   4.514   8.294  0.1718  0.4501 -0.2019
10456SOL    HW233523   3.027   4.426   8.187  0.2172 -0.8316  0.8011
10457SOL     OW33524   8.773   8.751   7.772  0.3452  0.3731 -0.5066
10457SOL    HW133525   8.795   8.699   7.695  1.6059 -1.5239  1.0136
10457SOL    HW233526   8.840   8.727   7.837 -0.5605  1.9956  1.1328
10458SOL     OW33527   1.899   0.482   9.342  0.1121 -0.4889 -0.0920
10458SOL    HW133528   1.880   0.484   9.249  1.9511  0.4830 -0.4995
10458SOL    HW233529   1.974   0.541   9.353 -0.2790 -0.2888  2.0571
10459SOL     OW33530   3.251   6.460   7.707  0.4353 -0.1626 -0.4228
10459SOL    HW133531   3.208   6.443   7.623 -1.6225  1.5765  0.2031
10459SOL    HW233532   3.291   6.546   7.697  0.2635  0.0132  0.3311
10460SOL     OW33533   5.681   7.221   8.082 -0.7721 -0.1314  0.1060
10460SOL    HW133534   5.738   7.211   8.006 -1.9607 -0.8507 -0.7341
10460SOL    HW233535   5.592   7.221   8.045 -1.3894 -0.7260  1.5025
10461SOL     OW33536   1.998   5.208   3.294 -0.4342  0.3289 -0.1267
10461SOL    HW133537   2.045   5.127   3.314  1.2539  1.6036  1.4243
10461SOL    HW233538   1.937   5.219   3.366 -0.6093  0.4800 -0.2962
10462SOL     OW33539   3.552   5.114   3.880 -0.0495  0.4483 -0.7390
10462SOL    HW133540   3.541   5.209   3.873 -0.9425  0.5235  1.0523
10462SOL    HW233541   3.496   5.078   3.810 -0.1106  1.2222 -1.0949
10463SOL     OW33542   3.578   7.971   3.333 -0.2321  0.2554  0.5129
10463SOL    HW133543   3.525   7.957   3.411  0.3089 -2.2275  0.5183
10463SOL    HW233544   3.558   7.896   3.277  1.9908  0.1533 -0.2240
10464SOL     OW33545   2.544   0.542   5.711  0.1526  0.4212 -0.3730
10464SOL    HW133546   2.485   0.577   5.644 -1.8401 -0.8746  0.5950
10464SOL    HW233547   2.581   0.463   5.672 -0.7773 -0.1687 -0.0998
10465SOL     OW33548   7.678   5.826   6.539 -0.7679 -0.0052 -0.2430
10465SOL    HW133549   7.678   5.764   6.612  1.0193 -1.2595 -1.2285
10465SOL    HW233550   7.752   5.884   6.557  2.0179 -2.4911 -2.6469
10466SOL     OW33551   6.047   9.321   2.641  0.2384 -0.2539  0.7021
10466SOL    HW133552   6.083   9.316   2.552 -1.2385  2.4022 -0.1588
10466SOL    HW233553   6.111   9.275   2.695  2.3472 -0.0259 -1.4211
10467SOL     OW33554   0.009   7.862   8.863  0.0872  0.1583 -0.5748
10467SOL    HW133555   0.046   7.938   8.907  0.2019  0.3325 -0.9642
10467SOL    HW233556  -0.006   7.798   8.933  1.0237  0.1221 -0.3991
10468SOL     OW33557   4.208   1.714   7.062 -0.3105 -0.2509 -0.5494
10468SOL    HW133558   4.217   1.629   7.019  3.4841 -0.4552  0.2946
10468SOL    HW233559   4.210   1.778   6.991 -0.8625 -0.7596 -1.0348
10469SOL     OW33560   9.040   0.256   5.201  0.1724  0.0930 -0.1373
10469SOL    HW133561   9.012   0.306   5.124 -0.8538  1.2660  0.9721
10469SOL    HW233562   8.996   0.298   5.275  0.2772 -1.6914  0.9828
10470SOL     OW33563   1.256   9.316   9.052  0.0680 -0.5318 -0.0339
10470SOL    HW133564   1.222   9.405   9.048  2.5028  0.4133 -0.7467
10470SOL    HW233565   1.200   9.266   8.992  0.3631  1.1160 -1.7550
10471SOL     OW33566   0.385   3.893   0.189  0.3347  0.4243  0.1953
10471SOL    HW133567   0.403   3.800   0.200  1.3037  0.1531 -2.6831
10471SOL    HW233568   0.306   3.896   0.135 -0.2058  1.3182  1.0081
10472SOL     OW33569   6.931   8.667   4.393 -0.6182 -0.5483 -0.0270
10472SOL    HW133570   6.968   8.579   4.382 -1.3078 -0.8398 -0.0967
10472SOL    HW233571   6.837   8.652   4.400 -0.6995  0.1431  0.4958
10473SOL     OW33572   0.688   3.946   7.255 -0.0813 -0.3267  0.2496
10473SOL    HW133573   0.682   3.907   7.342  0.3201 -0.0162  0.4205
10473SOL    HW233574   0.772   3.992   7.255 -0.1967 -0.1077 -0.2127
10474SOL     OW33575   6.493   0.461   6.625 -0.3717  0.5900 -0.0480
10474SOL    HW133576   6.568   0.453   6.685  0.0641  1.9751 -0.3700
10474SOL    HW233577   6.467   0.371   6.607 -1.2236  0.0740  3.0861
10475SOL     OW33578   5.776   6.014   5.227  0.6994  0.3882  0.3566
10475SOL    HW133579   5.686   6.010   5.193  0.5314  0.0750  0.8271
10475SOL    HW233580   5.808   6.100   5.201 -0.6146  1.5771  2.3819
10476SOL     OW33581   8.426   2.333   5.450  0.0443  0.2864  0.5163
10476SOL    HW133582   8.431   2.247   5.492  1.1407  0.3603  0.5735
10476SOL    HW233583   8.464   2.319   5.363 -0.2461  0.5983  0.3395
10477SOL     OW33584   4.951   5.762   1.255 -0.0297  0.0915 -0.3746
10477SOL    HW133585   5.020   5.797   1.310  1.0277  1.1194 -2.2595
10477SOL    HW233586   4.873   5.765   1.310  0.5173  3.0830  0.4258
10478SOL     OW33587   1.425   0.075   3.120  0.4757 -0.2592  0.1398
10478SOL    HW133588   1.508   0.122   3.128  0.5210 -0.1689 -0.7111
10478SOL    HW233589   1.444   0.006   3.055 -0.1691 -0.0934 -0.2325
10479SOL     OW33590   5.781   3.977   6.292  0.2442  0.1402  0.2276
10479SOL    HW133591   5.745   3.925   6.220 -2.8392  0.3530  1.4731
10479SOL    HW233592   5.769   4.068   6.264 -1.3198  0.2341  1.0711
10480SOL     OW33593   2.420   0.374   7.765 -0.2569 -0.2081  0.0069
10480SOL    HW133594   2.477   0.343   7.836 -0.0079 -0.8483 -0.4706
10480SOL    HW233595   2.451   0.463   7.747  1.0358 -0.7932 -0.7067
10481SOL     OW33596   9.020   7.384   7.130  0.0363 -0.0643 -0.6472
10481SOL    HW133597   8.994   7.344   7.047 -2.4890  1.1867 -0.5452
10481SOL    HW233598   8.957   7.454   7.144  0.0376 -0.5728  2.6199
10482SOL     OW33599   5.571   3.437   2.436 -0.2313 -0.5205 -0.2586
10482SOL    HW133600   5.563   3.365   2.499 -0.2479 -0.4926 -0.2287
10482SOL    HW233601   5.658   3.426   2.399  0.7758  0.8723  1.5212
10483SOL     OW33602   4.122   6.112   6.822 -0.0807  0.3926  0.5265
10483SOL    HW133603   4.153   6.200   6.844 -1.3175  0.9817  0.0198
10483SOL    HW233604   4.109   6.113   6.727  0.2142 -0.4472  0.4670
10484SOL     OW33605   1.409   1.572   3.991  0.7635 -0.1784  0.6622
10484SOL    HW133606   1.316   1.553   4.006  0.1506  0.8369 -1.4799
10484SOL    HW233607   1.455   1.506   4.043 -1.1700 -2.4164 -0.2727
10485SOL     OW33608   1.822   3.420   5.317  0.3112  0.3856 -0.1510
10485SOL    HW133609   1.803   3.490   5.380  0.1925  1.2079 -1.0681
10485SOL    HW233610   1.842   3.467   5.235  1.3775 -0.6265 -0.4861
10486SOL     OW33611   5.672   6.075   8.645 -0.4125 -0.1369  0.1221
10486SOL    HW133612   5.764   6.066   8.622 -0.0064 -2.3311  2.3142
10486SOL    HW233613   5.665   6.162   8.684  1.1978 -0.6762  1.7279
10487SOL     OW33614   9.012   2.848   3.731 -0.2367  0.1053 -0.0640
10487SOL    HW133615   8.956   2.896   3.669  0.9240  1.1349 -0.3583
10487SOL    HW233616   9.101   2.860   3.697  0.3113 -0.2951  1.1714
10488SOL     OW33617   1.200   9.587   9.050  0.2455  0.0847 -0.2836
10488SOL    HW133618   1.290   9.594   9.081  0.3896  0.6849 -0.8209
10488SOL    HW233619   1.149   9.638   9.112 -0.1020 -2.1894  1.4354
10489SOL     OW33620   4.374   7.122   5.183 -0.0374  0.3802  0.3425
10489SOL    HW133621   4.461   7.145   5.216 -0.0725 -2.2334  2.6105
10489SOL    HW233622   4.314   7.158   5.248 -0.5505  0.5912 -0.2390
10490SOL     OW33623   2.766   6.826   5.647  0.1292  0.2162 -0.2324
10490SOL    HW133624   2.809   6.744   5.674 -1.2302  0.3300  2.7470
10490SOL    HW233625   2.736   6.809   5.558  3.6837 -0.8614 -1.3918
10491SOL     OW33626   8.913   3.722   2.933  0.3298 -0.9586 -0.2505
10491SOL    HW133627   8.856   3.706   3.009 -0.5127 -0.5507 -0.7799
10491SOL    HW233628   8.856   3.766   2.870  2.4234  4.3847  1.0818
10492SOL     OW33629   4.477   3.450   9.376  0.0580 -0.4090 -0.3457
10492SOL    HW133630   4.501   3.540   9.395  1.7471 -0.5569 -1.5711
10492SOL    HW233631   4.509   3.434   9.287  0.3623 -2.3980  0.0634
10493SOL     OW33632   0.384   2.224   0.991  0.3211 -0.0190 -0.4525
10493SOL    HW133633   0.449   2.224   1.061 -1.6351 -1.4011  1.5172
10493SOL    HW233634   0.357   2.316   0.984  0.8133  0.1943  0.3534
10494SOL     OW33635   1.061   2.359   8.025  0.4861 -0.1936  0.2676
10494SOL    HW133636   1.049   2.371   7.931 -0.5331 -0.5581  0.3355
10494SOL    HW233637   1.156   2.347   8.036  0.9579  2.3242 -0.3890
10495SOL     OW33638   4.831   1.493   6.268 -0.2978 -0.1728 -0.0723
10495SOL    HW133639   4.752   1.544   6.288  0.9829  2.6490 -1.6132
10495SOL    HW233640   4.876   1.485   6.352 -0.7153  0.9944  0.2792
10496SOL     OW33641   4.576   3.896   8.904 -0.1227  0.4282 -0.0341
10496SOL    HW133642   4.561   3.941   8.821 -3.0486 -1.5315 -0.7274
10496SOL    HW233643   4.630   3.820   8.881  1.1576  1.2135  0.3359
10497SOL     OW33644   3.066   3.893   7.277  0.7440 -0.9868  0.8217
10497SOL    HW133645   3.078   3.866   7.187  1.7929 -0.0017  0.6344
10497SOL    HW233646   3.127   3.967   7.288 -3.4990  3.0400  0.5270
10498SOL     OW33647   0.707   2.492   8.541 -0.8757  0.4760 -0.2437
10498SOL    HW133648   0.786   2.536   8.511  0.4525 -2.7889 -2.1333
10498SOL    HW233649   0.717   2.485   8.636  0.2804  1.5663 -0.2649
10499SOL     OW33650   4.151   2.525   6.428 -0.2875  0.4134  0.0777
10499SOL    HW133651   4.119   2.436   6.436 -0.1569  0.3605  0.0157
10499SOL    HW233652   4.129   2.551   6.339  0.4561  0.1312 -0.1999
10500SOL     OW33653   9.420   7.936   2.889  0.2163 -0.2168  0.1555
10500SOL    HW133654   9.512   7.963   2.898  0.4072 -1.1065  0.9599
10500SOL    HW233655   9.418   7.887   2.807  0.4367 -0.1215  0.0903
10501SOL     OW33656   6.580   7.624   8.259 -0.4588  0.4942  0.1297
10501SOL    HW133657   6.613   7.688   8.195  0.8069  0.2303  0.4782
10501SOL    HW233658   6.602   7.539   8.221 -0.3909  0.3160  0.5599
10502SOL     OW33659   0.471   4.455   2.646  0.2039  0.0545 -0.3796
10502SOL    HW133660   0.557   4.498   2.648  0.1585  0.2087  1.9670
10502SOL    HW233661   0.489   4.365   2.676 -0.3619 -0.0845 -0.4489
10503SOL     OW33662   4.627   1.534   1.707  0.1035 -0.0171 -0.0202
10503SOL    HW133663   4.690   1.476   1.752  0.2598  0.4942  0.4307
10503SOL    HW233664   4.679   1.577   1.639 -0.0043 -0.3769 -0.3319
10504SOL     OW33665   0.109   6.730   1.879  0.2211  0.1891 -0.0144
10504SOL    HW133666   0.146   6.818   1.870 -0.8685  0.5191 -1.8304
10504SOL    HW233667   0.164   6.687   1.945  1.6609  1.7544 -0.1286
10505SOL     OW33668   6.404   9.268   4.932 -0.2365 -0.6122 -0.0247
10505SOL    HW133669   6.387   9.294   5.023  0.6172  1.3122 -0.3630
10505SOL    HW233670   6.320   9.281   4.887 -0.2351  0.0907  0.1580
10506SOL     OW33671   6.342   1.538   4.161 -0.1481  0.1008 -0.5274
10506SOL    HW133672   6.401   1.493   4.222 -0.7438 -0.9918 -0.7186
10506SOL    HW233673   6.358   1.631   4.176 -0.3555 -0.1314  1.3846
10507SOL     OW33674   4.244   5.295   0.527  0.1563  0.5122 -0.0371
10507SOL    HW133675   4.318   5.264   0.475  1.2207 -0.5195  1.9931
10507SOL    HW233676   4.271   5.381   0.559 -0.0338  0.6635 -0.2807
10508SOL     OW33677   4.019   7.617   2.178  0.2339  0.9143 -0.1577
10508SOL    HW133678   3.959   7.621   2.253  1.0661  1.9406  0.4957
10508SOL    HW233679   4.102   7.650   2.213  0.8760  0.5721 -1.3208
10509SOL     OW33680   8.191   4.626   4.677  0.1814 -0.5737 -0.1267
10509SOL    HW133681   8.151   4.639   4.763  0.1883  1.1910 -0.3656
10509SOL    HW233682   8.119   4.599   4.620  0.0356 -0.9892  0.2478
10510SOL     OW33683   0.051   2.990   3.661 -0.4118 -0.3809  0.5137
10510SOL    HW133684   0.035   2.951   3.574 -1.0384  3.3988 -1.2488
10510SOL    HW233685  -0.010   2.944   3.719 -3.4472  0.0852 -2.0496
10511SOL     OW33686   3.867   2.250   0.530  0.0976 -0.0192 -0.0065
10511SOL    HW133687   3.917   2.272   0.452  1.1911 -1.8192  0.1366
10511SOL    HW233688   3.909   2.171   0.564 -0.8176  0.2996  1.9885
10512SOL     OW33689   6.069   5.266   4.502  0.6476  0.1316 -0.0128
10512SOL    HW133690   6.043   5.193   4.559 -0.7780  1.0469  0.5668
10512SOL    HW233691   5.992   5.281   4.447  2.1876 -1.1181 -2.6870
10513SOL     OW33692   2.027   4.092   0.446 -0.3693 -0.5414 -0.5246
10513SOL    HW133693   2.046   3.998   0.444  0.7715 -0.3179 -0.9809
10513SOL    HW233694   2.009   4.115   0.356  1.0000 -0.0300 -0.6970
10514SOL     OW33695   9.301   0.410   5.325 -0.1201 -0.5609  0.1616
10514SOL    HW133696   9.256   0.443   5.402 -0.5663 -0.9431  0.0645
10514SOL    HW233697   9.269   0.321   5.313 -0.4037 -0.3502 -0.7315
10515SOL     OW33698   2.310   1.193   9.074 -0.9495  0.0130  0.5763
10515SOL    HW133699   2.292   1.287   9.077 -1.9994 -0.1966  1.8186
10515SOL    HW233700   2.380   1.179   9.138  2.6851  0.5427 -2.9002
10516SOL     OW33701   8.483   2.893   8.205  0.2503  0.0079 -0.7995
10516SOL    HW133702   8.389   2.909   8.191  0.1879 -0.0296 -0.4270
10516SOL    HW233703   8.525   2.974   8.177 -0.2043  1.7176  2.9197
10517SOL     OW33704   4.490   2.766   7.774  0.1764  0.5086  0.6665
10517SOL    HW133705   4.562   2.821   7.806 -0.6671  1.4788  0.9517
10517SOL    HW233706   4.411   2.816   7.795 -0.6951 -1.2535  1.8481
10518SOL     OW33707   1.719   2.342   2.295 -0.5945 -0.1362  0.1503
10518SOL    HW133708   1.624   2.348   2.310 -1.0142 -0.1428 -2.1423
10518SOL    HW233709   1.732   2.253   2.264  0.1134 -0.0020  0.0601
10519SOL     OW33710   7.028   3.609   7.963 -0.1214  0.6119  0.4992
10519SOL    HW133711   7.056   3.649   7.880 -0.3977 -0.4643 -0.1391
10519SOL    HW233712   7.101   3.624   8.023  0.1444  1.2794  0.0176
10520SOL     OW33713   4.546   3.064   7.574 -0.0432 -0.4748 -0.4125
10520SOL    HW133714   4.501   3.141   7.539  1.0481  0.5305  0.3120
10520SOL    HW233715   4.635   3.094   7.591 -0.3465 -0.9660  2.7819
10521SOL     OW33716   7.219   3.438   7.353 -0.3469 -0.1727 -0.7913
10521SOL    HW133717   7.237   3.387   7.432 -0.7063 -0.2108 -0.7323
10521SOL    HW233718   7.286   3.409   7.291 -0.5773 -0.7538 -0.7739
10522SOL     OW33719   1.247   4.698   3.261 -0.0636  0.1176 -0.1598
10522SOL    HW133720   1.306   4.646   3.207 -0.0227  1.0088 -0.9981
10522SOL    HW233721   1.304   4.760   3.306 -0.4479  2.2708 -2.4189
10523SOL     OW33722   7.037   2.352   4.412 -0.0664 -0.1295 -0.1180
10523SOL    HW133723   7.074   2.414   4.350  0.0905  0.4750  0.5720
10523SOL    HW233724   7.013   2.276   4.358 -0.8973  0.7757 -1.0783
10524SOL     OW33725   3.659   2.363   0.267  0.1355  1.1189 -0.3212
10524SOL    HW133726   3.746   2.355   0.228  0.5323 -1.1566  0.8466
10524SOL    HW233727   3.622   2.275   0.262  0.0362  0.7263  3.8758
10525SOL     OW33728   5.640   0.156   0.993 -0.0459  0.3570 -0.0797
10525SOL    HW133729   5.706   0.198   1.049 -1.3621  0.6681  1.2914
10525SOL    HW233730   5.636   0.065   1.024  0.2845  0.1277 -0.6894
10526SOL     OW33731   6.680   3.642   0.775  0.0852 -0.1226 -0.7032
10526SOL    HW133732   6.625   3.593   0.714 -0.5720 -0.9642  0.5116
10526SOL    HW233733   6.646   3.618   0.861  0.9630  1.0579 -0.0102
10527SOL     OW33734   1.953   9.456   8.401  0.1875  0.3846  0.1056
10527SOL    HW133735   1.917   9.426   8.484 -1.9288  1.1027 -0.4840
10527SOL    HW233736   1.893   9.524   8.372  0.9856  0.3040 -1.9101
10528SOL     OW33737   2.344   6.088   0.169  0.3691 -0.3160  0.1167
10528SOL    HW133738   2.362   6.177   0.138 -0.1605 -0.4674 -0.6396
10528SOL    HW233739   2.254   6.070   0.141  1.6874 -2.5860 -3.4617
10529SOL     OW33740   3.662   7.783   3.784 -0.1843 -1.0441  0.0829
10529SOL    HW133741   3.705   7.837   3.718  1.6860  0.7311  2.5404
10529SOL    HW233742   3.631   7.706   3.736  1.1756  0.0478 -2.7862
10530SOL     OW33743   0.998   5.938   6.146 -0.6467 -0.1208 -0.1844
10530SOL    HW133744   0.913   5.907   6.115 -1.1013  0.8179  0.0897
10530SOL    HW233745   0.978   5.988   6.225  0.1393  0.2702 -0.2241
10531SOL     OW33746   9.526   3.568   6.258  0.1721 -0.3350 -0.0165
10531SOL    HW133747   9.613   3.605   6.246 -0.2396  0.9903  0.9048
10531SOL    HW233748   9.520   3.549   6.352 -0.6939  0.0271  0.0149
10532SOL     OW33749   1.314   9.188   4.465 -0.0413  0.3273 -0.3430
10532SOL    HW133750   1.294   9.282   4.457 -1.2278  0.1215  0.0103
10532SOL    HW233751   1.405   9.181   4.436  0.2149  1.6553  0.0418
10533SOL     OW33752   1.183   9.101   1.692 -0.2867  0.0968 -0.5435
10533SOL    HW133753   1.122   9.027   1.684  0.8369 -1.0516  1.0313
10533SOL    HW233754   1.169   9.133   1.781  1.4988 -0.3101 -0.0810
10534SOL     OW33755   2.723   3.605   2.236  0.2774 -0.3337  0.5768
10534SOL    HW133756   2.695   3.513   2.235  0.1777 -0.3729 -2.1601
10534SOL    HW233757   2.814   3.602   2.263  0.0649 -1.1446  1.2620
10535SOL     OW33758   1.228   2.274   4.884  0.5230 -0.7163 -0.1396
10535SOL    HW133759   1.239   2.348   4.825 -0.7183  0.1679  0.6935
10535SOL    HW233760   1.303   2.277   4.942  0.3089  0.1059  0.0988
10536SOL     OW33761   0.588   0.421   0.113  0.6841 -0.3775  0.4890
10536SOL    HW133762   0.645   0.343   0.113 -0.1599 -1.0171  1.6073
10536SOL    HW233763   0.545   0.419   0.199  0.9490  1.5622  0.7000
10537SOL     OW33764   4.070   4.470   8.040 -0.2748 -0.3067 -0.1159
10537SOL    HW133765   4.058   4.456   7.947  1.3611 -0.3489 -0.3446
10537SOL    HW233766   4.119   4.552   8.046  0.0658 -0.5579  0.6810
10538SOL     OW33767   3.218   4.614   7.271 -0.7208 -0.0374 -0.3750
10538SOL    HW133768   3.186   4.543   7.327  3.2581 -0.1632  2.2250
10538SOL    HW233769   3.244   4.570   7.190 -1.3688 -0.9795 -0.0932
10539SOL     OW33770   5.968   7.670   3.788 -0.2316 -0.0574 -0.6482
10539SOL    HW133771   5.896   7.624   3.830 -0.3003  0.6799  0.0561
10539SOL    HW233772   5.944   7.763   3.793  0.2323  0.1133 -1.4185
10540SOL     OW33773   3.319   9.295   2.079 -0.7754  0.3622 -0.4637
10540SOL    HW133774   3.352   9.381   2.107 -0.6093 -0.2941  1.5101
10540SOL    HW233775   3.346   9.288   1.987  1.3757  1.4029  0.0249
10541SOL     OW33776   5.681   3.432   2.810 -0.4282 -0.1430  0.0858
10541SOL    HW133777   5.607   3.391   2.766  1.2791 -2.8046 -0.5375
10541SOL    HW233778   5.704   3.507   2.754 -0.5595 -1.3154 -1.5944
10542SOL     OW33779   0.969   5.990   1.301 -0.1949 -0.1227  0.6118
10542SOL    HW133780   0.939   5.990   1.211 -2.0860  0.1633  1.2046
10542SOL    HW233781   1.064   5.974   1.295  0.6889  4.2207 -1.6994
10543SOL     OW33782   1.578   6.795   0.690  0.1333 -0.5177 -0.3645
10543SOL    HW133783   1.634   6.803   0.613  0.5264  0.0627 -0.0261
10543SOL    HW233784   1.625   6.734   0.747 -1.1699 -2.6725 -1.4490
10544SOL     OW33785   6.996   0.113   3.546  0.3754 -0.2572  0.2338
10544SOL    HW133786   6.968   0.155   3.464  0.0167  0.1831  0.5709
10544SOL    HW233787   7.026   0.026   3.520 -0.2218 -0.3106 -0.2969
10545SOL     OW33788   6.823   1.536   3.823 -0.3006  0.1511  0.0165
10545SOL    HW133789   6.882   1.461   3.820 -0.0350  0.2250  1.9660
10545SOL    HW233790   6.809   1.552   3.917 -1.9848  1.2626 -0.3811
10546SOL     OW33791   7.606   6.389   7.190 -0.0763 -0.3932  0.6848
10546SOL    HW133792   7.525   6.440   7.195  0.3807  0.3497  0.6573
10546SOL    HW233793   7.670   6.450   7.156  0.8429 -0.5505  2.0591
10547SOL     OW33794   2.429   8.399   3.249 -0.5209 -0.0826  0.0958
10547SOL    HW133795   2.452   8.319   3.202  0.4159  0.0075  0.3878
10547SOL    HW233796   2.333   8.397   3.253 -0.5566 -0.7315 -0.6846
10548SOL     OW33797   2.911   5.841   0.506 -0.5507 -0.3317  0.0538
10548SOL    HW133798   2.931   5.935   0.505  1.4195 -0.6980 -1.4312
10548SOL    HW233799   2.916   5.815   0.414 -0.4864 -2.0102  0.5079
10549SOL     OW33800   4.855   2.499   6.978 -0.2140  0.2684  0.0034
10549SOL    HW133801   4.861   2.453   7.062  0.8081 -0.5599 -0.4980
10549SOL    HW233802   4.937   2.548   6.971  1.1267 -2.0066 -1.7799
10550SOL     OW33803   1.084   2.290   6.386 -0.2724  0.0514 -0.2190
10550SOL    HW133804   1.024   2.362   6.403  0.5217  1.2890 -2.2519
10550SOL    HW233805   1.171   2.328   6.396  0.1756 -0.2181 -2.5193
10551SOL     OW33806   2.396   5.418   8.054 -0.3083  0.1592  0.2153
10551SOL    HW133807   2.365   5.504   8.082 -0.4887  1.6122 -3.8072
10551SOL    HW233808   2.318   5.363   8.052 -0.5803  0.5174  0.8118
10552SOL     OW33809   9.031   2.961   6.248 -0.1448 -0.1587  0.0359
10552SOL    HW133810   8.957   2.939   6.191 -0.7858  1.7695  0.0604
10552SOL    HW233811   9.003   2.937   6.336 -1.8068  2.6749  0.4148
10553SOL     OW33812   0.785   7.973   1.173 -0.4099 -0.2255  0.3090
10553SOL    HW133813   0.695   7.942   1.181 -0.6265  0.3525  0.1949
10553SOL    HW233814   0.834   7.897   1.143 -0.5308 -1.0289  2.0716
10554SOL     OW33815   6.804   7.205   7.011 -0.5798  0.0757 -0.5794
10554SOL    HW133816   6.761   7.177   6.930 -2.7619  2.6322 -0.4698
10554SOL    HW233817   6.771   7.294   7.026 -0.3139 -0.2970  3.1776
10555SOL     OW33818   6.230   6.100   8.328 -0.5283 -0.1855  0.3190
10555SOL    HW133819   6.260   6.135   8.412  0.5817  2.0369 -0.9242
10555SOL    HW233820   6.289   6.028   8.310  0.8831  0.9281  0.3047
10556SOL     OW33821   6.885   3.799   5.824  0.4116 -0.1960  0.2847
10556SOL    HW133822   6.865   3.850   5.745  0.0653 -1.3501 -0.3920
10556SOL    HW233823   6.954   3.848   5.867  2.0174 -0.5380 -1.7530
10557SOL     OW33824   7.938   8.404   1.412 -0.2319 -0.0881  0.3313
10557SOL    HW133825   7.923   8.312   1.434 -0.7864  0.1858  1.1294
10557SOL    HW233826   7.919   8.409   1.318 -0.1191 -0.8015  0.2636
10558SOL     OW33827   7.712   5.808   9.261  0.1272  0.3088  0.1584
10558SOL    HW133828   7.736   5.815   9.169 -0.9032  2.7793  0.0018
10558SOL    HW233829   7.788   5.769   9.303  1.7896  1.7534 -1.3348
10559SOL     OW33830   4.662   1.638   1.451  0.3267 -0.1943  0.1882
10559SOL    HW133831   4.689   1.720   1.410 -1.1379  1.1906  1.8213
10559SOL    HW233832   4.601   1.599   1.390  0.2549  0.4586 -0.1657
10560SOL     OW33833   2.890   2.634   3.779 -0.5814  0.2656  0.3012
10560SOL    HW133834   2.946   2.662   3.707 -0.4731 -2.1557 -0.6684
10560SOL    HW233835   2.918   2.687   3.854  2.3009 -0.1001 -0.3980
10561SOL     OW33836   1.116   9.580   7.517 -0.3075  0.1970  0.0156
10561SOL    HW133837   1.112   9.501   7.463 -1.4804  0.3030 -0.0850
10561SOL    HW233838   1.053   9.640   7.477  0.5182  1.1702  0.1335
10562SOL     OW33839   1.388   8.792   1.766 -0.1566  0.7799  0.1409
10562SOL    HW133840   1.472   8.809   1.810  0.4231  0.0909 -0.6486
10562SOL    HW233841   1.413   8.777   1.674 -1.2797  1.7277 -0.3382
10563SOL     OW33842   2.937   0.062   9.608 -0.3389  0.6521  0.3894
10563SOL    HW133843   2.963   0.149   9.578  2.1827  0.2102  1.0856
10563SOL    HW233844   3.009   0.033   9.664 -1.1308 -1.8765  0.2174
10564SOL     OW33845   1.284   0.932   5.446  0.1643 -0.0309  0.1464
10564SOL    HW133846   1.288   1.013   5.396 -1.1987 -0.2088 -0.2698
10564SOL    HW233847   1.194   0.927   5.479 -0.0635 -1.8261 -0.6138
10565SOL     OW33848   6.645   6.527   1.716 -0.5655  0.3248  0.1899
10565SOL    HW133849   6.634   6.621   1.731  0.2809  1.1261 -3.1958
10565SOL    HW233850   6.700   6.522   1.638  0.1853 -3.0483  0.7813
10566SOL     OW33851   7.096   8.455   7.985 -0.7335  0.0173 -0.3183
10566SOL    HW133852   7.003   8.453   8.008 -0.5614  0.1160  0.4148
10566SOL    HW233853   7.102   8.402   7.906 -1.4640  0.2815 -0.5618
10567SOL     OW33854   5.060   5.116   4.389  0.0177 -0.5965  0.5331
10567SOL    HW133855   5.138   5.098   4.441  0.2894  0.2719  0.4488
10567SOL    HW233856   5.093   5.165   4.313 -0.3847 -1.7425 -0.4067
10568SOL     OW33857   6.770   6.002   2.544 -0.1841 -0.0839 -0.3461
10568SOL    HW133858   6.859   5.970   2.559 -0.2919  0.1884  1.0175
10568SOL    HW233859   6.781   6.086   2.500  0.2948  0.4467  0.7460
10569SOL     OW33860   7.212   1.052   4.802  0.0138 -0.1376  0.1433
10569SOL    HW133861   7.295   1.080   4.764 -0.9313  1.1432 -1.0841
10569SOL    HW233862   7.233   1.030   4.893  1.5153  1.0374  0.1054
10570SOL     OW33863   2.356   7.205   5.716 -0.9435 -0.1256  0.4106
10570SOL    HW133864   2.393   7.122   5.748 -0.5349 -0.1551 -0.1150
10570SOL    HW233865   2.301   7.236   5.787  0.5583  0.2084  1.4652
10571SOL     OW33866   3.106   0.936   9.520 -0.2331  0.1835 -0.3208
10571SOL    HW133867   3.114   0.951   9.615 -0.3340 -0.4523 -0.2076
10571SOL    HW233868   3.119   1.023   9.481 -0.1551  0.4455  0.2726
10572SOL     OW33869   0.915   9.277   1.652  0.5123 -0.0121 -0.0034
10572SOL    HW133870   0.882   9.281   1.563 -0.0719 -0.0387  0.2059
10572SOL    HW233871   0.908   9.185   1.676  1.8928 -0.2230 -0.3779
10573SOL     OW33872   6.863   3.944   3.744 -0.3462 -0.3762  0.1650
10573SOL    HW133873   6.807   4.020   3.759  0.5564  0.5629 -1.0423
10573SOL    HW233874   6.945   3.964   3.790  0.3931  0.0249 -1.2704
10574SOL     OW33875   5.844   7.378   3.066 -0.5651 -0.3808  0.4099
10574SOL    HW133876   5.890   7.431   3.001 -2.4377 -1.4910 -1.9881
10574SOL    HW233877   5.795   7.314   3.014 -0.1730 -3.0170  3.0801
10575SOL     OW33878   0.616   4.427   3.459  0.6113 -0.6834 -0.4940
10575SOL    HW133879   0.651   4.344   3.427 -1.5005 -1.3700 -1.1440
10575SOL    HW233880   0.589   4.474   3.381  0.6460  0.0942 -0.0536
10576SOL     OW33881   8.379   4.708   3.257 -0.6669 -0.1099 -0.5843
10576SOL    HW133882   8.312   4.655   3.214 -0.5722  0.1305 -1.0318
10576SOL    HW233883   8.348   4.798   3.247 -0.3111 -0.0033 -0.7347
10577SOL     OW33884   0.869   0.010   7.187 -0.1650  0.3242  0.7349
10577SOL    HW133885   0.890   0.092   7.141 -2.0454  0.4702  0.0632
10577SOL    HW233886   0.813   0.037   7.259 -0.8844 -0.3731  0.4463
10578SOL     OW33887   9.466   8.398   4.758  0.3393  0.5944 -0.0886
10578SOL    HW133888   9.538   8.348   4.795 -0.6363  0.7264  2.1511
10578SOL    HW233889   9.428   8.340   4.692 -0.2075 -1.3636  1.8179
10579SOL     OW33890   6.566   2.984   9.111 -0.3871  0.3642 -0.1559
10579SOL    HW133891   6.569   3.055   9.175 -0.9118  1.5512 -1.4219
10579SOL    HW233892   6.569   3.027   9.026  0.8626 -1.2093 -0.9649
10580SOL     OW33893   9.378   1.521   6.181  0.3541 -0.0344  0.1893
10580SOL    HW133894   9.465   1.497   6.212 -0.5393 -2.7435  0.9099
10580SOL    HW233895   9.348   1.445   6.131 -0.3987  2.1057 -2.8752
10581SOL     OW33896   8.802   9.142   0.311  0.1224  0.5644 -0.1022
10581SOL    HW133897   8.843   9.075   0.256  0.1516 -0.0718  0.6806
10581SOL    HW233898   8.742   9.093   0.368  1.7541  0.8748  2.0225
10582SOL     OW33899   6.066   5.180   8.604  0.2337 -0.0451 -0.2802
10582SOL    HW133900   6.005   5.236   8.556 -0.3759 -1.6865 -1.5216
10582SOL    HW233901   6.025   5.093   8.602  1.7312 -0.7986  0.4677
10583SOL     OW33902   3.240   4.819   8.756 -0.3548 -1.0303 -0.3427
10583SOL    HW133903   3.218   4.899   8.802  0.0041 -1.3741  0.4455
10583SOL    HW233904   3.157   4.772   8.749 -0.5146 -0.7194 -0.5665
10584SOL     OW33905   3.291   7.048   1.373  0.1194  0.1094 -0.1250
10584SOL    HW133906   3.298   6.962   1.334 -0.3399  0.2890 -0.6216
10584SOL    HW233907   3.298   7.033   1.467  2.4699 -0.1895 -0.2938
10585SOL     OW33908   1.777   3.457   8.856 -0.2183  0.1247 -0.7445
10585SOL    HW133909   1.697   3.406   8.843  0.1129 -0.5637 -0.1421
10585SOL    HW233910   1.845   3.409   8.810  0.3272 -0.6325  0.7754
10586SOL     OW33911   8.232   4.643   9.018 -0.1480  0.1896 -0.2480
10586SOL    HW133912   8.204   4.615   9.105  0.6040  0.9587  0.2517
10586SOL    HW233913   8.163   4.611   8.959 -0.7589 -0.1675  0.6443
10587SOL     OW33914   0.276   4.880   7.822 -0.1305  0.0451 -0.4978
10587SOL    HW133915   0.301   4.817   7.890  0.0992 -1.5888 -2.0448
10587SOL    HW233916   0.213   4.938   7.866  0.2809 -0.7304  1.2052
10588SOL     OW33917   7.289   5.155   0.186  0.3803 -0.0140  0.1046
10588SOL    HW133918   7.240   5.139   0.267 -1.4689 -0.0655 -0.9751
10588SOL    HW233919   7.278   5.076   0.135 -0.4359  0.8508 -1.1247
10589SOL     OW33920   1.838   1.642   6.693 -0.3211  0.6863  0.4480
10589SOL    HW133921   1.910   1.581   6.709 -0.5310  0.3056 -0.0256
10589SOL    HW233922   1.860   1.719   6.745 -0.1958  0.1007  1.2848
10590SOL     OW33923   9.145   4.832   2.121  0.0280 -0.8295 -0.4737
10590SOL    HW133924   9.108   4.746   2.102  0.0873 -0.8780 -0.3711
10590SOL    HW233925   9.070   4.886   2.145 -0.1404 -0.5847 -1.5022
10591SOL     OW33926   0.617   7.845   4.554 -0.7113 -0.1203 -0.2668
10591SOL    HW133927   0.597   7.929   4.512  0.9065  0.8994  0.8623
10591SOL    HW233928   0.555   7.839   4.626 -0.8977  0.0693 -0.4120
10592SOL     OW33929   4.357   7.045   9.575 -0.7608  0.1838  0.3539
10592SOL    HW133930   4.281   7.102   9.582 -2.1885 -1.8511  3.0760
10592SOL    HW233931   4.376   7.018   9.664  4.4969  2.0524  0.1425
10593SOL     OW33932   3.249   8.420   4.805  0.0809 -0.5249 -0.0895
10593SOL    HW133933   3.272   8.436   4.897  0.4423 -1.0654 -0.0828
10593SOL    HW233934   3.273   8.329   4.790 -0.0887 -0.4724 -0.6915
10594SOL     OW33935   6.766   6.258   6.947  0.0473 -0.1989 -0.9223
10594SOL    HW133936   6.741   6.262   7.039  0.4042  0.9800 -0.8668
10594SOL    HW233937   6.793   6.347   6.925 -1.2676 -0.1469 -2.5162
10595SOL     OW33938   6.056   3.558   4.792 -0.3778  0.1948  0.0254
10595SOL    HW133939   6.114   3.634   4.800  1.1711 -0.7929 -1.2420
10595SOL    HW233940   6.113   3.488   4.760 -1.8477 -1.4094  0.7546
10596SOL     OW33941   5.444   4.424   2.302 -0.4289  0.2141 -0.0112
10596SOL    HW133942   5.371   4.366   2.324 -1.4276  1.2951 -0.3649
10596SOL    HW233943   5.512   4.365   2.269 -2.0543 -0.6529 -2.1029
10597SOL     OW33944   3.767   2.736   0.549  0.3813  0.4662 -0.0080
10597SOL    HW133945   3.700   2.805   0.546 -1.1315 -0.9796 -1.6394
10597SOL    HW233946   3.753   2.693   0.633  1.4521  2.1831  1.1085
10598SOL     OW33947   3.644   5.344   8.344  0.3193  0.1774  0.7567
10598SOL    HW133948   3.564   5.334   8.291  0.7419  0.1203  0.1126
10598SOL    HW233949   3.668   5.436   8.332  0.8370 -0.0219  0.2300
10599SOL     OW33950   2.125   3.118   9.079  0.3672  0.6636 -0.1062
10599SOL    HW133951   2.163   3.205   9.066  0.2287  0.7524  0.0747
10599SOL    HW233952   2.063   3.108   9.008  2.2736 -0.3655 -1.7068
10600SOL     OW33953   7.409   6.283   3.441 -0.1707  0.0431 -0.3541
10600SOL    HW133954   7.433   6.373   3.460  3.2016 -0.1710 -2.7351
10600SOL    HW233955   7.440   6.233   3.516  0.5281  0.6019 -0.2629
10601SOL     OW33956   3.491   0.751   9.160 -0.1855  0.5501 -0.2304
10601SOL    HW133957   3.414   0.781   9.210 -0.8534 -2.2082  0.5880
10601SOL    HW233958   3.454   0.712   9.081  0.0491 -2.6468  1.0940
10602SOL     OW33959   0.677   9.145   3.199  0.0784 -0.1194 -0.1966
10602SOL    HW133960   0.653   9.194   3.278  1.5456 -0.2820  0.3811
10602SOL    HW233961   0.673   9.053   3.226  2.4106 -0.1327  0.2996
10603SOL     OW33962   6.403   1.429   6.248  0.5515 -0.4631  0.3916
10603SOL    HW133963   6.495   1.411   6.230  0.9709  0.5567  1.3820
10603SOL    HW233964   6.404   1.511   6.296 -0.9648  0.0825 -0.4461
10604SOL     OW33965   6.064   4.185   0.708 -0.2697  0.0201  0.0016
10604SOL    HW133966   6.041   4.233   0.628  2.0175  0.4169 -0.4840
10604SOL    HW233967   6.158   4.169   0.700 -0.2348 -1.0690  2.0329
10605SOL     OW33968   8.951   2.546   9.378  0.3342 -0.1147 -0.2093
10605SOL    HW133969   9.012   2.604   9.424 -0.5745  0.1250  0.7166
10605SOL    HW233970   8.894   2.606   9.329 -1.9903  0.0023  2.4190
10606SOL     OW33971   5.350   4.466   9.021 -0.2555 -0.3020 -0.5163
10606SOL    HW133972   5.430   4.519   9.028 -1.3379  1.7989 -2.6149
10606SOL    HW233973   5.374   4.395   8.961 -0.0291  0.5533 -1.4644
10607SOL     OW33974   5.156   6.094   0.048  0.3459  0.7771  0.2223
10607SOL    HW133975   5.070   6.072   0.084  0.6391  0.2060  0.5770
10607SOL    HW233976   5.217   6.036   0.093  0.7522  0.1797 -1.0461
10608SOL     OW33977   8.803   1.502   8.238  0.5799 -0.1867 -0.4694
10608SOL    HW133978   8.887   1.537   8.208  1.2346  0.2393  1.6562
10608SOL    HW233979   8.791   1.541   8.325 -1.2696 -1.1369 -0.2541
10609SOL     OW33980   7.187   7.618   1.601  0.0763 -0.0364  0.2756
10609SOL    HW133981   7.101   7.652   1.576 -0.7248 -1.0806  1.5186
10609SOL    HW233982   7.184   7.525   1.579  0.7604 -0.1524  0.6404
10610SOL     OW33983   3.387   3.381   7.410 -0.0460  0.5152  0.6459
10610SOL    HW133984   3.379   3.393   7.505  0.0899 -2.8221  1.1898
10610SOL    HW233985   3.334   3.304   7.391  0.0117  1.0549 -2.0212
10611SOL     OW33986   3.896   7.079   0.029 -0.6313 -0.0779 -0.4806
10611SOL    HW133987   3.917   7.058   0.120 -0.7458  0.0740 -0.4167
10611SOL    HW233988   3.878   7.173   0.030  0.9703  0.2560 -0.9683
10612SOL     OW33989   7.594   6.581   2.121  0.0241  0.0699  0.1122
10612SOL    HW133990   7.545   6.539   2.191  0.4707  0.6296  0.7732
10612SOL    HW233991   7.544   6.661   2.102  1.3107  1.3051  1.6694
10613SOL     OW33992   5.059   7.333   5.076  0.2829  0.5366 -0.0178
10613SOL    HW133993   4.994   7.316   5.008  0.5949 -2.5328  0.3180
10613SOL    HW233994   5.045   7.425   5.099 -2.1259  0.7362 -1.7980
10614SOL     OW33995   9.325   3.148   2.403 -0.1862 -0.7546  0.0106
10614SOL    HW133996   9.292   3.078   2.346  0.8594 -1.9281  0.7962
10614SOL    HW233997   9.419   3.132   2.410  0.2171  1.1748 -0.3504
10615SOL     OW33998   6.317   3.008   0.167  0.1083 -0.4135 -0.9285
10615SOL    HW133999   6.321   3.013   0.072 -0.0353 -1.8438 -1.0222
10615SOL    HW234000   6.273   2.925   0.186  0.1015 -0.1415  0.3882
10616SOL     OW34001   9.383   9.069   5.779  0.2121  0.2247 -0.2701
10616SOL    HW134002   9.415   8.979   5.780  0.5646  0.3413  0.8023
10616SOL    HW234003   9.385   9.094   5.687  0.4185 -0.7497 -0.5500
10617SOL     OW34004   6.365   3.452   0.253  0.1512  0.0515  0.6022
10617SOL    HW134005   6.353   3.358   0.261  0.7873 -0.0412  0.5052
10617SOL    HW234006   6.394   3.466   0.163  2.1348  0.1010  1.2086
10618SOL     OW34007   4.531   2.904   2.683  0.3604 -0.1878 -0.0567
10618SOL    HW134008   4.616   2.888   2.724  0.6290 -0.2404 -0.6152
10618SOL    HW234009   4.469   2.909   2.756  0.8331 -0.2079  0.3513
10619SOL     OW34010   4.224   8.946   8.999 -0.0911  0.0901 -0.2865
10619SOL    HW134011   4.178   8.972   8.919  0.2907 -1.3587 -1.0280
10619SOL    HW234012   4.315   8.969   8.982 -0.1247  0.4834  0.0600
10620SOL     OW34013   0.231   4.329   6.247  0.0922 -0.0882 -0.1909
10620SOL    HW134014   0.220   4.398   6.182 -2.2608 -0.2508 -0.0676
10620SOL    HW234015   0.257   4.374   6.327 -0.5019  0.5764 -0.3597
10621SOL     OW34016   3.762   4.853   6.799  0.0683 -0.0455 -0.2507
10621SOL    HW134017   3.764   4.877   6.892  2.0930 -1.0271  0.0161
10621SOL    HW234018   3.848   4.881   6.766 -0.2904 -0.5118 -1.6134
10622SOL     OW34019   0.615   2.316   1.553  0.3620  0.4660  0.4212
10622SOL    HW134020   0.697   2.362   1.569  0.2774  0.3699  1.2136
10622SOL    HW234021   0.553   2.385   1.530  0.3880  0.6811  0.9813
10623SOL     OW34022   8.490   0.747   8.008 -0.1355 -0.5433  0.0552
10623SOL    HW134023   8.584   0.746   8.024 -0.2185  0.9332  0.7969
10623SOL    HW234024   8.463   0.656   8.016  0.8917 -0.7257  2.0316
10624SOL     OW34025   0.410   7.186   3.193 -0.3959  0.3095 -0.1661
10624SOL    HW134026   0.493   7.226   3.219  0.6418 -1.6948 -0.2460
10624SOL    HW234027   0.372   7.155   3.276 -1.6487  2.1558  0.0183
10625SOL     OW34028   2.251   6.619   2.608 -0.1906  0.4998  0.1506
10625SOL    HW134029   2.240   6.594   2.699  0.2226 -0.1950  0.0205
10625SOL    HW234030   2.330   6.573   2.580 -1.6780 -1.4054 -1.2597
10626SOL     OW34031   2.088   5.092   3.059 -0.2901  0.7952 -0.3066
10626SOL    HW134032   2.025   5.111   3.129 -0.6649 -1.0667 -0.0874
10626SOL    HW234033   2.106   4.999   3.068  1.1147  0.9163 -1.5342
10627SOL     OW34034   5.914   8.712   9.283 -0.3190  0.3233 -0.2672
10627SOL    HW134035   5.933   8.676   9.196 -0.1512  0.2328 -0.1926
10627SOL    HW234036   5.949   8.801   9.280 -0.8185  0.5155 -0.4838
10628SOL     OW34037   5.782   3.586   8.930  0.2110  0.3471  0.1125
10628SOL    HW134038   5.849   3.519   8.916 -1.1138 -0.7598 -1.2403
10628SOL    HW234039   5.725   3.580   8.853 -1.4548  1.2657  1.2053
10629SOL     OW34040   3.858   3.320   2.389 -0.4383 -0.2534  0.4692
10629SOL    HW134041   3.879   3.290   2.301  1.4987 -0.1959  0.8663
10629SOL    HW234042   3.809   3.247   2.428 -1.4082 -0.2370 -0.6621
10630SOL     OW34043   4.911   4.030   1.261 -0.0129 -0.2930  0.0757
10630SOL    HW134044   4.991   3.981   1.244 -0.7979 -0.9285 -2.1507
10630SOL    HW234045   4.902   4.088   1.185  0.7743  3.3251  2.4526
10631SOL     OW34046   1.272   2.823   5.375 -0.6362  0.1471 -0.4596
10631SOL    HW134047   1.352   2.823   5.429 -1.0513 -0.1522  0.1664
10631SOL    HW234048   1.230   2.740   5.396 -1.2632  0.4382 -0.5655
10632SOL     OW34049   2.767   5.444   4.344  0.6931 -0.1777 -0.6676
10632SOL    HW134050   2.813   5.470   4.423  0.2525 -0.0101 -0.4604
10632SOL    HW234051   2.781   5.516   4.282  0.2510  0.1343 -0.4132
10633SOL     OW34052   8.866   8.401   7.139 -0.4919  0.4309 -0.4583
10633SOL    HW134053   8.794   8.425   7.082 -0.0748  0.7400 -0.8629
10633SOL    HW234054   8.922   8.344   7.085  1.4264  2.9920 -1.3942
10634SOL     OW34055   8.141   3.768   1.351  0.2901 -0.1000  0.7565
10634SOL    HW134056   8.230   3.787   1.378  0.5013 -1.0246  0.7589
10634SOL    HW234057   8.124   3.680   1.386 -1.1956  0.6866  2.1648
10635SOL     OW34058   8.511   8.772   4.375 -0.2827 -0.0507  0.0382
10635SOL    HW134059   8.478   8.698   4.324  0.1970 -0.0760 -0.2427
10635SOL    HW234060   8.543   8.733   4.456  3.4198 -0.7800 -1.5325
10636SOL     OW34061   5.154   1.020   2.127 -0.2485 -0.0278 -0.1347
10636SOL    HW134062   5.226   0.961   2.103  1.0941  1.8162 -0.9518
10636SOL    HW234063   5.187   1.068   2.203 -1.0090  0.1670  0.0820
10637SOL     OW34064   7.386   7.332   5.012 -0.5765 -0.0298 -0.0364
10637SOL    HW134065   7.409   7.418   4.977 -0.3471 -0.9748 -2.4492
10637SOL    HW234066   7.435   7.326   5.094  1.4831  1.1553 -1.0827
10638SOL     OW34067   4.821   2.694   8.457 -0.0158 -0.1510  0.3871
10638SOL    HW134068   4.789   2.783   8.476  0.4819  0.3144 -0.8968
10638SOL    HW234069   4.741   2.643   8.443 -0.2748  0.5656 -0.8755
10639SOL     OW34070   0.762   7.263   9.061  0.1593  0.5197  0.2979
10639SOL    HW134071   0.832   7.315   9.100  0.3449  0.2508  0.3328
10639SOL    HW234072   0.777   7.269   8.967  1.4907 -1.2015  0.3388
10640SOL     OW34073   8.679   5.890   9.168  0.0120  0.7131  0.5826
10640SOL    HW134074   8.716   5.803   9.151 -0.0289  0.9559 -0.9162
10640SOL    HW234075   8.740   5.950   9.126 -1.4036  1.2041 -0.8848
10641SOL     OW34076   2.351   6.259   5.760 -0.0273  0.2957  0.2327
10641SOL    HW134077   2.424   6.202   5.735 -0.0402 -0.2719  1.4106
10641SOL    HW234078   2.353   6.330   5.697  0.8889 -0.2700 -0.3952
10642SOL     OW34079   7.405   6.821   2.353  0.6090 -0.4970 -0.6749
10642SOL    HW134080   7.468   6.876   2.307  2.0183 -0.4421  1.2096
10642SOL    HW234081   7.404   6.855   2.443 -0.9628 -1.4794 -0.2726
10643SOL     OW34082   2.993   8.740   5.804  0.4785  0.0548 -0.0109
10643SOL    HW134083   3.065   8.803   5.796  0.8222 -0.5806 -3.2000
10643SOL    HW234084   3.026   8.674   5.866  2.6552 -0.1608 -1.3026
10644SOL     OW34085   7.141   3.193   8.259  0.4262  0.1745  0.4533
10644SOL    HW134086   7.204   3.142   8.209 -0.8334  0.1452 -1.1880
10644SOL    HW234087   7.191   3.266   8.294  2.0058 -1.4566  1.8312
10645SOL     OW34088   5.573   3.367   5.903 -0.1203 -0.5589 -0.4747
10645SOL    HW134089   5.602   3.379   5.813  0.1670  2.0707 -0.1227
10645SOL    HW234090   5.613   3.440   5.951 -0.2121 -1.8946  1.8075
10646SOL     OW34091   5.380   5.749   1.021  0.2178  0.2182 -0.3210
10646SOL    HW134092   5.462   5.796   1.006  0.1568  0.4411  0.0362
10646SOL    HW234093   5.320   5.817   1.052  0.5423 -0.3626  1.6955
10647SOL     OW34094   7.228   1.948   3.739 -0.0842 -0.3134 -0.5139
10647SOL    HW134095   7.260   1.863   3.709  0.8267 -0.2676  0.2942
10647SOL    HW234096   7.243   2.007   3.665 -0.5666 -0.8034 -1.0165
10648SOL     OW34097   6.638   1.654   1.658 -0.2165 -0.1994  0.0662
10648SOL    HW134098   6.677   1.715   1.596 -2.2212 -0.5704 -1.6685
10648SOL    HW234099   6.690   1.574   1.650 -1.0639 -0.6116 -2.0376
10649SOL     OW34100   3.249   7.336   9.108  0.1919 -0.0551 -0.5787
10649SOL    HW134101   3.244   7.247   9.143 -0.8703 -0.0238 -0.6144
10649SOL    HW234102   3.315   7.332   9.039 -0.2093 -0.9332 -0.9184
10650SOL     OW34103   3.641   6.903   4.550 -0.1716 -0.1161 -0.1832
10650SOL    HW134104   3.547   6.891   4.538 -0.8685  2.1838  2.0662
10650SOL    HW234105   3.659   6.862   4.635 -0.7609  5.1625  2.9250
10651SOL     OW34106   4.488   8.224   3.750 -0.2459 -0.1938 -0.4819
10651SOL    HW134107   4.439   8.142   3.758 -0.1535 -0.3598 -1.5022
10651SOL    HW234108   4.523   8.223   3.661  0.7867  0.3893 -0.1031
10652SOL     OW34109   3.050   8.509   9.175  0.0996  0.2111 -0.1607
10652SOL    HW134110   3.128   8.454   9.166 -1.1422 -1.6488 -0.2400
10652SOL    HW234111   3.063   8.555   9.258 -0.2444 -2.8597  1.7991
10653SOL     OW34112   9.435   8.083   5.108 -0.1236  1.0926  0.9559
10653SOL    HW134113   9.507   8.137   5.142  0.2992 -0.2224  2.2801
10653SOL    HW234114   9.405   8.033   5.184 -0.9058 -0.0630 -0.0791
10654SOL     OW34115   5.995   1.526   2.160  0.0377  0.6694 -0.0544
10654SOL    HW134116   5.934   1.533   2.234  0.3688  1.3779  0.1562
10654SOL    HW234117   5.983   1.436   2.128 -0.2709  0.4265  0.7179
10655SOL     OW34118   6.205   4.173   8.788 -0.0835 -0.2286 -0.4245
10655SOL    HW134119   6.263   4.123   8.845  1.9037  0.4618 -1.6914
10655SOL    HW234120   6.125   4.121   8.782  0.1354 -0.9426  1.8739
10656SOL     OW34121   1.007   2.830   1.934 -0.0930  0.4266  0.4074
10656SOL    HW134122   1.068   2.904   1.940  0.3388  0.1719 -0.5751
10656SOL    HW234123   0.981   2.813   2.024  2.6891 -0.5855  1.1366
10657SOL     OW34124   2.542   6.384   5.541 -0.4205 -0.2457  0.0044
10657SOL    HW134125   2.476   6.452   5.555 -0.8060 -0.9977  2.3477
10657SOL    HW234126   2.579   6.404   5.455 -0.4497  2.9846  0.5881
10658SOL     OW34127   6.988   3.137   0.668  0.1483 -0.2412 -0.5164
10658SOL    HW134128   6.900   3.114   0.695 -0.0693  1.0106 -0.0958
10658SOL    HW234129   7.009   3.216   0.718  0.6994  0.6826 -2.1248
10659SOL     OW34130   2.466   1.573   8.853  0.8862  0.5074 -0.5442
10659SOL    HW134131   2.474   1.586   8.947 -1.9606  1.8918 -0.3649
10659SOL    HW234132   2.546   1.609   8.816  1.3669  1.4047  1.2647
10660SOL     OW34133   4.309   3.669   1.515 -0.4791 -0.0574  0.1519
10660SOL    HW134134   4.218   3.648   1.533 -0.1585 -0.9961  0.7441
10660SOL    HW234135   4.309   3.764   1.500 -1.6299 -0.1300 -0.4319
10661SOL     OW34136   4.202   6.329   3.738 -0.3149 -0.2043  0.2602
10661SOL    HW134137   4.124   6.288   3.699 -0.9007  0.2777  0.9055
10661SOL    HW234138   4.223   6.401   3.678 -0.3880 -0.3077  0.1083
10662SOL     OW34139   4.283   2.952   0.700  0.3493  0.5710  0.1351
10662SOL    HW134140   4.238   3.035   0.684  1.2299  1.0104 -0.1934
10662SOL    HW234141   4.239   2.914   0.776  1.0364  2.1970  1.4115
10663SOL     OW34142   8.264   7.771   7.474  0.0987 -0.4550 -0.6786
10663SOL    HW134143   8.318   7.779   7.553  0.5624  2.1358 -1.1747
10663SOL    HW234144   8.312   7.710   7.418  2.0023  0.9488 -0.6532
10664SOL     OW34145   7.114   6.260   5.116 -0.4309  0.9809  0.2247
10664SOL    HW134146   7.181   6.287   5.179  1.0769  0.3958 -1.0673
10664SOL    HW234147   7.082   6.176   5.150  0.0420  0.8914  0.4547
10665SOL     OW34148   1.334   8.641   8.638  0.6136 -0.2171 -0.2683
10665SOL    HW134149   1.410   8.660   8.583 -1.1946  2.0810 -2.1558
10665SOL    HW234150   1.320   8.548   8.627  0.5898  0.0529 -3.4764
10666SOL     OW34151   7.210   2.034   7.082 -0.0167 -0.2171  0.4392
10666SOL    HW134152   7.219   1.986   6.999  0.9211 -0.4950  0.6920
10666SOL    HW234153   7.118   2.064   7.082  0.0039 -0.0765 -0.7688
10667SOL     OW34154   0.883   4.330   3.104  0.1304 -0.2605 -0.4910
10667SOL    HW134155   0.870   4.415   3.145  1.7178 -0.4492  0.4940
10667SOL    HW234156   0.802   4.314   3.055 -0.2436  1.7348 -0.5951
10668SOL     OW34157   6.480   5.091   0.874  0.0159 -0.3991  0.4341
10668SOL    HW134158   6.558   5.134   0.840 -0.2787  0.2341  0.5407
10668SOL    HW234159   6.511   5.044   0.952  0.2518  0.0206  0.5956
10669SOL     OW34160   5.130   6.068   8.012  0.0949  0.2183  0.2792
10669SOL    HW134161   5.087   6.105   7.935  0.0268  0.7951  0.5841
10669SOL    HW234162   5.100   6.123   8.085 -0.4273 -0.7731  0.8284
10670SOL     OW34163   0.250   5.906   8.555  0.9197 -0.0092  0.2736
10670SOL    HW134164   0.160   5.885   8.530  0.3165  1.0225  1.4427
10670SOL    HW234165   0.278   5.972   8.491 -0.6236  2.6557  2.1368
10671SOL     OW34166   7.041   6.493   8.614  0.6803  0.1269 -0.7195
10671SOL    HW134167   7.111   6.507   8.678  0.3365  0.3695 -0.3908
10671SOL    HW234168   7.086   6.462   8.536  0.8296 -4.5563  0.9028
10672SOL     OW34169   5.048   0.341   9.441 -0.0503  0.2919 -0.1131
10672SOL    HW134170   5.114   0.367   9.505 -0.5751  1.0346  0.1461
10672SOL    HW234171   4.975   0.309   9.494  0.0193 -0.3390 -0.3916
10673SOL     OW34172   1.687   6.421   8.487  0.3617  0.1519 -0.0855
10673SOL    HW134173   1.687   6.485   8.416  0.0862  0.4406  0.1746
10673SOL    HW234174   1.594   6.409   8.508  0.4714  0.5089  0.6237
10674SOL     OW34175   9.098   3.889   4.221 -0.3668  0.0628  0.6196
10674SOL    HW134176   9.183   3.898   4.177 -0.6917  1.3845  0.2269
10674SOL    HW234177   9.119   3.864   4.310  0.4161 -0.0947  0.3956
10675SOL     OW34178   8.262   3.771   6.211 -0.0238  0.2878 -0.0279
10675SOL    HW134179   8.180   3.814   6.236 -0.4309  0.4538 -1.5488
10675SOL    HW234180   8.256   3.684   6.250 -0.3592  0.7185  0.9094
10676SOL     OW34181   7.041   1.293   3.069 -0.0436 -0.1350  0.3603
10676SOL    HW134182   6.990   1.371   3.087  2.0295  1.0842  1.2577
10676SOL    HW234183   7.008   1.228   3.131 -0.6770  0.5347  0.7382
10677SOL     OW34184   3.634   0.168   9.502  0.3236  0.2642  0.3596
10677SOL    HW134185   3.669   0.111   9.570 -2.3783 -0.6915  1.0940
10677SOL    HW234186   3.629   0.254   9.543 -2.9130 -0.6173  2.2122
10678SOL     OW34187   5.017   1.411   7.333  0.5039  0.2100  0.1737
10678SOL    HW134188   4.976   1.453   7.257 -1.3487 -0.0025  0.9965
10678SOL    HW234189   5.081   1.474   7.364  1.1907  0.3698 -1.4462
10679SOL     OW34190   4.516   6.858   2.976  0.4141 -0.1913  0.2686
10679SOL    HW134191   4.444   6.885   2.920 -1.1751 -0.4972  2.0408
10679SOL    HW234192   4.518   6.763   2.968 -0.0174 -0.2610  0.9383
10680SOL     OW34193   8.504   2.402   1.901 -0.5213 -0.2844 -0.6260
10680SOL    HW134194   8.550   2.400   1.985  0.0021  1.7787 -0.8067
10680SOL    HW234195   8.560   2.353   1.841 -0.7488 -1.5100  0.1497
10681SOL     OW34196   1.396   6.393   7.866  0.2490 -0.4540  0.1710
10681SOL    HW134197   1.357   6.306   7.868 -0.8659  0.0084  2.2385
10681SOL    HW234198   1.325   6.452   7.893  2.0705  0.5017  3.4749
10682SOL     OW34199   0.629   4.823   7.435  0.5926 -0.7110 -0.1478
10682SOL    HW134200   0.591   4.753   7.381 -1.6043 -0.6082  1.1426
10682SOL    HW234201   0.563   4.839   7.503  1.3664  2.0709  0.0665
10683SOL     OW34202   5.973   6.454   1.968 -0.0405  0.4163  0.3863
10683SOL    HW134203   6.009   6.365   1.976 -0.0508  0.1443 -1.8519
10683SOL    HW234204   6.050   6.509   1.953 -0.2361  0.2475 -1.5466
10684SOL     OW34205   9.271   1.698   9.110  0.4407  0.1501 -0.0702
10684SOL    HW134206   9.319   1.710   9.192  2.4024  0.6399 -1.2280
10684SOL    HW234207   9.252   1.787   9.080  3.6713  0.2421 -2.2828
10685SOL     OW34208   7.070   4.278   8.110 -0.6280  0.0453  0.4203
10685SOL    HW134209   6.980   4.309   8.118 -0.4170  0.6079  0.6784
10685SOL    HW234210   7.077   4.207   8.174 -0.8157  0.1734  0.5855
10686SOL     OW34211   3.806   1.611   1.615  0.7016  1.2379  0.5981
10686SOL    HW134212   3.747   1.536   1.614  0.2969  1.5521  0.2729
10686SOL    HW234213   3.840   1.617   1.526  1.8944  0.5542  0.9867
10687SOL     OW34214   6.558   9.251   1.434 -0.2819 -0.1534 -0.3397
10687SOL    HW134215   6.483   9.287   1.481 -0.4459  2.2816 -2.2747
10687SOL    HW234216   6.519   9.196   1.365 -0.4185  1.6283 -1.7577
10688SOL     OW34217   7.729   1.935   1.128 -0.3609 -1.1186 -0.2853
10688SOL    HW134218   7.782   2.006   1.164  0.0472 -1.8094  0.4940
10688SOL    HW234219   7.653   1.979   1.091 -0.2150 -0.2863  0.3685
10689SOL     OW34220   2.320   1.083   3.674  0.1441 -0.5214 -0.0118
10689SOL    HW134221   2.398   1.059   3.624  0.1333 -1.6294  0.4669
10689SOL    HW234222   2.270   1.139   3.615  0.9712 -0.3574 -0.5737
10690SOL     OW34223   9.130   8.234   9.619 -0.0836 -0.0224 -0.0736
10690SOL    HW134224   9.180   8.175   9.676 -0.9736 -1.0036 -0.2815
10690SOL    HW234225   9.068   8.278   9.677 -0.3812 -0.3520 -0.1409
10691SOL     OW34226   8.452   9.192   6.330 -0.5663  0.5014  0.0720
10691SOL    HW134227   8.375   9.194   6.387 -1.0602  1.7639 -0.5921
10691SOL    HW234228   8.425   9.138   6.255 -1.1051  1.5536 -0.5207
10692SOL     OW34229   0.927   8.422   3.623  0.1234 -0.0748 -0.3142
10692SOL    HW134230   0.902   8.478   3.550 -0.1387  0.3909  0.1363
10692SOL    HW234231   0.962   8.343   3.580  0.5362  0.4341 -0.9502
10693SOL     OW34232   1.622   7.661   7.416  0.1159  0.7265 -0.5282
10693SOL    HW134233   1.604   7.742   7.464  0.1807  0.7987 -0.6252
10693SOL    HW234234   1.716   7.647   7.427  0.2401  1.0676 -1.1349
10694SOL     OW34235   1.708   3.277   1.118 -0.1914  0.0894  0.4711
10694SOL    HW134236   1.669   3.365   1.113  2.0174  1.0510 -1.9736
10694SOL    HW234237   1.636   3.218   1.096 -0.7736  1.6580 -2.3188
10695SOL     OW34238   6.102   0.210   2.655  0.0947 -0.0141  0.3201
10695SOL    HW134239   6.022   0.207   2.706  0.6914  0.7658  1.3417
10695SOL    HW234240   6.073   0.204   2.564 -1.1257  0.3834  0.6705
10696SOL     OW34241   8.416   3.113   4.013  0.1191  0.1059 -0.3565
10696SOL    HW134242   8.485   3.169   4.051  1.2234  0.3168 -2.4869
10696SOL    HW234243   8.445   3.024   4.030  1.0637  0.1915 -1.3649
10697SOL     OW34244   5.434   7.200   0.271 -0.2065  0.2992 -0.2691
10697SOL    HW134245   5.527   7.188   0.290 -0.6674 -1.6959  1.0502
10697SOL    HW234246   5.410   7.279   0.319  0.5504  0.1540  0.3742
10698SOL     OW34247   8.102   3.206   0.756 -0.3437 -0.6242 -0.1481
10698SOL    HW134248   8.143   3.176   0.837 -0.3585 -1.0411 -0.2897
10698SOL    HW234249   8.047   3.132   0.728 -0.5973 -0.3576 -0.3590
10699SOL     OW34250   5.547   4.796   4.467  0.2064 -0.2315  0.0504
10699SOL    HW134251   5.498   4.716   4.487 -1.4200  0.7297  0.0791
10699SOL    HW234252   5.528   4.855   4.540 -1.2171  1.2873 -1.4555
10700SOL     OW34253   6.167   0.361   6.414 -0.1395  0.0138  0.1908
10700SOL    HW134254   6.091   0.314   6.448 -2.1191  1.0628 -2.4369
10700SOL    HW234255   6.239   0.298   6.421 -2.1591 -2.6216 -1.0228
10701SOL     OW34256   8.576   4.077   9.457  0.3233  0.7809  0.0580
10701SOL    HW134257   8.667   4.073   9.429  0.7389  0.6237  1.3813
10701SOL    HW234258   8.575   4.035   9.543 -1.0835  0.3648 -0.1299
10702SOL     OW34259   2.400   5.547   9.347  0.1512 -0.6635  0.1283
10702SOL    HW134260   2.345   5.498   9.408 -1.2122  2.1068  1.3095
10702SOL    HW234261   2.343   5.568   9.274 -0.0290  0.9899  0.6879
10703SOL     OW34262   2.186   0.752   2.913  0.0097 -0.3599  0.3327
10703SOL    HW134263   2.163   0.838   2.876 -0.1344 -0.8209 -0.6703
10703SOL    HW234264   2.260   0.722   2.860 -0.2723 -1.0875  0.3436
10704SOL     OW34265   8.990   1.668   3.973 -0.2521  1.0039  0.0374
10704SOL    HW134266   8.964   1.717   3.895 -0.5552 -0.2244 -0.6567
10704SOL    HW234267   9.081   1.695   3.989 -0.5701  2.1438 -0.0371
10705SOL     OW34268   1.158   7.350   5.951  0.1809  0.0754  0.2975
10705SOL    HW134269   1.230   7.406   5.980  0.8253 -0.7268  0.2900
10705SOL    HW234270   1.122   7.396   5.875  1.7351 -0.2682 -0.7061
10706SOL     OW34271   6.498   6.422   8.614 -0.4044 -0.1218 -0.2325
10706SOL    HW134272   6.570   6.471   8.654  0.3318 -0.9361 -0.5214
10706SOL    HW234273   6.500   6.448   8.522 -1.2495  0.7416 -0.0288
10707SOL     OW34274   6.066   4.073   5.174  0.0837  0.2831 -0.0174
10707SOL    HW134275   6.118   4.124   5.236  0.4171 -0.2525  0.1459
10707SOL    HW234276   6.099   4.099   5.088  0.2950  0.2938  0.0662
10708SOL     OW34277   5.255   7.102   7.923  0.2585  0.3329 -0.2449
10708SOL    HW134278   5.215   7.183   7.894  0.8534  0.3805 -0.9470
10708SOL    HW234279   5.281   7.120   8.014 -0.1587  0.7172 -0.1969
10709SOL     OW34280   6.411   1.587   6.894 -0.6696 -0.2299  0.0453
10709SOL    HW134281   6.333   1.641   6.904 -0.9017 -0.8845  2.7277
10709SOL    HW234282   6.483   1.643   6.924 -0.5255 -0.5129  0.2348
10710SOL     OW34283   5.159   1.800   3.788 -0.6116 -0.1887 -0.2452
10710SOL    HW134284   5.222   1.764   3.727 -0.2042  1.8220 -1.1029
10710SOL    HW234285   5.205   1.873   3.830 -1.4503 -0.4543  1.1951
10711SOL     OW34286   6.830   3.384   2.013 -0.3901  0.1209  0.1705
10711SOL    HW134287   6.755   3.377   2.073 -0.0923 -2.6833  0.3740
10711SOL    HW234288   6.824   3.305   1.959  1.2592  0.9062 -1.2433
10712SOL     OW34289   4.095   2.970   4.641  0.3985  0.2377  0.0972
10712SOL    HW134290   4.055   2.897   4.688 -0.5986 -0.3472 -1.5436
10712SOL    HW234291   4.135   3.024   4.709 -0.5186 -0.8098  1.5314
10713SOL     OW34292   5.873   3.508   1.782 -0.2391 -0.3369 -0.4908
10713SOL    HW134293   5.939   3.577   1.776 -0.4379 -0.1547 -0.5885
10713SOL    HW234294   5.894   3.448   1.710 -1.0171  0.4529 -1.4045
10714SOL     OW34295   7.070   7.407   5.283  0.1153  0.0296 -0.5435
10714SOL    HW134296   7.077   7.316   5.309 -1.2959 -0.3715 -1.4040
10714SOL    HW234297   6.976   7.420   5.268  0.1179  1.9812  0.7816
10715SOL     OW34298   8.800   8.679   0.504 -0.6326 -0.4680  0.1977
10715SOL    HW134299   8.875   8.656   0.449 -2.0442 -2.2547 -1.1257
10715SOL    HW234300   8.821   8.643   0.590 -0.3763 -1.8158 -0.4122
10716SOL     OW34301   7.984   1.084   7.225 -0.1808  0.2736  0.1139
10716SOL    HW134302   7.993   1.167   7.177 -1.8369  0.5582  0.2341
10716SOL    HW234303   7.937   1.027   7.164  0.8513 -0.5659  0.0813
10717SOL     OW34304   2.153   8.326   4.052 -0.0117 -0.7785 -0.1598
10717SOL    HW134305   2.204   8.373   4.118 -1.6060  0.0590  0.5433
10717SOL    HW234306   2.183   8.236   4.058  1.3869 -0.3089  0.2016
10718SOL     OW34307   3.917   3.372   7.882 -0.1783 -0.0317  0.0153
10718SOL    HW134308   3.888   3.362   7.972 -1.1985 -0.2534 -0.3190
10718SOL    HW234309   3.844   3.339   7.829  0.7601 -0.7580 -0.8738
10719SOL     OW34310   3.208   5.539   9.558 -0.1423  0.7507  0.2858
10719SOL    HW134311   3.211   5.485   9.637 -0.1478 -0.0279 -0.2366
10719SOL    HW234312   3.122   5.581   9.560  0.5315  2.1787  1.6116
10720SOL     OW34313   4.808   2.921   0.056 -0.3656  0.1152 -0.1216
10720SOL    HW134314   4.764   2.955  -0.022 -0.3620 -2.0884 -1.1615
10720SOL    HW234315   4.828   2.830   0.034  0.9473 -0.1481  1.9253
10721SOL     OW34316   4.806   1.308   3.980  0.4923 -0.1501  0.7338
10721SOL    HW134317   4.783   1.395   3.947  1.9377 -0.6186 -1.8231
10721SOL    HW234318   4.735   1.252   3.948  0.4131 -0.1788  0.9569
10722SOL     OW34319   5.671   0.555   0.890  0.1139 -0.7745  0.1836
10722SOL    HW134320   5.621   0.563   0.972  1.4527  2.5052  0.7946
10722SOL    HW234321   5.669   0.642   0.852  0.8264 -1.8720 -2.5685
10723SOL     OW34322   2.843   4.702   8.261  0.1728 -0.0309 -0.2897
10723SOL    HW134323   2.883   4.617   8.279  1.2266  0.3220 -0.8486
10723SOL    HW234324   2.825   4.738   8.348  0.4309 -0.5052 -0.0330
10724SOL     OW34325   9.098   8.098   7.292 -0.3599  0.0274  0.6546
10724SOL    HW134326   9.025   8.048   7.328 -0.4588 -0.0570  0.3394
10724SOL    HW234327   9.076   8.111   7.200  0.4667 -0.8332  0.3150
10725SOL     OW34328   4.976   2.264   7.785  0.2798 -0.0749 -0.0929
10725SOL    HW134329   5.008   2.269   7.876  2.0941 -0.5960 -0.6459
10725SOL    HW234330   4.895   2.214   7.790  0.8213 -0.8836  1.1621
10726SOL     OW34331   6.430   3.155   5.102  0.3029  0.3142  0.1522
10726SOL    HW134332   6.341   3.123   5.086  0.6264 -0.1138 -0.8371
10726SOL    HW234333   6.484   3.075   5.102  0.6607  0.5359  1.0509
10727SOL     OW34334   8.545   0.314   8.180 -0.0559  0.1682  0.1655
10727SOL    HW134335   8.510   0.231   8.150  1.4559  0.0883 -1.5281
10727SOL    HW234336   8.626   0.291   8.226  0.6527  0.7256 -0.7777
10728SOL     OW34337   6.006   3.188   2.142 -0.0206  0.1283  0.0045
10728SOL    HW134338   6.057   3.248   2.087  0.5859  0.9444  1.4107
10728SOL    HW234339   5.922   3.232   2.154 -0.4436 -0.4074 -0.8656
10729SOL     OW34340   1.185   2.616   1.564 -0.4646 -0.4605 -0.6083
10729SOL    HW134341   1.226   2.652   1.642 -0.0150 -0.0119 -1.0495
10729SOL    HW234342   1.115   2.677   1.543 -1.5074 -1.3058  0.2360
10730SOL     OW34343   2.183   4.702   8.377  0.1203 -0.3856 -0.5028
10730SOL    HW134344   2.213   4.624   8.424 -0.9919 -0.8095 -0.4694
10730SOL    HW234345   2.109   4.672   8.324 -1.5289  1.0024  0.9085
10731SOL     OW34346   0.385   8.988   3.986 -0.0143  0.0067  0.4875
10731SOL    HW134347   0.472   9.017   3.959  0.0547  0.2645  0.9739
10731SOL    HW234348   0.361   9.048   4.056 -0.8453  0.3254 -0.0611
10732SOL     OW34349   0.381   0.089   6.020  0.0980 -0.4847 -0.5762
10732SOL    HW134350   0.380   0.127   6.108  0.1898 -0.2713 -0.6661
10732SOL    HW234351   0.317   0.018   6.024  0.0610 -0.4418 -0.3530
10733SOL     OW34352   1.600   2.278   6.011  0.4261 -0.0408 -0.0066
10733SOL    HW134353   1.594   2.358   5.959 -0.3303 -0.0887 -0.0016
10733SOL    HW234354   1.519   2.231   5.992  0.8720 -0.8151 -0.0170
10734SOL     OW34355   8.199   3.240   1.171  0.3507 -0.3102  0.7090
10734SOL    HW134356   8.113   3.208   1.145  0.4984 -0.6495  0.6244
10734SOL    HW234357   8.256   3.217   1.098  0.3364  0.7540  0.3524
10735SOL     OW34358   4.292   8.682   4.940 -0.1336  0.0884  0.1466
10735SOL    HW134359   4.230   8.649   4.875 -0.8664  0.9320  0.4058
10735SOL    HW234360   4.360   8.614   4.945  0.0282  0.0847 -1.6095
10736SOL     OW34361   6.792   6.768   4.228  0.3711 -0.2088 -0.3560
10736SOL    HW134362   6.750   6.684   4.244  2.5775 -1.6311 -1.5698
10736SOL    HW234363   6.834   6.758   4.142  0.1538  2.3801 -0.8474
10737SOL     OW34364   7.127   0.550   4.228 -0.0520  0.4407  0.3334
10737SOL    HW134365   7.220   0.531   4.241  0.0930  0.0915 -0.9836
10737SOL    HW234366   7.095   0.476   4.176 -0.7292  1.2042 -0.3658
10738SOL     OW34367   5.687   2.526   8.196  0.5160 -0.3242  0.1516
10738SOL    HW134368   5.771   2.484   8.175  0.8277  0.8223 -0.9799
10738SOL    HW234369   5.676   2.593   8.129  0.6290  2.2978  2.5758
10739SOL     OW34370   6.452   6.580   7.940  0.1264 -0.0664  0.5757
10739SOL    HW134371   6.470   6.535   8.023 -0.4677  0.7592  1.1611
10739SOL    HW234372   6.377   6.635   7.959  1.1650  1.5967  0.0229
10740SOL     OW34373   7.211   3.771   0.348 -0.1743 -0.9102  0.5986
10740SOL    HW134374   7.281   3.719   0.388  0.5948  1.5644  2.6756
10740SOL    HW234375   7.246   3.859   0.342 -1.3589 -0.5154 -3.0238
10741SOL     OW34376   1.524   5.359   7.637 -0.4926 -0.5846  0.5825
10741SOL    HW134377   1.561   5.439   7.674 -0.5941 -0.3973  0.2763
10741SOL    HW234378   1.430   5.377   7.631 -0.4996 -0.6830  0.4038
10742SOL     OW34379   1.357   7.519   8.113 -0.2296  0.6618 -0.4087
10742SOL    HW134380   1.325   7.608   8.099 -1.4488  0.1199 -1.2455
10742SOL    HW234381   1.381   7.488   8.026  2.4084  0.9345  0.1420
10743SOL     OW34382   5.093   0.916   0.202  0.0738  0.6987  0.7873
10743SOL    HW134383   5.104   0.876   0.288 -0.5974 -0.3373  0.4034
10743SOL    HW234384   5.008   0.961   0.207 -0.3913 -0.1056  0.4031
10744SOL     OW34385   2.765   7.412   5.782 -0.0662  0.4062 -0.5800
10744SOL    HW134386   2.688   7.420   5.838 -0.6066  0.8056 -1.3482
10744SOL    HW234387   2.772   7.497   5.738  0.9366  0.4366 -0.3684
10745SOL     OW34388   0.179   3.507   8.021 -0.3315 -0.3135  0.4030
10745SOL    HW134389   0.159   3.587   7.972 -0.1150 -0.3961  0.1787
10745SOL    HW234390   0.110   3.445   7.997 -0.1857 -0.3764  0.1519
10746SOL     OW34391   8.658   0.781   0.462  0.3045 -0.1547 -0.1505
10746SOL    HW134392   8.733   0.792   0.403 -0.8614  0.0381 -1.6740
10746SOL    HW234393   8.684   0.825   0.543  2.1046 -0.7437 -0.3683
10747SOL     OW34394   4.672   3.709   0.229  0.1958  0.0358 -0.0579
10747SOL    HW134395   4.607   3.744   0.168  1.6028  1.5478 -0.7799
10747SOL    HW234396   4.710   3.634   0.184  1.2400  1.1499 -1.1457
10748SOL     OW34397   8.419   8.111   4.382  0.0623 -0.3651 -0.0300
10748SOL    HW134398   8.407   8.187   4.439  1.4902 -0.1750  0.0557
10748SOL    HW234399   8.432   8.037   4.441  0.4144 -0.3594 -0.0929
10749SOL     OW34400   2.061   5.172   8.261 -0.3618 -0.0430  0.5068
10749SOL    HW134401   2.017   5.109   8.205 -0.5046 -0.8274  1.4812
10749SOL    HW234402   2.127   5.121   8.308 -0.5651  0.5001  1.4070
10750SOL     OW34403   9.591   4.353   7.317 -0.1682  1.0695  0.2508
10750SOL    HW134404   9.673   4.401   7.306 -0.0465  0.9643  0.6937
10750SOL    HW234405   9.550   4.356   7.231  1.2288 -0.5823 -0.5541
10751SOL     OW34406   2.004   4.058   1.450  0.2216  0.4777 -0.0039
10751SOL    HW134407   2.039   4.064   1.361  1.0340 -1.5595  0.1219
10751SOL    HW234408   2.026   4.142   1.491  0.2810  1.2434 -1.5477
10752SOL     OW34409   4.102   9.351   3.405  0.1203  0.0295  0.9580
10752SOL    HW134410   4.010   9.325   3.409 -0.1765  0.9356  0.4724
10752SOL    HW234411   4.132   9.317   3.321 -0.3461  1.4152  0.1919
10753SOL     OW34412   2.359   7.869   3.190 -0.0249  0.2795  0.3239
10753SOL    HW134413   2.363   7.853   3.096  0.4962 -0.1353  0.4135
10753SOL    HW234414   2.314   7.792   3.226  0.9205 -0.1692  0.5571
10754SOL     OW34415   3.632   3.318   7.302  0.0286  0.1286  0.1216
10754SOL    HW134416   3.701   3.295   7.363 -0.2631 -1.9815 -0.2739
10754SOL    HW234417   3.551   3.301   7.350 -0.2057 -0.2421 -0.4011
10755SOL     OW34418   3.692   6.433   7.215 -0.0150 -0.4344 -0.4382
10755SOL    HW134419   3.624   6.483   7.261 -1.4770 -0.4734 -2.4304
10755SOL    HW234420   3.752   6.498   7.181 -0.0429 -0.2699 -0.1743
10756SOL     OW34421   2.167   0.450   4.145  0.2783 -0.0058  0.5273
10756SOL    HW134422   2.075   0.441   4.121  0.8346  0.2562 -2.0521
10756SOL    HW234423   2.181   0.544   4.153  0.0206 -0.1030  2.4385
10757SOL     OW34424   1.754   2.728   6.551  0.6523  0.6474 -0.7251
10757SOL    HW134425   1.755   2.780   6.632 -0.2761  0.4158 -0.5497
10757SOL    HW234426   1.661   2.713   6.534  0.8755 -0.1070 -1.3273
10758SOL     OW34427   5.974   1.435   0.382  0.7410 -0.2215  0.8416
10758SOL    HW134428   5.927   1.382   0.318  1.1705 -1.3320  1.4244
10758SOL    HW234429   5.959   1.525   0.353  0.0422 -0.6458 -0.2008
10759SOL     OW34430   7.169   7.148   5.353  0.4021  0.5536 -0.4558
10759SOL    HW134431   7.228   7.076   5.376  1.8111  1.4974 -0.9170
10759SOL    HW234432   7.169   7.150   5.258  0.0349  0.8914 -0.4505
10760SOL     OW34433   6.880   8.745   3.966 -0.2305 -0.3618 -0.0999
10760SOL    HW134434   6.919   8.793   4.040 -3.1835 -1.4066  2.3688
10760SOL    HW234435   6.819   8.807   3.927  1.0783  0.0720 -1.5930
10761SOL     OW34436   6.138   5.139   9.140  0.3841 -0.1585 -0.2732
10761SOL    HW134437   6.079   5.107   9.072  3.0426 -3.0243 -1.4566
10761SOL    HW234438   6.223   5.146   9.097  1.8912 -0.7504  2.3783
10762SOL     OW34439   2.192   2.694   1.215  0.5741  0.1261  0.1720
10762SOL    HW134440   2.251   2.649   1.276  0.2918  0.0060  0.3550
10762SOL    HW234441   2.112   2.708   1.265 -0.5073 -1.9845 -0.8356
10763SOL     OW34442   6.901   7.488   2.478  0.1497  0.2086  0.4640
10763SOL    HW134443   6.888   7.406   2.430  1.2722  0.1798  0.1879
10763SOL    HW234444   6.860   7.555   2.424  2.1317  0.3149 -1.0479
10764SOL     OW34445   2.184   1.175   2.337  0.0741  0.0049 -0.3876
10764SOL    HW134446   2.095   1.207   2.322  0.0036 -1.5165 -4.1330
10764SOL    HW234447   2.234   1.206   2.262  2.1870 -0.9539  0.5474
10765SOL     OW34448   5.642   7.164   4.802 -0.0697 -0.8591  0.3248
10765SOL    HW134449   5.601   7.227   4.743  0.5178  1.0466  1.8501
10765SOL    HW234450   5.733   7.193   4.809 -0.1234 -1.0180  2.1418
10766SOL     OW34451   9.613   7.913   5.475 -0.4997  0.6855 -1.1201
10766SOL    HW134452   9.695   7.915   5.425  0.0304  1.1784 -0.2629
10766SOL    HW234453   9.621   7.835   5.530 -0.0679  1.3757 -0.1822
10767SOL     OW34454   9.620   2.895   3.308 -0.5928  0.0864  0.2404
10767SOL    HW134455   9.658   2.945   3.235  0.1205  1.5325  1.5569
10767SOL    HW234456   9.685   2.828   3.328  0.1472  0.9735  0.8538
10768SOL     OW34457   5.552   6.727   1.814 -0.1619  0.1613  0.3012
10768SOL    HW134458   5.608   6.650   1.804 -1.1398 -0.4387 -0.7629
10768SOL    HW234459   5.469   6.692   1.846 -0.3527  0.8893  0.6182
10769SOL     OW34460   7.772   4.424   2.150 -0.2096 -0.2756  0.7929
10769SOL    HW134461   7.798   4.400   2.239  0.0866  1.8726  1.3407
10769SOL    HW234462   7.683   4.389   2.141  0.2353 -1.6403  1.4291
10770SOL     OW34463   7.870   7.557   8.094 -0.2850  0.0151  0.1181
10770SOL    HW134464   7.856   7.620   8.165 -1.7662 -0.0767 -0.0613
10770SOL    HW234465   7.871   7.611   8.015  1.4225  0.1248  0.1686
10771SOL     OW34466   6.409   6.662   1.149 -0.0086  0.0186 -0.4277
10771SOL    HW134467   6.356   6.624   1.079  0.6309  0.6516 -1.2869
10771SOL    HW234468   6.370   6.629   1.230 -0.0825 -1.6331 -1.1043
10772SOL     OW34469   4.899   2.084   9.355  0.4032  0.0899 -0.5385
10772SOL    HW134470   4.846   2.054   9.280  0.9307  0.2815 -0.9991
10772SOL    HW234471   4.836   2.124   9.414  0.1095  0.9290 -1.3931
10773SOL     OW34472   1.799   3.842   5.246  0.0356 -0.1999 -0.7656
10773SOL    HW134473   1.800   3.914   5.182 -0.5093 -0.3245 -0.9209
10773SOL    HW234474   1.813   3.885   5.330  1.0380 -0.0618 -0.9852
10774SOL     OW34475   3.307   0.039   7.175  0.0860 -0.3047  0.0467
10774SOL    HW134476   3.288  -0.032   7.236  0.0869  1.0033  1.6631
10774SOL    HW234477   3.335  -0.004   7.094 -0.1717 -2.1129  0.8858
10775SOL     OW34478   8.675   7.996   1.545 -0.1417 -0.6447  0.4760
10775SOL    HW134479   8.751   8.032   1.499  0.3999 -3.0067 -0.6150
10775SOL    HW234480   8.646   8.067   1.602  1.1480  1.3088 -1.1534
10776SOL     OW34481   7.618   0.087   0.240 -0.5426 -0.2192  0.0368
10776SOL    HW134482   7.578   0.171   0.217 -0.9871  0.0186  1.5341
10776SOL    HW234483   7.565   0.055   0.313  1.4392 -0.3352  1.5205
10777SOL     OW34484   9.296   3.237   5.699 -0.2879 -0.2370 -0.1089
10777SOL    HW134485   9.286   3.332   5.692  1.7141  0.0700  0.7034
10777SOL    HW234486   9.252   3.215   5.781 -1.0995 -0.1083 -0.4892
10778SOL     OW34487   9.482   1.080   0.316 -0.3256  0.2390  0.0944
10778SOL    HW134488   9.566   1.095   0.359 -0.8818 -0.8110  1.6103
10778SOL    HW234489   9.427   1.153   0.344  0.4049  1.7015 -1.9867
10779SOL     OW34490   9.328   4.850   0.833  0.0102 -0.2015  0.8466
10779SOL    HW134491   9.295   4.928   0.789  1.6846 -0.5624 -1.2065
10779SOL    HW234492   9.423   4.863   0.838  0.1648 -1.4583  1.8210
10780SOL     OW34493   5.710   1.161   3.047  0.1912  0.4852 -0.4008
10780SOL    HW134494   5.792   1.173   3.095  0.2688  0.4791 -0.5303
10780SOL    HW234495   5.728   1.089   2.986 -0.1555 -0.0342  0.1062
10781SOL     OW34496   7.223   1.838   0.566 -0.5121 -0.1988 -0.5891
10781SOL    HW134497   7.261   1.907   0.621  0.5008 -0.4987 -0.9075
10781SOL    HW234498   7.261   1.757   0.598 -0.9269 -0.5169 -0.8819
10782SOL     OW34499   7.432   5.871   2.464  0.1741  0.2815  0.0693
10782SOL    HW134500   7.489   5.824   2.525  1.8398  1.8634 -0.1815
10782SOL    HW234501   7.487   5.886   2.387 -1.3732 -0.2305 -1.1915
10783SOL     OW34502   4.917   2.902   4.724 -0.2065 -0.1801 -0.7133
10783SOL    HW134503   4.996   2.868   4.765 -0.4015 -0.1682 -0.3279
10783SOL    HW234504   4.918   2.996   4.742 -0.3539 -0.1937 -0.6270
10784SOL     OW34505   9.310   8.760   0.751  0.5847  0.3614 -0.1420
10784SOL    HW134506   9.348   8.833   0.800  2.9428  0.4705 -1.9553
10784SOL    HW234507   9.377   8.692   0.753 -0.8846 -1.1570  0.0703
10785SOL     OW34508   4.427   8.151   2.053 -0.3789  0.3318 -0.3065
10785SOL    HW134509   4.436   8.173   2.145 -0.8967  0.3442 -0.2510
10785SOL    HW234510   4.365   8.078   2.052  1.1795 -1.0454 -0.4973
10786SOL     OW34511   8.445   0.857   3.114  0.0063  0.2314 -0.3352
10786SOL    HW134512   8.489   0.821   3.038  1.5737  0.5620  0.3684
10786SOL    HW234513   8.433   0.950   3.093 -1.6840 -0.1274 -1.0953
10787SOL     OW34514   5.887   6.874   0.134 -0.3616  0.2117 -0.2645
10787SOL    HW134515   5.905   6.782   0.154  1.0325  0.5582  0.1476
10787SOL    HW234516   5.968   6.920   0.156 -0.0662  1.1766 -3.0189
10788SOL     OW34517   3.926   2.791   1.324 -0.0400 -0.1528  0.7321
10788SOL    HW134518   3.868   2.779   1.249  1.3356 -1.0109 -0.2504
10788SOL    HW234519   3.997   2.846   1.291  0.2351  0.0204  1.5972
10789SOL     OW34520   1.991   6.638   2.510 -0.0520 -0.1950 -0.1080
10789SOL    HW134521   2.083   6.631   2.533 -0.0867  1.5818  0.7647
10789SOL    HW234522   1.974   6.733   2.508 -1.9093 -0.4806 -0.0132
10790SOL     OW34523   8.808   1.504   4.401 -0.8907 -0.1944  0.1667
10790SOL    HW134524   8.893   1.530   4.366 -0.1004 -2.7388  0.0044
10790SOL    HW234525   8.768   1.451   4.332 -2.0100 -0.2043  0.7877
10791SOL     OW34526   8.304   4.820   9.449  0.0223 -0.0395 -0.5093
10791SOL    HW134527   8.303   4.912   9.477  1.0388 -0.2974  0.4761
10791SOL    HW234528   8.213   4.800   9.427 -0.2956  1.0571 -0.2286
10792SOL     OW34529   7.213   0.740   5.457 -0.1496 -0.3041  0.3478
10792SOL    HW134530   7.285   0.795   5.488  0.5033 -1.4996  1.0196
10792SOL    HW234531   7.141   0.758   5.518  0.0816 -0.2579  0.6100
10793SOL     OW34532   5.246   8.269   2.152  0.2265  0.0392  0.1879
10793SOL    HW134533   5.164   8.292   2.196  1.0916  1.4280  1.1814
10793SOL    HW234534   5.314   8.295   2.214  1.4459  0.1634 -1.1565
10794SOL     OW34535   1.286   7.547   6.125 -0.0091 -0.3160 -0.4654
10794SOL    HW134536   1.366   7.580   6.165 -0.6181  0.9067 -0.1829
10794SOL    HW234537   1.269   7.608   6.053 -0.3250 -0.9598 -0.9400
10795SOL     OW34538   2.977   9.379   3.024  0.1278  0.0169  0.3569
10795SOL    HW134539   2.947   9.336   2.944  1.4103  1.4578 -0.9752
10795SOL    HW234540   3.052   9.327   3.052  0.1940 -0.0140  0.1280
10796SOL     OW34541   8.992   9.081   5.039  0.1969  0.2903  0.6377
10796SOL    HW134542   9.019   8.989   5.037  1.0478  0.5511 -0.4524
10796SOL    HW234543   9.070   9.130   5.014 -0.1455  1.3554  1.5472
10797SOL     OW34544   0.608   6.520   4.585  0.2244 -0.2329  0.4730
10797SOL    HW134545   0.681   6.581   4.590  1.3156 -1.4630  0.1561
10797SOL    HW234546   0.537   6.563   4.633  1.0571  1.1081  0.5500
10798SOL     OW34547   8.874   1.417   3.674 -0.1430 -0.0102 -0.1176
10798SOL    HW134548   8.941   1.477   3.641  0.5897  0.0143  1.3525
10798SOL    HW234549   8.809   1.474   3.715 -1.2734 -0.0101 -1.8009
10799SOL     OW34550   1.858   4.083   7.745  0.2494 -0.0498 -0.0533
10799SOL    HW134551   1.824   4.082   7.834  0.8488  0.0894  0.1823
10799SOL    HW234552   1.839   3.995   7.711  0.6661 -0.3422  0.4603
10800SOL     OW34553   5.260   7.566   9.054 -0.0317 -0.6107  0.0582
10800SOL    HW134554   5.199   7.639   9.045  1.2909  0.5428 -0.0919
10800SOL    HW234555   5.235   7.523   9.135 -0.0316  0.8562  0.8828
10801SOL     OW34556   8.968   2.605   2.710 -0.0914  0.1130 -0.6583
10801SOL    HW134557   8.972   2.551   2.631 -0.9937 -3.2314  1.3530
10801SOL    HW234558   8.980   2.542   2.781 -0.7098  2.7398  1.9172
10802SOL     OW34559   8.015   1.838   0.575  0.7618 -0.3053  0.0537
10802SOL    HW134560   7.989   1.800   0.491  1.3106 -1.0450  0.2081
10802SOL    HW234561   8.098   1.795   0.596  0.3289 -0.5760  1.2741
10803SOL     OW34562   2.710   6.554   1.595  0.0064 -0.0247  0.2796
10803SOL    HW134563   2.791   6.581   1.639  0.6558 -2.9597  1.1404
10803SOL    HW234564   2.658   6.514   1.665 -2.0933  1.4486 -0.3377
10804SOL     OW34565   3.886   0.464   3.931 -0.4537  0.0612  0.0435
10804SOL    HW134566   3.920   0.550   3.904 -0.6260  0.1620  0.1432
10804SOL    HW234567   3.814   0.485   3.991 -1.2901 -0.1362 -0.8698
10805SOL     OW34568   7.109   7.693   5.706 -0.0559 -0.2689 -0.3812
10805SOL    HW134569   7.150   7.697   5.620 -0.4966 -0.5279 -0.6021
10805SOL    HW234570   7.123   7.780   5.743 -0.6344  0.1244 -1.0644
10806SOL     OW34571   8.681   9.175   3.868  0.0430  0.4312  0.2255
10806SOL    HW134572   8.619   9.248   3.871  0.0154  0.4469 -0.5187
10806SOL    HW234573   8.693   9.149   3.959 -1.3905  0.1463  0.3506
10807SOL     OW34574   6.644   8.630   6.229 -0.0748  0.3293 -0.1599
10807SOL    HW134575   6.576   8.638   6.162  0.2859  1.4776 -0.4194
10807SOL    HW234576   6.725   8.654   6.183  0.2652  0.5457  0.5398
10808SOL     OW34577   2.865   4.085   0.941  0.1920 -0.0337  0.5309
10808SOL    HW134578   2.800   4.107   0.874  0.4095  0.0109  0.3328
10808SOL    HW234579   2.828   4.011   0.987 -0.2757  0.3690  0.8102
10809SOL     OW34580   1.596   6.881   2.534  0.1490  0.3855  0.3625
10809SOL    HW134581   1.645   6.840   2.605  1.5705  0.6421 -0.4423
10809SOL    HW234582   1.612   6.825   2.458 -0.4579  0.7185 -0.0222
10810SOL     OW34583   9.017   2.146   3.692  0.2685  0.3094  0.2040
10810SOL    HW134584   9.058   2.215   3.744 -0.3359  1.4560 -0.7978
10810SOL    HW234585   8.926   2.173   3.683 -0.3301 -1.3070  0.9013
10811SOL     OW34586   5.490   1.174   7.091  0.1896  0.2039  0.2062
10811SOL    HW134587   5.542   1.178   7.011 -0.9171  1.1574 -0.5000
10811SOL    HW234588   5.464   1.082   7.097  2.5665 -0.4868  1.0293
10812SOL     OW34589   2.331   2.413   3.634  0.3794 -0.0517  0.3109
10812SOL    HW134590   2.241   2.400   3.604 -0.7016  1.3003  2.6950
10812SOL    HW234591   2.367   2.325   3.639 -1.0148 -0.6770 -0.1161
10813SOL     OW34592   6.677   7.636   3.430  0.1058  0.1156 -0.2587
10813SOL    HW134593   6.703   7.594   3.512  1.2539  0.8129 -0.2324
10813SOL    HW234594   6.744   7.609   3.367 -0.1325  0.4916 -0.6811
10814SOL     OW34595   2.647   1.735   0.905 -0.0827  0.1624 -0.1929
10814SOL    HW134596   2.601   1.794   0.965  0.4328 -0.6814  1.0826
10814SOL    HW234597   2.590   1.658   0.899  1.1986 -1.0051  1.6073
10815SOL     OW34598   7.343   4.107   2.495 -0.5976 -0.0944 -0.5531
10815SOL    HW134599   7.281   4.058   2.440 -2.2720  0.6178  0.6382
10815SOL    HW234600   7.327   4.075   2.584  1.6343 -0.7681 -0.3425
10816SOL     OW34601   8.315   1.544   0.277 -0.3435  0.0522  0.0283
10816SOL    HW134602   8.282   1.457   0.299  0.9032 -0.2855  0.7179
10816SOL    HW234603   8.366   1.570   0.354  1.7062  0.1273 -1.2539
10817SOL     OW34604   2.342   8.147   2.150  0.4990  0.0000  0.9696
10817SOL    HW134605   2.261   8.179   2.113  0.5175  1.5386  2.1406
10817SOL    HW234606   2.315   8.087   2.220  0.4638 -2.5794 -1.0990
10818SOL     OW34607   1.540   3.770   7.456  0.0959 -0.6791 -0.4702
10818SOL    HW134608   1.501   3.745   7.372  0.3659 -1.1852 -0.4489
10818SOL    HW234609   1.470   3.756   7.520 -0.2518  0.1264 -0.6598
10819SOL     OW34610   7.590   2.878   6.140 -0.4641 -0.3191  0.0815
10819SOL    HW134611   7.528   2.946   6.113 -0.9408 -0.0414  1.7437
10819SOL    HW234612   7.617   2.905   6.228 -0.2373 -1.9863  0.5511
10820SOL     OW34613   2.322   0.253   4.722 -0.2052 -0.3022  0.6661
10820SOL    HW134614   2.374   0.245   4.642  0.2560 -0.7835  1.0070
10820SOL    HW234615   2.265   0.176   4.721 -0.3178 -0.2197  0.7205
10821SOL     OW34616   6.949   6.612   9.128 -0.5714 -0.7729  0.7942
10821SOL    HW134617   6.909   6.579   9.048  0.0453 -2.5134  1.1546
10821SOL    HW234618   6.888   6.678   9.160 -0.9472 -0.2122 -0.9522
10822SOL     OW34619   5.088   2.477   0.370 -0.2340 -0.5745 -0.1830
10822SOL    HW134620   5.074   2.567   0.342 -0.5295 -0.4418  0.3686
10822SOL    HW234621   5.004   2.434   0.357  0.9606 -2.0701 -4.8618
10823SOL     OW34622   9.231   5.899   5.215 -0.1817  0.4331  0.1256
10823SOL    HW134623   9.216   5.892   5.121 -0.9481  0.6621  0.2246
10823SOL    HW234624   9.290   5.826   5.235  0.7100  0.9120 -0.6728
10824SOL     OW34625   0.250   5.672   0.491 -0.0920 -0.4297  0.0604
10824SOL    HW134626   0.187   5.640   0.426 -1.0427  0.0097  0.7261
10824SOL    HW234627   0.280   5.593   0.536  0.4648 -0.7210 -0.8095
10825SOL     OW34628   0.858   3.153   5.707  0.9936 -0.3051  0.4889
10825SOL    HW134629   0.879   3.069   5.748 -0.4587 -0.8652  0.1360
10825SOL    HW234630   0.890   3.219   5.769  3.6840 -1.0460  0.0255
10826SOL     OW34631   5.024   9.287   0.770  0.5303  0.1235  0.6924
10826SOL    HW134632   5.057   9.199   0.790  1.5375  0.9154  2.7686
10826SOL    HW234633   4.944   9.271   0.721  0.0002 -2.0042  2.0812
10827SOL     OW34634   8.313   2.887   6.713 -0.4095 -0.1759 -0.1763
10827SOL    HW134635   8.291   2.841   6.794  0.9077 -0.5378 -0.0039
10827SOL    HW234636   8.292   2.825   6.643 -0.6579 -0.2188 -0.0641
10828SOL     OW34637   4.318   7.452   9.580  0.9225 -0.8665  0.1804
10828SOL    HW134638   4.385   7.432   9.515 -0.4722 -2.3265 -0.8877
10828SOL    HW234639   4.284   7.366   9.606 -0.4148 -0.1769  0.8062
10829SOL     OW34640   1.641   4.760   2.596  0.0001 -0.3592  0.4350
10829SOL    HW134641   1.707   4.816   2.556 -0.1243 -0.3303  0.2661
10829SOL    HW234642   1.652   4.675   2.553  1.0465 -0.8416  1.6120
10830SOL     OW34643   1.254   7.222   7.506  1.3190  0.1813  0.1578
10830SOL    HW134644   1.311   7.173   7.565  2.0406 -0.1084 -0.7568
10830SOL    HW234645   1.185   7.160   7.482 -0.2371  0.9421  2.3539
10831SOL     OW34646   0.589   9.373   0.619 -0.0242  0.3214 -0.2463
10831SOL    HW134647   0.648   9.299   0.607 -1.3771 -1.4711  2.9701
10831SOL    HW234648   0.642   9.439   0.664  0.4109  0.1176 -0.4554
10832SOL     OW34649   6.821   1.513   4.133  0.1098  0.3115 -0.6809
10832SOL    HW134650   6.791   1.591   4.181 -1.2288  1.9180 -3.8715
10832SOL    HW234651   6.811   1.442   4.196  3.2191  2.7937  3.1102
10833SOL     OW34652   2.724   1.673   0.424 -0.1169 -0.9155  0.6290
10833SOL    HW134653   2.810   1.714   0.435 -0.5391  0.0076  0.5768
10833SOL    HW234654   2.664   1.730   0.472 -1.1964  0.2268 -1.8877
10834SOL     OW34655   4.152   6.890   1.433  0.0100 -0.3355  0.1367
10834SOL    HW134656   4.100   6.953   1.383  1.2794  0.5504 -0.1188
10834SOL    HW234657   4.201   6.842   1.366 -1.1103 -1.7879  0.3106
10835SOL     OW34658   2.943   3.692   0.655 -0.4392  0.4524  0.7822
10835SOL    HW134659   2.969   3.669   0.566 -2.8102  1.0901 -0.1605
10835SOL    HW234660   3.006   3.759   0.682  1.5841 -1.2159  0.4532
10836SOL     OW34661   8.463   1.389   9.072  0.3417  0.2913 -0.1679
10836SOL    HW134662   8.387   1.448   9.069 -1.6857 -2.0817  0.8874
10836SOL    HW234663   8.507   1.403   8.988 -1.5111  1.4503 -1.0133
10837SOL     OW34664   0.776   9.186   0.510  0.3529 -0.2248  0.2779
10837SOL    HW134665   0.819   9.271   0.498  1.2472 -0.6992  0.0557
10837SOL    HW234666   0.840   9.133   0.556  0.1934 -1.0890 -0.4583
10838SOL     OW34667   2.604   6.724   4.035 -0.2862 -0.3658 -0.1545
10838SOL    HW134668   2.571   6.738   3.946 -0.3086 -0.2892 -0.1344
10838SOL    HW234669   2.552   6.651   4.069  0.6734 -1.3160 -0.6944
10839SOL     OW34670   4.229   8.719   7.146  0.2076  0.1281 -0.2289
10839SOL    HW134671   4.240   8.626   7.131  0.0898  0.4809 -2.9813
10839SOL    HW234672   4.256   8.732   7.237  0.9497 -2.4327 -0.0132
10840SOL     OW34673   9.423   3.022   0.438  0.7221  0.0365 -0.5280
10840SOL    HW134674   9.486   2.952   0.418  1.6979  0.5127  0.7449
10840SOL    HW234675   9.419   3.024   0.534 -0.8956  0.3436 -0.5791
10841SOL     OW34676   0.207   5.865   3.789  0.0936 -0.0084  0.5157
10841SOL    HW134677   0.272   5.802   3.758  0.8403  0.6826  0.6244
10841SOL    HW234678   0.172   5.904   3.709  1.5526  1.3123  0.4599
10842SOL     OW34679   2.986   2.147   5.385 -0.3451 -0.0059  0.2827
10842SOL    HW134680   2.907   2.141   5.331 -0.7338 -1.5032  0.9687
10842SOL    HW234681   2.989   2.239   5.413 -2.2891 -0.0814  0.8783
10843SOL     OW34682   5.855   4.778   1.475  0.5945  0.0642 -0.1437
10843SOL    HW134683   5.847   4.716   1.548  0.9869 -1.9520 -1.7019
10843SOL    HW234684   5.794   4.848   1.495  0.1809 -0.7868  1.7632
10844SOL     OW34685   2.476   1.991   6.763  0.2030 -0.0290  0.0883
10844SOL    HW134686   2.444   1.910   6.802 -1.3265  0.8160  0.7158
10844SOL    HW234687   2.467   2.056   6.833  1.5473  0.6507 -0.3515
10845SOL     OW34688   7.083   6.101   9.060  0.3552  0.1134 -0.0435
10845SOL    HW134689   7.123   6.117   8.974  1.3835 -1.2866  0.1385
10845SOL    HW234690   7.158   6.091   9.119 -0.3358  0.2841  0.8731
10846SOL     OW34691   4.994   3.838   7.715  0.4024  1.0256  0.4023
10846SOL    HW134692   5.050   3.792   7.777  0.6734 -2.3318 -1.9993
10846SOL    HW234693   4.906   3.831   7.753  0.7904  0.7630  1.2772
10847SOL     OW34694   2.495   7.724   4.123 -0.4200 -0.2421  0.8068
10847SOL    HW134695   2.580   7.767   4.117 -0.2542 -0.5777  0.7426
10847SOL    HW234696   2.503   7.666   4.199 -0.2927 -0.9275  0.2771
10848SOL     OW34697   4.992   7.152   7.592  0.2253  0.9444 -0.5668
10848SOL    HW134698   4.990   7.240   7.630  2.3094  0.4674  0.8533
10848SOL    HW234699   5.018   7.095   7.665 -0.8058 -0.8436 -1.5076
10849SOL     OW34700   1.819   8.135   9.307  0.2128 -0.1395  0.5333
10849SOL    HW134701   1.778   8.053   9.332 -0.6913 -0.4292 -1.6685
10849SOL    HW234702   1.828   8.184   9.389 -1.5580 -1.3975  1.5340
10850SOL     OW34703   8.236   8.386   9.166  0.1074  0.1134  0.2530
10850SOL    HW134704   8.184   8.429   9.234 -3.3754 -0.5462 -1.6975
10850SOL    HW234705   8.251   8.297   9.199  1.5197  0.8029  1.5358
10851SOL     OW34706   7.161   0.231   1.683 -0.4119  0.0108  0.0552
10851SOL    HW134707   7.157   0.313   1.634 -0.9875  0.5803  1.0157
10851SOL    HW234708   7.104   0.171   1.635 -1.4491  0.7432  0.3439
10852SOL     OW34709   2.535   5.635   6.013  0.1851 -0.0686  0.0938
10852SOL    HW134710   2.462   5.584   5.979  2.0150 -1.1948 -2.4368
10852SOL    HW234711   2.500   5.724   6.020 -2.1522 -0.9807  1.6382
10853SOL     OW34712   6.732   3.794   9.122  0.7015  0.0099 -0.4954
10853SOL    HW134713   6.775   3.733   9.182  0.4041  0.7429  0.4853
10853SOL    HW234714   6.796   3.865   9.110  1.2108 -0.6555 -1.9495
10854SOL     OW34715   4.412   5.510   7.846  0.0499  0.6821 -0.8627
10854SOL    HW134716   4.336   5.523   7.789 -0.2421 -1.8213 -1.1724
10854SOL    HW234717   4.431   5.416   7.839  1.5418  0.7569  1.2621
10855SOL     OW34718   6.393   2.311   2.261  1.0240  0.4750  0.0007
10855SOL    HW134719   6.437   2.296   2.178  3.2801  0.0884  1.1659
10855SOL    HW234720   6.396   2.406   2.274  0.9336  0.5081 -0.2240
10856SOL     OW34721   7.751   7.004   5.912 -0.2663 -0.0204  0.3387
10856SOL    HW134722   7.715   7.069   5.972  0.4197 -0.5670  1.3564
10856SOL    HW234723   7.846   7.010   5.923 -0.1146 -0.0344 -0.7988
10857SOL     OW34724   5.381   6.125   2.116 -0.0916  0.8204 -0.2316
10857SOL    HW134725   5.352   6.079   2.037 -2.6869  0.9781  0.5251
10857SOL    HW234726   5.304   6.175   2.143  0.8769  1.1247  2.1515
10858SOL     OW34727   0.811   9.568   2.425  0.1423 -0.3618  0.0100
10858SOL    HW134728   0.822   9.663   2.430  0.0538 -0.3785  0.7139
10858SOL    HW234729   0.860   9.534   2.501 -0.0768 -0.8517 -0.0630
10859SOL     OW34730   8.191   3.002   6.937  0.6757 -0.6469 -0.0091
10859SOL    HW134731   8.219   2.931   6.879 -3.1513 -0.6412 -2.2103
10859SOL    HW234732   8.241   2.988   7.018  0.8320 -5.3435 -0.6194
10860SOL     OW34733   1.674   0.143   1.778  0.1444  0.6110  0.3574
10860SOL    HW134734   1.703   0.056   1.750  1.5864  1.1885 -0.0044
10860SOL    HW234735   1.710   0.153   1.866 -2.5172 -0.3061  1.6649
10861SOL     OW34736   8.172   2.324   1.130  0.1466 -0.0490  0.6659
10861SOL    HW134737   8.239   2.264   1.098  1.4037  0.5999  1.9737
10861SOL    HW234738   8.130   2.277   1.202  0.5052  0.2725  1.0891
10862SOL     OW34739   8.843   9.369   4.525  0.3585 -0.3644  0.3305
10862SOL    HW134740   8.887   9.285   4.520  0.2243 -0.4964  1.1225
10862SOL    HW234741   8.751   9.349   4.506  0.0284 -0.6952  2.0809
10863SOL     OW34742   8.776   1.747   2.296 -0.8081 -0.2826 -0.3759
10863SOL    HW134743   8.716   1.725   2.224  0.4723  0.1437 -1.6317
10863SOL    HW234744   8.848   1.685   2.286 -0.2160  0.3335  0.0284
10864SOL     OW34745   3.551   5.399   3.893  0.0130 -0.8638  0.0079
10864SOL    HW134746   3.482   5.438   3.946 -1.0614 -1.4024 -0.9415
10864SOL    HW234747   3.596   5.474   3.854 -2.7981 -0.3964 -2.7768
10865SOL     OW34748   1.132   9.423   1.354 -0.3812  0.2169 -0.1367
10865SOL    HW134749   1.160   9.428   1.446 -1.0739 -2.6658  0.3134
10865SOL    HW234750   1.213   9.410   1.305 -0.2508 -1.2279  0.4234
10866SOL     OW34751   3.188   3.738   1.826  0.3506 -1.0009  0.2904
10866SOL    HW134752   3.169   3.645   1.835  0.6051 -1.2157 -1.1897
10866SOL    HW234753   3.125   3.770   1.762  0.8167 -0.3311  0.1508
10867SOL     OW34754   2.554   4.256   4.104 -0.1475 -0.4708  0.1532
10867SOL    HW134755   2.472   4.306   4.109 -0.2424 -0.3285 -2.1576
10867SOL    HW234756   2.618   4.318   4.070  0.4373 -1.1311  0.0455
10868SOL     OW34757   7.778   0.789   8.799  0.3055  0.2509  0.5123
10868SOL    HW134758   7.794   0.841   8.878  2.1856  2.4159 -1.1659
10868SOL    HW234759   7.825   0.707   8.814  0.9686  0.7880  1.5011
10869SOL     OW34760   2.682   0.488   4.715  0.5622  0.0235 -0.0793
10869SOL    HW134761   2.751   0.423   4.733  1.1250  0.6673  0.1332
10869SOL    HW234762   2.615   0.470   4.781  0.5073 -0.6282 -0.3045
10870SOL     OW34763   8.741   1.233   8.072 -0.6179  0.1718 -0.0724
10870SOL    HW134764   8.786   1.309   8.109  2.4638 -2.5003  2.2395
10870SOL    HW234765   8.674   1.211   8.136  0.7649 -0.9467  1.0597
10871SOL     OW34766   7.194   1.528   6.751 -0.0660  0.0608  0.1946
10871SOL    HW134767   7.251   1.483   6.812  0.5353  0.2553 -0.2136
10871SOL    HW234768   7.222   1.498   6.665  0.0437  0.8504 -0.0596
10872SOL     OW34769   5.926   2.938   0.977  0.4060 -0.0380 -0.6469
10872SOL    HW134770   5.851   2.880   0.969  1.2909 -1.3873  0.3877
10872SOL    HW234771   5.971   2.909   1.056 -0.0910  3.2657  1.0209
10873SOL     OW34772   6.047   9.422   0.331  0.7458  0.6324  0.6958
10873SOL    HW134773   6.136   9.455   0.324  0.3955  1.1583 -2.6257
10873SOL    HW234774   5.992   9.494   0.301 -0.6996 -0.1674  1.3152
10874SOL     OW34775   0.705   1.480   2.127 -0.6828  0.1116  0.6433
10874SOL    HW134776   0.792   1.493   2.165  0.1110  1.7918 -1.5492
10874SOL    HW234777   0.645   1.518   2.191  0.4709  1.5433  0.9411
10875SOL     OW34778   6.040   6.126   6.080  0.0663 -0.1137  0.1004
10875SOL    HW134779   6.069   6.095   6.166 -3.4689 -1.8549  0.8436
10875SOL    HW234780   5.955   6.165   6.096 -0.8593 -0.7762 -2.6297
10876SOL     OW34781   6.918   0.894   2.734  0.0369  0.3473  0.1826
10876SOL    HW134782   6.900   0.866   2.644 -0.0309  0.5764  0.1249
10876SOL    HW234783   6.937   0.987   2.727  1.4846  0.0769  0.2010
10877SOL     OW34784   5.012   0.237   1.366 -0.2585  0.0285  0.3010
10877SOL    HW134785   4.971   0.285   1.438 -0.5724  0.4972 -0.1762
10877SOL    HW234786   4.939   0.221   1.305 -0.3586 -1.8863  0.8792
10878SOL     OW34787   5.557   2.436   6.363  0.2378 -0.1472  0.3694
10878SOL    HW134788   5.634   2.414   6.414  1.9058 -0.9124 -2.3034
10878SOL    HW234789   5.548   2.531   6.372  0.7741 -0.1895  1.5696
10879SOL     OW34790   7.015   5.427   4.867 -0.2127  0.0664  0.5696
10879SOL    HW134791   7.091   5.466   4.824 -0.8079  0.7105  0.0718
10879SOL    HW234792   6.978   5.367   4.802  0.7042 -1.3785  1.3350
10880SOL     OW34793   6.517   6.349   4.463 -0.5604  0.0385  0.0844
10880SOL    HW134794   6.540   6.379   4.375 -0.0599  1.8104  0.7935
10880SOL    HW234795   6.455   6.414   4.495 -1.5666 -1.1669  0.6822
10881SOL     OW34796   3.307   3.702   6.320  0.1678 -0.3642 -0.2561
10881SOL    HW134797   3.241   3.772   6.325 -1.4953 -1.7153 -1.7481
10881SOL    HW234798   3.364   3.718   6.395 -0.9388  1.7798  0.2430
10882SOL     OW34799   5.774   3.254   4.402  0.3007 -0.3678  0.5143
10882SOL    HW134800   5.836   3.318   4.438  0.4798 -1.2374  1.8283
10882SOL    HW234801   5.784   3.262   4.307  1.1383  0.7472  0.6668
10883SOL     OW34802   1.409   2.089   1.350 -0.3941 -0.2643  0.0852
10883SOL    HW134803   1.426   2.118   1.260 -0.4695 -0.7892 -0.1010
10883SOL    HW234804   1.368   2.165   1.392  1.9284  0.8968  0.4311
10884SOL     OW34805   4.468   1.636   8.907 -0.1041  0.5217  0.0572
10884SOL    HW134806   4.414   1.581   8.851  0.7233  1.5490 -1.8320
10884SOL    HW234807   4.555   1.633   8.867  0.8016  0.4644  1.9117
10885SOL     OW34808   9.216   2.773   5.202 -0.0457 -0.1418 -0.3441
10885SOL    HW134809   9.141   2.830   5.217  0.5615  0.5453  0.1726
10885SOL    HW234810   9.184   2.705   5.142 -0.6906  0.9252 -1.2419
10886SOL     OW34811   0.482   0.435   4.732 -0.2845 -0.0306 -0.0885
10886SOL    HW134812   0.524   0.391   4.806 -0.7614 -1.6976 -0.7610
10886SOL    HW234813   0.528   0.401   4.655  0.5303  2.0368 -0.5832
10887SOL     OW34814   8.062   1.062   6.931 -0.3106  0.0055  0.2098
10887SOL    HW134815   8.134   1.000   6.938 -1.3748 -1.3497 -0.4483
10887SOL    HW234816   8.100   1.146   6.959  1.9490 -0.3217 -1.5651
10888SOL     OW34817   8.699   0.017   8.193  0.1982  1.1714 -0.4533
10888SOL    HW134818   8.652   0.008   8.276 -0.1591 -0.6527 -0.8079
10888SOL    HW234819   8.650  -0.038   8.132  1.2582  1.3804 -1.5287
10889SOL     OW34820   3.823   3.915   1.971  0.3784 -0.6981  0.4807
10889SOL    HW134821   3.890   3.879   2.029  1.4692  0.7343  0.1836
10889SOL    HW234822   3.828   4.010   1.986 -0.4479 -0.4357 -0.7666
10890SOL     OW34823   1.431   7.591   0.629 -0.8563  0.0205  0.6403
10890SOL    HW134824   1.519   7.609   0.596 -0.9306 -2.0009 -0.8485
10890SOL    HW234825   1.446   7.542   0.710 -0.5737 -0.8754  0.0614
10891SOL     OW34826   1.018   0.947   5.448  0.2014  0.7518  0.1124
10891SOL    HW134827   0.953   1.016   5.464  0.1704  0.5083  1.0889
10891SOL    HW234828   1.003   0.883   5.517  1.3667  0.6044  0.2461
10892SOL     OW34829   5.122   3.113   8.853  0.7254  0.2470 -0.1667
10892SOL    HW134830   5.180   3.038   8.844 -0.9995 -1.3509  1.2000
10892SOL    HW234831   5.092   3.131   8.764  1.5424 -0.3683 -0.5769
10893SOL     OW34832   4.281   6.943   8.422  0.0912 -0.5776  0.5098
10893SOL    HW134833   4.339   6.921   8.350  1.0298 -1.1818  1.4296
10893SOL    HW234834   4.310   7.030   8.451 -0.6293 -0.1000 -0.1595
10894SOL     OW34835   6.334   2.233   4.923  0.3689 -0.2941  0.3827
10894SOL    HW134836   6.285   2.192   4.994  0.8481 -0.4029  0.6556
10894SOL    HW234837   6.268   2.274   4.869 -0.0162 -0.3670  0.7939
10895SOL     OW34838   9.195   5.250   9.331  0.0320  0.1197  0.0642
10895SOL    HW134839   9.233   5.188   9.394 -2.0005 -1.4211 -0.1364
10895SOL    HW234840   9.254   5.246   9.256  0.6089 -0.6474  0.5424
10896SOL     OW34841   5.774   7.891   4.437 -0.5662  0.3409 -0.2278
10896SOL    HW134842   5.850   7.834   4.432 -0.2615  0.6311  0.8386
10896SOL    HW234843   5.714   7.857   4.371 -1.2541 -2.4699  1.7016
10897SOL     OW34844   7.403   3.367   4.467 -0.1270  0.1561 -0.3036
10897SOL    HW134845   7.345   3.338   4.397 -1.0128  0.2506  0.3606
10897SOL    HW234846   7.372   3.456   4.487  1.6059  1.0407 -1.3396
10898SOL     OW34847   0.661   8.760   1.433 -0.4496  0.0239  0.4352
10898SOL    HW134848   0.751   8.732   1.446 -0.6928 -0.9578  0.1545
10898SOL    HW234849   0.667   8.847   1.395  0.3900 -0.2384 -0.0451
10899SOL     OW34850   1.839   6.916   5.435  0.0153  0.6584 -0.0774
10899SOL    HW134851   1.851   6.833   5.482 -1.7756 -0.2571 -1.1199
10899SOL    HW234852   1.849   6.983   5.502  2.1709 -0.3302  0.6716
10900SOL     OW34853   2.857   9.195   1.238 -0.3686  0.3121 -0.0544
10900SOL    HW134854   2.843   9.280   1.195 -0.2010  0.1251 -0.4780
10900SOL    HW234855   2.894   9.139   1.170 -1.2097 -0.3337  0.0053
10901SOL     OW34856   4.618   0.543   3.019  0.2561 -0.2866 -0.1400
10901SOL    HW134857   4.698   0.593   3.001  0.7232 -0.0061  2.3768
10901SOL    HW234858   4.590   0.573   3.105 -2.0145 -1.1369 -0.5142
10902SOL     OW34859   9.624   7.274   5.529  0.1602 -0.2165 -0.1981
10902SOL    HW134860   9.651   7.209   5.465 -1.8868 -1.0377 -0.3142
10902SOL    HW234861   9.585   7.344   5.477 -2.2534 -1.2478  0.0728
10903SOL     OW34862   9.375   0.495   0.872  0.6117 -0.0707 -0.1200
10903SOL    HW134863   9.331   0.578   0.854  0.8681 -0.3362 -2.2031
10903SOL    HW234864   9.305   0.437   0.901  0.0983  0.3489 -0.5032
10904SOL     OW34865   7.192   8.906   0.040  0.1221  0.0930  0.1611
10904SOL    HW134866   7.287   8.912   0.053  0.2980 -0.8698 -0.5805
10904SOL    HW234867   7.155   8.921   0.127  1.0895 -2.1610  1.0514
10905SOL     OW34868   2.478   8.369   2.457 -0.2117 -0.6470  0.2720
10905SOL    HW134869   2.481   8.273   2.460 -1.5256 -0.6817  1.6460
10905SOL    HW234870   2.399   8.392   2.505 -0.8759  1.0877 -1.5324
10906SOL     OW34871   8.641   2.830   0.065  0.2149 -0.1415 -0.1961
10906SOL    HW134872   8.640   2.735   0.055  2.2669 -0.0894 -1.4186
10906SOL    HW234873   8.675   2.862  -0.018 -1.1418  1.7511 -0.0916
10907SOL     OW34874   4.278   0.955   9.424 -0.2737 -0.4024 -0.4988
10907SOL    HW134875   4.185   0.929   9.424 -0.2449 -0.6026  1.0550
10907SOL    HW234876   4.319   0.895   9.487  0.9859 -0.5110 -1.3936
10908SOL     OW34877   7.909   1.040   5.162 -0.0386  0.0399  0.0521
10908SOL    HW134878   7.823   1.023   5.124  0.0418  0.1163 -0.1690
10908SOL    HW234879   7.892   1.059   5.254 -0.3303  0.7215 -0.1373
10909SOL     OW34880   8.808   8.530   6.238 -0.0665  0.3449  0.1813
10909SOL    HW134881   8.834   8.622   6.233 -1.7740  0.8543  0.0286
10909SOL    HW234882   8.821   8.496   6.150 -1.3714  1.0403 -0.3146
10910SOL     OW34883   6.470   3.489   8.128 -0.6607 -0.0859 -0.1040
10910SOL    HW134884   6.555   3.485   8.085 -0.9777  0.3837 -0.7942
10910SOL    HW234885   6.419   3.549   8.074 -2.3073 -2.3509 -1.2282
10911SOL     OW34886   5.031   4.325   9.514 -0.0766 -0.5565 -0.4974
10911SOL    HW134887   4.950   4.324   9.463  0.9122 -0.1130 -2.1604
10911SOL    HW234888   5.069   4.239   9.500 -0.7909 -1.2075  1.2641
10912SOL     OW34889   1.585   5.437   2.035 -0.0298  0.0874  0.0489
10912SOL    HW134890   1.635   5.460   1.957  0.2957 -0.6884  0.0188
10912SOL    HW234891   1.497   5.417   2.002 -0.2850  1.1294  0.0624
10913SOL     OW34892   0.569   8.036   1.445 -0.3071 -0.0317  0.6207
10913SOL    HW134893   0.614   7.992   1.518  1.3306  0.5998  0.0430
10913SOL    HW234894   0.543   7.966   1.386 -0.0206 -0.4129  0.9425
10914SOL     OW34895   0.382   8.733   5.580  0.6670  0.6041 -0.0687
10914SOL    HW134896   0.310   8.681   5.617  2.9767 -1.2786  2.1555
10914SOL    HW234897   0.376   8.817   5.625  0.1214  0.2890  0.4768
10915SOL     OW34898   6.315   1.827   0.932  0.1086 -0.1790  0.0505
10915SOL    HW134899   6.357   1.746   0.962 -0.4581 -1.1819 -1.6813
10915SOL    HW234900   6.227   1.822   0.968  0.4173  0.2656  0.9007
10916SOL     OW34901   1.040   1.423   5.811  0.2170  0.1609 -0.2976
10916SOL    HW134902   0.963   1.377   5.844  1.2239 -0.7307  0.9078
10916SOL    HW234903   1.094   1.438   5.888  0.6831  1.9389 -0.9150
10917SOL     OW34904   6.508   2.627   2.267 -0.2034 -0.5165  0.1439
10917SOL    HW134905   6.594   2.665   2.254 -0.4985  0.1122 -0.0219
10917SOL    HW234906   6.461   2.691   2.321  0.1372 -1.8485  2.1121
10918SOL     OW34907   7.754   0.366   0.202 -0.1260  0.3099 -0.0812
10918SOL    HW134908   7.816   0.361   0.129  2.3467  0.8524  1.8178
10918SOL    HW234909   7.787   0.303   0.266 -2.5997 -0.6378  0.3791
10919SOL     OW34910   9.327   2.512   7.816 -0.1544  0.2011  0.5913
10919SOL    HW134911   9.261   2.524   7.748  1.1256  0.6455 -0.6360
10919SOL    HW234912   9.287   2.452   7.878 -2.6669  2.3599  1.2463
10920SOL     OW34913   8.594   0.710   2.878  0.1987 -0.5089  0.2073
10920SOL    HW134914   8.638   0.761   2.811 -0.1311 -0.9473 -0.3525
10920SOL    HW234915   8.556   0.636   2.831 -0.9989 -0.2309  0.6996
10921SOL     OW34916   2.921   7.973   5.775  0.3084 -0.2521  0.0558
10921SOL    HW134917   2.954   8.063   5.770 -1.3450  0.4237  0.5102
10921SOL    HW234918   2.999   7.918   5.764  1.3031  1.2201 -0.6546
10922SOL     OW34919   5.711   6.321   8.733 -0.4698  0.1343  0.4071
10922SOL    HW134920   5.653   6.373   8.676  0.5329 -0.5240 -1.3082
10922SOL    HW234921   5.741   6.382   8.800 -1.8031  0.9186  0.3121
10923SOL     OW34922   8.719   0.796   1.716 -0.1373  0.0088  0.5364
10923SOL    HW134923   8.723   0.862   1.648 -0.4145  0.3843  0.8776
10923SOL    HW234924   8.809   0.786   1.747  0.2301 -1.1569 -0.8038
10924SOL     OW34925   6.379   8.735   6.388  0.4712  0.0440 -0.7597
10924SOL    HW134926   6.430   8.662   6.353 -0.0431  0.0118 -1.4629
10924SOL    HW234927   6.374   8.797   6.315 -0.1236  0.2320 -0.5641
10925SOL     OW34928   0.229   2.884   6.212 -0.2006 -0.7109  0.6869
10925SOL    HW134929   0.312   2.906   6.254  0.1552 -0.4355 -0.1339
10925SOL    HW234930   0.173   2.853   6.283  0.8810 -1.7239  1.1315
10926SOL     OW34931   8.339   4.590   8.367  0.0977  0.0303 -0.3763
10926SOL    HW134932   8.419   4.634   8.394 -0.3100 -0.3047  1.5686
10926SOL    HW234933   8.282   4.594   8.444 -1.3440 -0.6821 -1.3426
10927SOL     OW34934   7.387   8.621   3.023 -0.3115  0.1765  0.0399
10927SOL    HW134935   7.362   8.706   2.986  0.5742  0.0418 -0.9390
10927SOL    HW234936   7.306   8.570   3.022 -0.8177  0.9487  0.4927
10928SOL     OW34937   3.105   7.308   7.281 -0.6809  0.2409 -0.4757
10928SOL    HW134938   3.153   7.296   7.200  0.0207 -0.8141  0.0745
10928SOL    HW234939   3.031   7.246   7.274 -1.2527  0.9414 -0.7709
10929SOL     OW34940   6.207   3.394   2.025  0.3504 -0.0398 -0.9406
10929SOL    HW134941   6.206   3.414   2.119 -0.7688 -0.2909 -0.8895
10929SOL    HW234942   6.296   3.417   1.997  1.3172 -1.6801  0.5542
10930SOL     OW34943   0.978   7.158   9.274 -0.3866  0.3797  0.0303
10930SOL    HW134944   0.994   7.072   9.312 -0.2383  0.8241  1.0107
10930SOL    HW234945   1.046   7.168   9.208 -0.6863 -0.4342 -0.4181
10931SOL     OW34946   9.558   8.201   2.159  0.0515  0.3627 -0.0276
10931SOL    HW134947   9.622   8.130   2.158 -0.2743  0.0707 -1.2475
10931SOL    HW234948   9.571   8.247   2.077 -1.4511  0.1549 -0.4200
10932SOL     OW34949   2.224   2.437   0.170  0.3861  0.2809  0.4764
10932SOL    HW134950   2.302   2.396   0.133  1.3866  1.0833  1.6135
10932SOL    HW234951   2.236   2.531   0.155 -2.5949  0.2833 -3.5200
10933SOL     OW34952   4.435   3.109   0.529  0.0228 -0.0543  0.0939
10933SOL    HW134953   4.400   3.040   0.585  2.8559 -0.9346  0.9318
10933SOL    HW234954   4.461   3.065   0.449  2.8268 -0.3042  1.0321
10934SOL     OW34955   1.301   4.970   8.665  0.0587  0.0327  0.1450
10934SOL    HW134956   1.365   4.976   8.594 -0.5698 -0.8975 -0.5356
10934SOL    HW234957   1.220   4.943   8.621 -0.7497  1.0004  1.0168
10935SOL     OW34958   5.875   4.441   7.277 -0.0128 -0.2324  0.3753
10935SOL    HW134959   5.797   4.423   7.330 -0.6183 -1.7214 -0.9138
10935SOL    HW234960   5.852   4.517   7.225 -0.4647 -0.4175  0.2976
10936SOL     OW34961   1.754   8.594   4.495 -0.4502 -0.1441  0.2238
10936SOL    HW134962   1.789   8.548   4.418  0.2891  0.4066  0.2110
10936SOL    HW234963   1.832   8.611   4.549 -0.7817  0.6244  0.4671
10937SOL     OW34964   8.932   0.125   2.735  0.3903 -0.0295 -0.0311
10937SOL    HW134965   8.845   0.101   2.703  0.4310 -1.8177  1.0541
10937SOL    HW234966   8.992   0.076   2.677  0.5997 -0.1536  0.2908
10938SOL     OW34967   1.589   3.296   8.761 -0.0667 -0.1088 -0.4155
10938SOL    HW134968   1.600   3.216   8.812 -1.0098  0.4526  0.7170
10938SOL    HW234969   1.527   3.273   8.692  2.2438 -1.2466 -2.2382
10939SOL     OW34970   0.588   4.914   4.642 -0.4622  0.5392 -0.0975
10939SOL    HW134971   0.530   4.986   4.618  0.8303  1.4037 -0.8156
10939SOL    HW234972   0.618   4.935   4.730 -0.5543  0.5601 -0.0714
10940SOL     OW34973   7.754   1.494   1.727  0.2502 -0.1863  0.1562
10940SOL    HW134974   7.689   1.547   1.682  0.1968  1.1566  1.7326
10940SOL    HW234975   7.736   1.507   1.820  2.3638 -0.2867  0.6338
10941SOL     OW34976   9.039   1.546   6.295  0.5463 -0.1825  0.6210
10941SOL    HW134977   9.035   1.590   6.380 -0.5137  0.3378  0.3230
10941SOL    HW234978   8.949   1.521   6.277  0.7656 -0.3259 -0.3300
10942SOL     OW34979   1.947   2.753   1.368 -0.2215  0.1890  0.8276
10942SOL    HW134980   1.893   2.820   1.410  0.9996  1.7717 -0.0334
10942SOL    HW234981   1.894   2.723   1.294 -0.7371  0.2312  1.1674
10943SOL     OW34982   4.166   7.495   8.489  0.0736 -0.3868  0.0706
10943SOL    HW134983   4.169   7.402   8.513  0.6431 -0.0468  1.4163
10943SOL    HW234984   4.159   7.541   8.573  0.4829  0.8186 -0.5373
10944SOL     OW34985   5.915   4.087   3.285 -0.7015  0.5494 -0.1428
10944SOL    HW134986   5.940   4.080   3.378 -0.5404  1.7842 -0.0731
10944SOL    HW234987   5.844   4.024   3.275  0.9859 -1.5478  0.1694
10945SOL     OW34988   3.020   0.189   2.000  0.0041 -0.0386 -0.1161
10945SOL    HW134989   3.058   0.203   2.086 -0.5300  0.1786  0.0924
10945SOL    HW234990   3.058   0.107   1.969  1.6383  0.8116 -0.4838
10946SOL     OW34991   0.416   6.934   1.246 -0.2952  0.2172 -0.1443
10946SOL    HW134992   0.363   6.942   1.325 -1.3484 -1.9782 -0.5451
10946SOL    HW234993   0.495   6.984   1.265 -1.0797  0.8168  1.7744
10947SOL     OW34994   2.011   3.789   0.001  0.0804  0.5360 -0.3365
10947SOL    HW134995   2.070   3.784  -0.074  0.9876 -1.9140  0.4549
10947SOL    HW234996   1.982   3.699   0.016  1.0862  0.5969  3.0659
10948SOL     OW34997   7.688   4.100   2.907 -0.3440 -0.8109  0.1561
10948SOL    HW134998   7.669   4.077   2.998 -0.3442 -0.7115  0.1815
10948SOL    HW234999   7.766   4.048   2.885 -0.3661 -0.8624  0.2009
10949SOL     OW35000   2.702   0.703   9.491 -0.1578 -0.1924  0.4989
10949SOL    HW135001   2.720   0.609   9.498 -1.2147 -0.4184  0.3136
10949SOL    HW235002   2.684   0.731   9.581 -0.3854 -0.2834  0.4815
10950SOL     OW35003   2.849   4.344   1.030  0.4083 -0.2514  0.1505
10950SOL    HW135004   2.935   4.375   1.058  1.3937 -0.9202 -1.9555
10950SOL    HW235005   2.865   4.254   1.001 -1.2467 -0.7841  0.8075
10951SOL     OW35006   5.540   6.757   0.778  0.4704 -0.2088 -0.2079
10951SOL    HW135007   5.565   6.849   0.778  0.3316 -0.1692 -0.0745
10951SOL    HW235008   5.450   6.756   0.744 -0.3020 -0.0634  1.6900
10952SOL     OW35009   6.915   7.082   6.630 -0.0505 -0.5362 -0.0883
10952SOL    HW135010   7.000   7.088   6.673  0.7586  0.4431 -1.7034
10952SOL    HW235011   6.867   7.017   6.681  1.5847 -0.9658  1.0050
10953SOL     OW35012   5.807   2.793   5.356  0.3723  0.6274  0.1436
10953SOL    HW135013   5.852   2.805   5.272  1.4917 -0.0020  0.6361
10953SOL    HW235014   5.715   2.813   5.336  0.0960 -2.0950 -1.9227
10954SOL     OW35015   0.358   3.927   6.412  0.1366  0.0627  0.3844
10954SOL    HW135016   0.266   3.947   6.397 -0.2233 -1.7658 -0.0647
10954SOL    HW235017   0.381   3.976   6.491 -1.1976  0.5821  0.4663
10955SOL     OW35018   9.178   5.202   0.165  0.2022 -0.3841  0.5547
10955SOL    HW135019   9.190   5.161   0.079  0.1514  0.2454  0.2446
10955SOL    HW235020   9.083   5.202   0.178  0.2011 -0.3297  0.5413
10956SOL     OW35021   6.061   2.805   4.586  0.1582  0.7915  0.5195
10956SOL    HW135022   6.040   2.796   4.493  1.1700 -0.1855  0.3581
10956SOL    HW235023   6.019   2.886   4.613 -0.2878  0.9985 -0.7550
10957SOL     OW35024   6.984   0.701   5.658  0.1259  0.5226 -0.6510
10957SOL    HW135025   6.906   0.720   5.606 -0.0580  1.2612 -0.1215
10957SOL    HW235026   6.959   0.723   5.748  0.7748  0.2516 -0.3955
10958SOL     OW35027   2.224   2.491   1.036 -0.4341  0.1124 -0.7411
10958SOL    HW135028   2.233   2.571   1.088 -1.3033 -1.9033  2.8199
10958SOL    HW235029   2.313   2.458   1.026 -0.3629 -0.3447  1.0999
10959SOL     OW35030   4.119   6.376   6.596  0.4345 -0.2691 -0.3683
10959SOL    HW135031   4.114   6.471   6.607  0.0063 -0.3226 -0.0650
10959SOL    HW235032   4.157   6.364   6.509  1.2112  0.1735 -0.0940
10960SOL     OW35033   6.945   0.823   3.174  0.1540  0.3610  0.0078
10960SOL    HW135034   6.874   0.813   3.111 -1.8381  0.2614  2.1373
10960SOL    HW235035   6.922   0.764   3.246  2.2322  0.5812  0.9256
10961SOL     OW35036   5.201   5.227   2.709  0.0779  0.2404 -0.2178
10961SOL    HW135037   5.266   5.291   2.738  1.8934 -1.7657  0.4904
10961SOL    HW235038   5.161   5.266   2.632  2.7095  1.3089 -1.1732
10962SOL     OW35039   1.717   8.174   1.003 -0.2691 -0.4538 -0.3320
10962SOL    HW135040   1.732   8.177   1.098 -1.4037  0.2860 -0.1551
10962SOL    HW235041   1.675   8.089   0.988 -0.6084 -0.3286 -0.0897
10963SOL     OW35042   5.621   7.517   6.282  0.0874  0.4779 -0.1723
10963SOL    HW135043   5.647   7.489   6.370 -1.5802  0.9199  0.4889
10963SOL    HW235044   5.680   7.469   6.224  0.2743 -0.9332  1.1187
10964SOL     OW35045   2.909   7.351   3.141  0.5337 -0.5458  0.1970
10964SOL    HW135046   2.818   7.378   3.141  0.6622 -0.1111  0.3068
10964SOL    HW235047   2.959   7.432   3.135  0.9138 -0.7747  0.2123
10965SOL     OW35048   0.025   3.656   8.514 -0.5033 -0.1267  0.7819
10965SOL    HW135049   0.043   3.641   8.421 -0.0390  0.6230  0.7437
10965SOL    HW235050   0.107   3.691   8.549 -0.8573  0.1587  1.3409
10966SOL     OW35051   4.874   6.289   7.989  0.1392  0.9117 -0.3124
10966SOL    HW135052   4.819   6.284   7.911  0.8358  0.2931 -0.7706
10966SOL    HW235053   4.815   6.267   8.061  0.0690 -1.0202 -0.9234
10967SOL     OW35054   7.016   9.542   8.505 -0.0081 -0.4183  0.4244
10967SOL    HW135055   7.059   9.530   8.590 -0.0539 -2.2548  0.2292
10967SOL    HW235056   6.970   9.625   8.513  1.9391  0.6403  1.3391
10968SOL     OW35057   9.019   5.612   3.772  0.4176 -0.2195 -0.3303
10968SOL    HW135058   9.010   5.641   3.681 -0.1747 -1.0735 -0.5555
10968SOL    HW235059   9.111   5.629   3.793  0.3358  0.8563 -0.7729
10969SOL     OW35060   3.346   6.509   9.147 -0.1298  0.0840  0.1617
10969SOL    HW135061   3.409   6.447   9.112  0.3824 -0.5363  2.0868
10969SOL    HW235062   3.305   6.548   9.069  0.3145 -1.8396 -1.0937
10970SOL     OW35063   4.764   8.774   8.310 -0.2649  0.3604  0.2641
10970SOL    HW135064   4.812   8.715   8.252  1.2642 -0.0544  1.8737
10970SOL    HW235065   4.728   8.840   8.252 -0.2998 -1.0097 -1.3532
10971SOL     OW35066   7.269   2.760   2.110  0.3601 -0.0541 -0.0127
10971SOL    HW135067   7.275   2.688   2.047  0.1816  0.3151 -0.4573
10971SOL    HW235068   7.343   2.746   2.170  0.4204 -0.5146 -0.1906
10972SOL     OW35069   4.942   4.049   1.849 -0.3482 -0.3752 -0.0145
10972SOL    HW135070   5.033   4.045   1.821 -0.4206 -1.4183 -0.1547
10972SOL    HW235071   4.945   4.059   1.944 -0.0849 -0.6859  0.0097
10973SOL     OW35072   1.590   7.847   7.637  0.0114 -0.0531 -0.2298
10973SOL    HW135073   1.676   7.821   7.670 -0.4341  1.1037  2.0784
10973SOL    HW235074   1.528   7.790   7.683 -0.5209 -0.2020 -1.1148
10974SOL     OW35075   0.686   6.542   2.750  0.0345  0.3308 -0.3776
10974SOL    HW135076   0.653   6.452   2.748  1.5195 -0.2686  0.4509
10974SOL    HW235077   0.614   6.593   2.787 -0.2342 -0.8174  0.7707
10975SOL     OW35078   3.506   5.848   8.501  0.1335 -0.1417  0.0532
10975SOL    HW135079   3.515   5.825   8.594  0.7041 -0.0842  0.0162
10975SOL    HW235080   3.449   5.781   8.465  1.7528 -1.5281 -0.0520
10976SOL     OW35081   3.935   8.357   1.868 -0.3772  0.0685 -0.3274
10976SOL    HW135082   3.940   8.373   1.773 -0.4593  1.6455 -0.0921
10976SOL    HW235083   4.016   8.309   1.888 -0.1346  0.1221 -1.1318
10977SOL     OW35084   3.152   0.718   5.300 -0.2239 -0.6655 -0.1422
10977SOL    HW135085   3.154   0.781   5.373  0.7224 -1.1961  0.3189
10977SOL    HW235086   3.093   0.757   5.236 -0.8028 -0.0124  0.7630
10978SOL     OW35087   7.565   9.574   6.147 -0.1285  0.9972  0.0585
10978SOL    HW135088   7.647   9.619   6.166  1.1326 -1.4652  0.8979
10978SOL    HW235089   7.521   9.566   6.232 -0.6353  1.1893 -0.1801
10979SOL     OW35090   0.444   6.947   4.461 -0.5061  0.3511  0.2224
10979SOL    HW135091   0.372   6.942   4.399 -0.3261 -2.3940  0.1047
10979SOL    HW235092   0.514   6.895   4.421 -0.2866 -1.2845  2.4948
10980SOL     OW35093   8.575   2.801   6.043  0.6548 -0.1598 -0.3330
10980SOL    HW135094   8.565   2.778   5.951  0.8073 -1.4025 -0.0663
10980SOL    HW235095   8.490   2.839   6.068  0.8408  0.7994 -1.1403
10981SOL     OW35096   7.154   5.039   5.374  0.3015 -0.4705  0.0067
10981SOL    HW135097   7.078   5.062   5.320  0.4540  0.1200  0.0313
10981SOL    HW235098   7.122   4.971   5.433 -1.2745  2.1221  2.4035
10982SOL     OW35099   8.738   5.869   0.708  0.2888 -0.0943  0.2960
10982SOL    HW135100   8.781   5.796   0.752 -1.2234 -0.9387  0.4454
10982SOL    HW235101   8.688   5.912   0.778  2.3682  2.0987  0.5578
10983SOL     OW35102   8.692   6.711   6.323 -0.0639 -0.4072  0.0175
10983SOL    HW135103   8.744   6.637   6.355  0.2651  0.0552  0.5622
10983SOL    HW235104   8.663   6.756   6.402  0.5333  0.5992 -0.3205
10984SOL     OW35105   1.545   1.139   7.768 -0.2787 -0.1627 -0.1930
10984SOL    HW135106   1.481   1.126   7.838 -0.0721 -1.1991 -0.1789
10984SOL    HW235107   1.630   1.129   7.812 -0.0113  2.3829  0.0402
10985SOL     OW35108   1.115   8.824   1.835  0.1278 -0.4816 -0.1127
10985SOL    HW135109   1.092   8.900   1.889  0.7955 -1.5759  1.8216
10985SOL    HW235110   1.210   8.826   1.829  0.1430 -1.0478 -0.1691
10986SOL     OW35111   6.876   2.354   0.367  0.4048 -0.5163  0.1079
10986SOL    HW135112   6.962   2.311   0.367  0.4770 -0.4472 -1.5757
10986SOL    HW235113   6.890   2.435   0.416  1.2783 -0.5453 -0.0728
10987SOL     OW35114   5.147   6.848   5.918 -0.0077 -0.1145 -0.4397
10987SOL    HW135115   5.163   6.855   6.012 -0.6060 -2.4682 -0.0959
10987SOL    HW235116   5.160   6.937   5.885 -0.0161  0.8322  1.8865
10988SOL     OW35117   2.333   4.754   8.628  0.1346  0.2837  0.0308
10988SOL    HW135118   2.389   4.747   8.551 -0.3492  0.8347 -0.3749
10988SOL    HW235119   2.392   4.782   8.698  0.8946 -1.6577  0.2442
10989SOL     OW35120   2.057   3.765   2.594  0.4435 -0.1244 -0.1018
10989SOL    HW135121   2.080   3.704   2.664  0.4747  0.0775  0.0671
10989SOL    HW235122   2.141   3.789   2.555  0.3785 -0.6878 -0.5937
10990SOL     OW35123   7.420   6.741   1.986  0.3472 -0.0380  0.0494
10990SOL    HW135124   7.414   6.830   1.952  1.7848 -0.0718 -0.3328
10990SOL    HW235125   7.332   6.704   1.971  0.5739  0.3065 -2.6980
10991SOL     OW35126   1.215   9.124   8.023 -0.4359 -0.4348  0.7109
10991SOL    HW135127   1.297   9.085   7.992 -1.1966 -0.6659 -1.1060
10991SOL    HW235128   1.213   9.103   8.117  1.5750 -0.4086  0.8076
10992SOL     OW35129   0.708   8.588   6.192 -0.4621  0.1383 -0.5471
10992SOL    HW135130   0.717   8.659   6.130  1.1723 -0.0787 -0.6202
10992SOL    HW235131   0.798   8.565   6.215 -0.9921 -0.7127  0.8335
10993SOL     OW35132   1.300   5.900   4.675 -0.0630  0.2654  0.3255
10993SOL    HW135133   1.299   5.823   4.618 -2.3735 -1.2864  2.2727
10993SOL    HW235134   1.254   5.967   4.625 -0.2707 -0.4155 -0.4268
10994SOL     OW35135   2.308   0.133   6.409  0.6104  0.1922  0.0694
10994SOL    HW135136   2.337   0.046   6.440  2.2567  0.1669 -1.3556
10994SOL    HW235137   2.319   0.190   6.485 -0.8935 -0.9057  1.1505
10995SOL     OW35138   5.648   4.661   7.723  0.1278  0.0636  0.3265
10995SOL    HW135139   5.736   4.648   7.689  1.3786  1.9420  2.5410
10995SOL    HW235140   5.600   4.583   7.697  2.4980 -1.1139 -0.7819
10996SOL     OW35141   4.408   8.275   8.364 -0.3817  0.2549 -0.1134
10996SOL    HW135142   4.348   8.282   8.438  1.2957  2.4933  1.1739
10996SOL    HW235143   4.414   8.181   8.345 -3.0488 -0.1296  0.6676
10997SOL     OW35144   9.388   5.706   2.109  0.7902 -0.2969 -0.3007
10997SOL    HW135145   9.471   5.685   2.150  0.0820 -1.4973  0.6044
10997SOL    HW235146   9.343   5.621   2.101 -0.0554  0.2288 -1.4100
10998SOL     OW35147   2.981   1.522   0.069  0.5147 -0.1924 -0.1994
10998SOL    HW135148   2.957   1.429   0.072  0.8471 -0.2673  0.1140
10998SOL    HW235149   2.902   1.566   0.037 -0.6720 -0.2288  2.4092
10999SOL     OW35150   4.232   8.295   2.317 -0.2450  0.5234 -0.3348
10999SOL    HW135151   4.312   8.331   2.279 -0.3299  0.5494 -0.4884
10999SOL    HW235152   4.232   8.203   2.289  0.9975 -0.1705  1.6877
11000SOL     OW35153   7.798   8.942   6.807  0.0505  0.2923  0.7269
11000SOL    HW135154   7.720   8.913   6.853 -0.5854  1.3421  0.3256
11000SOL    HW235155   7.766   8.997   6.735  1.1054  0.0256  0.0209
11001SOL     OW35156   1.348   9.179   0.470  0.2930  0.6798  0.1725
11001SOL    HW135157   1.344   9.084   0.471  1.2629  0.6201  1.3224
11001SOL    HW235158   1.437   9.199   0.499  0.5448  1.9301 -1.3088
11002SOL     OW35159   4.560   4.735   3.547  0.1547  0.0436 -0.3227
11002SOL    HW135160   4.470   4.731   3.516 -0.5955 -0.1143  1.7051
11002SOL    HW235161   4.583   4.644   3.567 -0.7809  0.3982  3.0265
11003SOL     OW35162   2.383   8.227   0.543 -0.6178  0.3386  0.2380
11003SOL    HW135163   2.294   8.263   0.540 -1.7966 -2.1741  1.7626
11003SOL    HW235164   2.440   8.303   0.527 -2.9764  2.1601 -0.1221
11004SOL     OW35165   1.994   4.436   1.689 -0.1310  0.2657 -0.3612
11004SOL    HW135166   1.945   4.445   1.771  1.4074  0.2229  0.6088
11004SOL    HW235167   1.941   4.376   1.636 -0.7737 -0.3529  0.9250
11005SOL     OW35168   4.303   8.529   0.802  0.2249  0.5349 -0.4148
11005SOL    HW135169   4.234   8.484   0.850  1.9080 -1.2015  0.5117
11005SOL    HW235170   4.316   8.476   0.724  0.1465  1.1675 -0.8629
11006SOL     OW35171   0.088   5.612   8.391  0.9313  0.2094 -0.9798
11006SOL    HW135172   0.010   5.557   8.384  0.8386 -0.2476  2.2315
11006SOL    HW235173   0.160   5.551   8.404  0.9809  0.7109  1.5630
11007SOL     OW35174   0.640   5.463   8.905  0.1551  0.3118  0.0883
11007SOL    HW135175   0.629   5.476   8.811  0.5284  0.6636  0.0900
11007SOL    HW235176   0.606   5.544   8.945 -1.7155 -0.5607  0.3770
11008SOL     OW35177   6.418   8.013   2.531  0.8802 -0.0467 -0.2705
11008SOL    HW135178   6.416   8.029   2.436 -1.8177  2.4185  0.0583
11008SOL    HW235179   6.484   8.074   2.564  0.0561  0.9235 -0.3650
11009SOL     OW35180   2.061   9.068   3.474 -0.1386  0.1583  0.0324
11009SOL    HW135181   2.071   9.140   3.413  2.1570  1.0440  1.3231
11009SOL    HW235182   2.117   8.999   3.439  1.3493  0.7417  1.1386
11010SOL     OW35183   0.936   3.728   1.355 -0.2612 -0.3391  0.4152
11010SOL    HW135184   0.855   3.715   1.404  0.6296 -1.0867  1.7449
11010SOL    HW235185   1.003   3.684   1.407  0.9691  0.0627 -0.7737
11011SOL     OW35186   4.839   7.660   5.954 -0.3521 -0.0817 -0.0079
11011SOL    HW135187   4.768   7.721   5.935 -0.0426 -0.2731 -1.9055
11011SOL    HW235188   4.918   7.701   5.918  0.4477 -0.1116  1.6023
11012SOL     OW35189   7.803   7.099   7.846  0.1074  0.1129 -0.1922
11012SOL    HW135190   7.720   7.138   7.817 -1.2435 -0.4406  2.5649
11012SOL    HW235191   7.851   7.171   7.885 -0.1162  0.0370  0.2403
11013SOL     OW35192   4.726   5.532   4.969 -0.5037  0.6773 -0.1076
11013SOL    HW135193   4.720   5.587   5.047 -1.4651  0.9128 -0.3306
11013SOL    HW235194   4.738   5.595   4.897 -0.3597  0.5122 -0.2271
11014SOL     OW35195   1.399   0.083   7.521 -0.1637 -0.6466 -0.0117
11014SOL    HW135196   1.314   0.042   7.502  0.1040 -0.3787 -1.9798
11014SOL    HW235197   1.404   0.083   7.616 -3.0722  0.6959  0.2619
11015SOL     OW35198   6.644   9.412   2.354  0.2863 -0.0483  0.4422
11015SOL    HW135199   6.582   9.405   2.426  0.2840  1.3463  0.6101
11015SOL    HW235200   6.715   9.466   2.389  0.9864 -0.5719 -0.1450
11016SOL     OW35201   6.347   6.191   8.620  0.0273 -0.3036  0.3770
11016SOL    HW135202   6.414   6.137   8.579 -0.2548 -0.3704  0.0037
11016SOL    HW235203   6.393   6.272   8.645 -0.1197  0.3668 -1.4233
11017SOL     OW35204   3.497   3.755   7.990 -0.1004 -0.1884  0.0183
11017SOL    HW135205   3.557   3.776   8.062 -2.2025  0.5628  1.6516
11017SOL    HW235206   3.494   3.659   7.989  0.5955 -0.2197  0.3539
11018SOL     OW35207   2.091   0.427   8.000 -0.2734 -0.3043  0.6714
11018SOL    HW135208   2.056   0.434   8.089  0.1001  0.1317  0.7909
11018SOL    HW235209   2.014   0.416   7.945 -0.4840 -0.9293  1.0801
11019SOL     OW35210   0.575   3.756   3.976 -0.0094 -0.2430 -0.5408
11019SOL    HW135211   0.587   3.788   3.886 -0.2658 -0.8981 -0.8220
11019SOL    HW235212   0.502   3.807   4.010 -0.8719 -0.9975 -1.2253
11020SOL     OW35213   4.057   0.760   5.883 -0.1052  0.2044 -0.4368
11020SOL    HW135214   4.063   0.850   5.852 -1.6500  0.6968  0.5348
11020SOL    HW235215   4.081   0.765   5.976  0.9449 -0.5970 -0.6544
11021SOL     OW35216   1.685   3.272   6.073 -0.3369  0.0981 -0.2727
11021SOL    HW135217   1.729   3.208   6.018  0.6986  0.4145  0.1681
11021SOL    HW235218   1.607   3.226   6.106  0.9834 -1.3486  0.9722
11022SOL     OW35219   1.797   2.724   1.836  0.2002  0.3549 -0.8992
11022SOL    HW135220   1.772   2.705   1.746  0.3584 -0.7585 -0.7253
11022SOL    HW235221   1.747   2.802   1.859 -0.3303  0.2740 -1.7395
11023SOL     OW35222   2.173   0.815   1.643  0.0114  0.5470  0.9675
11023SOL    HW135223   2.148   0.790   1.554  0.0386 -0.5354  1.2439
11023SOL    HW235224   2.203   0.905   1.636 -0.5790  0.6789 -0.0083
11024SOL     OW35225   7.439   5.020   5.687  0.0250 -0.1534 -0.0224
11024SOL    HW135226   7.429   5.045   5.779  0.7233  0.0800 -0.0074
11024SOL    HW235227   7.355   5.045   5.647 -0.5771 -0.9427  0.6915
11025SOL     OW35228   1.976   5.781   1.061  0.0252 -0.2600 -0.0403
11025SOL    HW135229   1.886   5.809   1.075 -0.0270  0.9962 -2.3905
11025SOL    HW235230   1.969   5.693   1.024 -0.1864 -0.4200  0.3753
11026SOL     OW35231   4.069   6.264   5.062  0.0451  0.0443  0.1044
11026SOL    HW135232   4.077   6.196   5.129 -1.2650 -1.9210 -1.5884
11026SOL    HW235233   4.147   6.255   5.009  0.1225  0.2238  0.1880
11027SOL     OW35234   1.333   6.644   8.889  0.6964 -0.6375 -0.1609
11027SOL    HW135235   1.324   6.549   8.881  1.7952 -0.6901 -0.9358
11027SOL    HW235236   1.377   6.671   8.808  0.6491  0.5039  0.1751
11028SOL     OW35237   2.708   1.920   6.075 -0.5094 -0.3389  0.6209
11028SOL    HW135238   2.669   1.881   5.997 -0.4272 -0.6408  0.7252
11028SOL    HW235239   2.698   2.014   6.064  1.5291 -0.2385 -0.8243
11029SOL     OW35240   3.318   7.409   4.782 -0.0038 -0.1359 -0.0563
11029SOL    HW135241   3.247   7.347   4.800  0.6140 -0.9385 -0.3505
11029SOL    HW235242   3.398   7.359   4.794  0.5039  0.4459 -0.8778
11030SOL     OW35243   7.487   1.895   4.452 -0.1348  0.0931 -0.1876
11030SOL    HW135244   7.550   1.887   4.524 -1.2252  0.1835  0.8015
11030SOL    HW235245   7.424   1.825   4.467 -0.0313 -0.3036 -1.4463
11031SOL     OW35246   0.926   3.313   2.686  0.0802  0.6546 -0.2184
11031SOL    HW135247   0.902   3.279   2.773 -0.2089  1.1393 -0.1071
11031SOL    HW235248   0.991   3.381   2.704  1.3020 -0.4079 -0.4959
11032SOL     OW35249   6.244   2.929   3.217  0.0454 -0.0232 -0.3759
11032SOL    HW135250   6.304   2.864   3.255 -1.0953 -1.0197 -0.2263
11032SOL    HW235251   6.246   3.002   3.278 -0.0056 -0.6590  0.3985
11033SOL     OW35252   5.828   8.146   8.982  0.3036  0.4447  0.8990
11033SOL    HW135253   5.795   8.096   8.907  1.7068  1.2026 -0.2811
11033SOL    HW235254   5.923   8.138   8.976  0.4849  1.7118  1.7701
11034SOL     OW35255   1.705   1.304   4.650  0.2686  0.2655  0.1979
11034SOL    HW135256   1.680   1.384   4.697 -1.3171  1.0562 -1.8205
11034SOL    HW235257   1.637   1.241   4.671 -0.4752  0.6384 -0.9887
11035SOL     OW35258   5.812   2.452   1.515  0.0947 -0.3647 -0.1328
11035SOL    HW135259   5.749   2.413   1.455 -0.4004  1.0857 -0.6001
11035SOL    HW235260   5.772   2.443   1.601  0.1908 -1.2585 -0.1773
11036SOL     OW35261   5.361   2.963   8.082 -0.2667 -0.1019 -0.0429
11036SOL    HW135262   5.443   3.001   8.111 -0.8608 -0.3044  2.0124
11036SOL    HW235263   5.334   2.904   8.152 -2.2963  0.1638 -0.5258
11037SOL     OW35264   5.246   9.034   0.560 -0.3014  0.0423 -0.2629
11037SOL    HW135265   5.338   9.021   0.583 -0.4857 -0.0744  0.4400
11037SOL    HW235266   5.240   9.124   0.530 -0.1059  0.3042  0.4764
11038SOL     OW35267   0.712   4.608   0.021  0.4181 -0.0317 -0.1043
11038SOL    HW135268   0.792   4.558   0.040  0.7097  0.1923 -0.7007
11038SOL    HW235269   0.654   4.590   0.095  0.6408 -0.9888 -0.1530
11039SOL     OW35270   4.944   3.479   0.476 -0.1117 -0.0826  0.4635
11039SOL    HW135271   4.924   3.572   0.466  1.2143  0.3343  1.3890
11039SOL    HW235272   4.976   3.452   0.389  1.8182  0.9726  0.7743
11040SOL     OW35273   9.059   1.260   2.050 -0.1653  0.1467 -0.4224
11040SOL    HW135274   9.091   1.332   2.104  0.1580  0.5871 -1.1793
11040SOL    HW235275   8.971   1.287   2.024  0.5517  1.0647 -2.0472
11041SOL     OW35276   0.941   5.157   3.958  0.2167  0.0758  0.3911
11041SOL    HW135277   0.897   5.177   4.040 -0.9891  0.3117 -0.2831
11041SOL    HW235278   0.948   5.241   3.913 -2.5351 -0.4802 -1.3351
11042SOL     OW35279   8.356   9.161   2.981  0.1920 -0.3592  0.4369
11042SOL    HW135280   8.336   9.092   3.044 -0.9395 -0.5203 -0.0736
11042SOL    HW235281   8.344   9.120   2.895  0.4732  0.2007  0.1216
11043SOL     OW35282   9.591   6.886   1.202  0.0294  0.3275 -0.3399
11043SOL    HW135283   9.630   6.812   1.155 -2.0880 -0.7380 -0.5520
11043SOL    HW235284   9.632   6.963   1.163  0.5476 -0.6422 -1.8313
11044SOL     OW35285   1.012   5.646   9.003 -0.0008  0.1308 -0.3724
11044SOL    HW135286   0.989   5.735   9.029 -2.1229 -0.1012 -1.2652
11044SOL    HW235287   1.069   5.656   8.927 -0.6371  0.7179 -0.7692
11045SOL     OW35288   2.464   6.178   7.756  0.4676  0.5110 -0.4427
11045SOL    HW135289   2.380   6.149   7.793 -0.1871  1.6337 -0.9766
11045SOL    HW235290   2.481   6.262   7.798  1.9733 -0.2583  0.5558
11046SOL     OW35291   3.869   3.564   0.181  0.0492 -0.5173  0.2201
11046SOL    HW135292   3.886   3.648   0.140 -1.9499 -0.3041 -0.2689
11046SOL    HW235293   3.895   3.499   0.116 -0.7313 -0.2223 -0.3929
11047SOL     OW35294   7.181   0.646   9.085  0.2659 -0.5117 -0.1200
11047SOL    HW135295   7.265   0.603   9.071  0.7800  0.1518  0.7750
11047SOL    HW235296   7.126   0.578   9.125  1.3336 -0.1871  2.0865
11048SOL     OW35297   8.696   1.475   3.359 -0.4380 -0.4262 -0.1391
11048SOL    HW135298   8.743   1.394   3.380 -1.2371 -0.2328  2.9276
11048SOL    HW235299   8.626   1.479   3.425  0.4240  3.4597  0.8051
11049SOL     OW35300   6.149   1.642   9.527  1.1167 -0.2199  0.0850
11049SOL    HW135301   6.096   1.685   9.594  1.2319  1.1909 -0.6956
11049SOL    HW235302   6.086   1.621   9.457  0.7288 -2.9003  1.0999
11050SOL     OW35303   1.155   7.290   8.247 -0.3580  0.4267 -0.3038
11050SOL    HW135304   1.231   7.327   8.202 -0.4509  1.1000  0.0731
11050SOL    HW235305   1.080   7.339   8.213 -0.6530 -0.3273 -0.7749
11051SOL     OW35306   3.854   0.309   1.089  0.1419 -0.3089 -0.3524
11051SOL    HW135307   3.830   0.256   1.012 -1.0349  0.5917 -0.6292
11051SOL    HW235308   3.774   0.355   1.113  1.3340  2.0916 -0.6944
11052SOL     OW35309   8.978   0.845   7.055  0.3167  0.1378  0.6256
11052SOL    HW135310   8.923   0.801   6.990 -0.6440  0.8729  0.9131
11052SOL    HW235311   9.066   0.844   7.017 -0.5793  2.7732 -1.9378
11053SOL     OW35312   9.600   6.617   8.872 -0.2677 -0.0073  0.1603
11053SOL    HW135313   9.545   6.540   8.860  0.2880 -0.3410 -0.2819
11053SOL    HW235314   9.685   6.582   8.899 -0.3676  0.5244  1.2003
11054SOL     OW35315   8.199   4.914   3.021 -0.0096 -0.4712 -0.1618
11054SOL    HW135316   8.127   4.872   3.069  0.1263 -0.0211  0.4432
11054SOL    HW235317   8.236   4.976   3.084  0.7592 -0.5335 -0.5513
11055SOL     OW35318   6.091   7.303   7.327 -0.4739 -0.2224 -0.1669
11055SOL    HW135319   6.023   7.307   7.260 -0.5788  0.4795 -0.0342
11055SOL    HW235320   6.153   7.371   7.301  0.3264 -1.0393 -0.4365
11056SOL     OW35321   1.814   6.175   5.088  0.6913  0.7454 -0.6305
11056SOL    HW135322   1.865   6.186   5.007  1.3018 -1.8417 -0.6843
11056SOL    HW235323   1.877   6.138   5.150 -0.1932  1.1625  0.5345
11057SOL     OW35324   7.743   6.729   5.468 -0.0754 -0.3304  0.5687
11057SOL    HW135325   7.837   6.713   5.460  0.0518  0.8086 -0.5705
11057SOL    HW235326   7.735   6.802   5.529 -0.0907  0.5158 -0.4026
11058SOL     OW35327   6.409   2.548   6.007 -0.2535 -0.3639  0.4688
11058SOL    HW135328   6.416   2.474   5.947 -0.7136 -0.6591  0.7773
11058SOL    HW235329   6.467   2.615   5.969 -1.3858 -0.1308 -0.9363
11059SOL     OW35330   7.299   6.978   1.229 -0.0561 -0.2678 -0.1531
11059SOL    HW135331   7.366   7.032   1.187  0.4071  0.6117  1.6208
11059SOL    HW235332   7.311   6.891   1.191  1.3409  0.1326 -0.6799
11060SOL     OW35333   7.922   3.927   4.637 -0.0128 -0.1717  0.1210
11060SOL    HW135334   7.868   3.985   4.689  1.3797  1.1249  0.1746
11060SOL    HW235335   7.892   3.839   4.661 -1.1334  0.4639  1.1659
11061SOL     OW35336   9.356   7.632   8.773 -0.1914  0.0959 -0.8303
11061SOL    HW135337   9.289   7.696   8.751 -0.9083 -0.5738 -0.6563
11061SOL    HW235338   9.438   7.669   8.739 -0.9835 -0.0971 -3.0692
11062SOL     OW35339   5.180   1.970   1.925  0.8289 -0.6182  0.1916
11062SOL    HW135340   5.220   1.943   1.842  1.1573  1.0692 -0.2337
11062SOL    HW235341   5.242   1.941   1.992  1.2494 -0.7449 -0.2473
11063SOL     OW35342   1.313   0.077   0.566 -0.1977  0.4670  0.0924
11063SOL    HW135343   1.400   0.116   0.575  0.2516 -0.1869 -1.2343
11063SOL    HW235344   1.309   0.011   0.635  1.5817 -1.6464 -1.6945
11064SOL     OW35345   9.056   1.342   5.480 -0.6370 -0.7605 -0.1709
11064SOL    HW135346   9.092   1.393   5.407 -2.0822 -0.1392 -0.4680
11064SOL    HW235347   9.128   1.340   5.544 -0.1326  0.6499 -0.6426
11065SOL     OW35348   3.638   9.540   0.581 -0.4560  0.0030  0.5528
11065SOL    HW135349   3.670   9.606   0.643 -0.7806  0.1574  0.5551
11065SOL    HW235350   3.700   9.468   0.589 -0.3143  0.1550  0.8236
11066SOL     OW35351   7.578   7.479   2.847  0.5492 -0.1204  0.1531
11066SOL    HW135352   7.525   7.431   2.911  2.0767 -1.1266  0.7111
11066SOL    HW235353   7.534   7.463   2.764 -0.0763 -0.8858  0.6092
11067SOL     OW35354   1.250   9.503   8.746 -0.4558  0.1261 -0.1827
11067SOL    HW135355   1.197   9.576   8.714 -0.2668  0.2163 -0.2833
11067SOL    HW235356   1.189   9.452   8.801 -1.3778 -1.1653 -2.2776
11068SOL     OW35357   9.445   1.108   5.183  0.1311 -0.3851 -0.6224
11068SOL    HW135358   9.511   1.120   5.251  0.9977  0.0558 -1.5157
11068SOL    HW235359   9.375   1.060   5.227  1.3212 -1.4674  0.1965
11069SOL     OW35360   9.409   7.529   7.177  0.8138 -0.2336  0.1416
11069SOL    HW135361   9.485   7.489   7.219  0.7371  0.9981  1.5583
11069SOL    HW235362   9.436   7.620   7.159  0.6803 -0.5810 -2.1515
11070SOL     OW35363   4.729   8.434   7.125  0.2761 -0.0972 -0.0595
11070SOL    HW135364   4.816   8.473   7.116  0.7479 -1.0736  0.0993
11070SOL    HW235365   4.700   8.419   7.035 -0.1007  1.0036 -0.1336
11071SOL     OW35366   9.379   7.765   1.938  0.3096 -0.0103 -0.4451
11071SOL    HW135367   9.432   7.833   1.897  0.9863 -0.1890  0.1170
11071SOL    HW235368   9.291   7.803   1.942  0.5203  0.5354 -0.8180
11072SOL     OW35369   3.799   1.129   2.153  0.1716 -0.1713 -0.2122
11072SOL    HW135370   3.709   1.102   2.169 -0.0906 -0.4683 -1.9913
11072SOL    HW235371   3.827   1.077   2.077  1.4797  0.6763 -0.3479
11073SOL     OW35372   2.263   3.388   0.309 -0.1378  0.5639 -0.1159
11073SOL    HW135373   2.306   3.303   0.318 -0.7495  0.2970  0.3671
11073SOL    HW235374   2.306   3.429   0.234 -0.4534 -0.5608 -0.9474
11074SOL     OW35375   6.329   6.508   2.156 -0.5228 -0.3497 -0.1531
11074SOL    HW135376   6.248   6.512   2.206 -0.9040  0.4693 -0.8091
11074SOL    HW235377   6.353   6.415   2.156 -1.6110 -0.6458 -0.1778
11075SOL     OW35378   5.087   1.745   6.362  0.3736  0.2435 -0.1262
11075SOL    HW135379   5.029   1.806   6.318 -0.3420  0.4244  1.0248
11075SOL    HW235380   5.032   1.705   6.430  0.3141 -2.9041 -1.8390
11076SOL     OW35381   8.661   3.134   3.269 -0.0156 -0.4190  0.3383
11076SOL    HW135382   8.659   3.219   3.314 -1.4102 -0.6872  0.8306
11076SOL    HW235383   8.659   3.069   3.339  0.5451 -0.8703 -0.0515
11077SOL     OW35384   5.984   4.779   6.875  0.3459 -0.5021  0.5716
11077SOL    HW135385   5.958   4.849   6.936  1.9241  0.6684 -0.0250
11077SOL    HW235386   5.906   4.764   6.822  0.2088  1.4708  0.1388
11078SOL     OW35387   4.927   3.835   4.924  0.4131  0.0004 -0.6249
11078SOL    HW135388   4.947   3.846   4.831 -0.8638 -3.7018 -1.4749
11078SOL    HW235389   4.832   3.844   4.930  0.6138  2.1879  0.7906
11079SOL     OW35390   4.184   0.104   0.563  0.0305 -0.6229  0.4998
11079SOL    HW135391   4.193   0.181   0.619  1.8081  0.2966 -0.9695
11079SOL    HW235392   4.194   0.137   0.474  2.3815 -2.7014 -0.1287
11080SOL     OW35393   1.911   6.433   2.336  0.3640 -0.4863  0.1819
11080SOL    HW135394   1.924   6.466   2.247  1.6524  0.2456  0.6238
11080SOL    HW235395   1.943   6.502   2.393 -1.4049 -0.5133  1.2808
11081SOL     OW35396   0.420   1.169   1.738  0.3722  0.2591 -0.5553
11081SOL    HW135397   0.386   1.255   1.715 -1.6742  0.0770  1.3791
11081SOL    HW235398   0.344   1.123   1.775  2.0186 -1.4229  0.9151
11082SOL     OW35399   2.468   5.478   4.406  0.1102  0.4769 -0.1868
11082SOL    HW135400   2.428   5.521   4.330 -1.3443  1.2359  0.9674
11082SOL    HW235401   2.524   5.410   4.367 -1.3045  0.2114 -1.9296
11083SOL     OW35402   0.715   6.062   5.667 -0.3754 -0.0867  0.2602
11083SOL    HW135403   0.695   6.125   5.736  0.6650 -0.5067  0.9613
11083SOL    HW235404   0.672   5.981   5.695 -0.4343 -0.1061  0.1179
11084SOL     OW35405   6.898   0.841   6.462  0.4795 -0.3420  0.0476
11084SOL    HW135406   6.880   0.759   6.417  0.2646  0.1745 -0.8307
11084SOL    HW235407   6.864   0.828   6.551 -2.3232 -0.1815 -0.9114
11085SOL     OW35408   8.958   1.621   9.142 -0.1344  0.0981  0.0476
11085SOL    HW135409   8.943   1.592   9.052  0.6528  0.1127 -0.0876
11085SOL    HW235410   9.052   1.611   9.156  0.0161  1.6264  0.3354
11086SOL     OW35411   6.613   1.741   6.919 -0.0204  0.1687  0.3207
11086SOL    HW135412   6.589   1.773   7.006  1.1250 -0.2833  0.8240
11086SOL    HW235413   6.629   1.820   6.868  0.8131  0.4441  0.9767
11087SOL     OW35414   6.356   3.867   9.557  0.2340  0.0009  0.0888
11087SOL    HW135415   6.333   3.782   9.520  3.3582 -0.2347 -1.6885
11087SOL    HW235416   6.321   3.931   9.494  0.8345 -0.1432 -0.3952
11088SOL     OW35417   0.551   2.282   4.186 -0.8750  0.1771  0.1035
11088SOL    HW135418   0.568   2.213   4.250  3.0876  0.3252 -0.5127
11088SOL    HW235419   0.488   2.340   4.228 -0.5899 -1.2306  2.6477
11089SOL     OW35420   2.319   0.084   3.278 -0.2381  0.4222 -0.4718
11089SOL    HW135421   2.397   0.029   3.290 -1.6393 -1.1318  2.8876
11089SOL    HW235422   2.293   0.069   3.188  0.1174 -3.6991 -0.0866
11090SOL     OW35423   9.201   3.864   2.777 -0.5721 -0.2606 -0.1516
11090SOL    HW135424   9.246   3.947   2.790  0.5497 -0.6154 -1.4813
11090SOL    HW235425   9.144   3.855   2.853  1.0328  0.6098  1.2253
11091SOL     OW35426   1.117   1.487   0.038  0.4145 -0.4688 -0.5204
11091SOL    HW135427   1.190   1.550   0.039  1.3832 -1.5413 -0.9639
11091SOL    HW235428   1.090   1.481   0.129  1.1426 -0.3349 -0.2834
11092SOL     OW35429   9.084   3.481   0.354 -0.5454  0.0457 -0.4558
11092SOL    HW135430   8.997   3.522   0.350  0.3598  2.5739  2.3741
11092SOL    HW235431   9.079   3.423   0.430 -0.1801 -1.0684 -1.2588
11093SOL     OW35432   6.860   8.790   5.421  0.3776 -0.2432  0.8634
11093SOL    HW135433   6.911   8.860   5.380 -0.2402 -0.5737 -0.5090
11093SOL    HW235434   6.769   8.811   5.401  0.1087 -0.7655  1.5154
11094SOL     OW35435   0.265   6.241   0.179  0.1763  0.2921 -0.8240
11094SOL    HW135436   0.339   6.242   0.117 -0.5097 -0.8910 -1.6989
11094SOL    HW235437   0.261   6.151   0.210 -0.9010  0.3362 -0.8069
11095SOL     OW35438   1.545   3.019   0.127 -0.8027 -0.5002 -0.1168
11095SOL    HW135439   1.620   3.010   0.186 -1.0976  0.0166  0.3523
11095SOL    HW235440   1.501   2.935   0.132 -2.0371  0.2004  2.1182
11096SOL     OW35441   7.547   0.037   8.413 -0.0875 -0.1251  0.1353
11096SOL    HW135442   7.571  -0.005   8.496 -0.6271 -0.3465  0.1859
11096SOL    HW235443   7.456   0.064   8.426 -0.3817 -0.7248 -0.6075
11097SOL     OW35444   5.233   4.306   0.399  0.7194  0.6153 -0.0568
11097SOL    HW135445   5.228   4.401   0.391  1.1201  0.6028 -0.5691
11097SOL    HW235446   5.302   4.290   0.463  0.4230  0.6752  0.2753
11098SOL     OW35447   7.487   9.486   6.390 -0.2396  0.1262  0.5922
11098SOL    HW135448   7.555   9.518   6.448  0.4180 -0.6069  0.2444
11098SOL    HW235449   7.410   9.476   6.446  0.3941 -0.6231  1.3571
11099SOL     OW35450   7.725   9.278   4.244 -0.8025 -0.3817 -0.1607
11099SOL    HW135451   7.707   9.331   4.166  2.4431  0.6809 -0.3244
11099SOL    HW235452   7.663   9.311   4.310 -2.5240 -0.2041 -1.7717
11100SOL     OW35453   2.817   6.638   2.279  0.6888  0.4843 -0.6090
11100SOL    HW135454   2.765   6.718   2.289 -1.3145 -0.6397 -1.3731
11100SOL    HW235455   2.753   6.572   2.252  1.9449 -1.8102  1.6902
11101SOL     OW35456   8.461   3.869   6.031  0.4368  0.9432  0.5843
11101SOL    HW135457   8.395   3.836   6.092  1.7279 -0.5019  1.2558
11101SOL    HW235458   8.455   3.964   6.039 -1.3110  0.8571  0.8634
11102SOL     OW35459   1.284   8.051   8.698 -0.1065 -0.0128 -0.1792
11102SOL    HW135460   1.337   8.075   8.622  0.5245  0.3804  0.3719
11102SOL    HW235461   1.200   8.093   8.684  0.3326  0.8775 -0.1913
11103SOL     OW35462   2.248   0.280   0.733 -0.0411  0.0257  0.0259
11103SOL    HW135463   2.263   0.361   0.782  1.7852  0.3433 -0.9583
11103SOL    HW235464   2.156   0.259   0.748  0.0125  1.0656  2.1004
11104SOL     OW35465   3.933   7.667   2.641  0.0100  0.5777 -0.4154
11104SOL    HW135466   3.884   7.722   2.702 -1.5807  1.1855 -2.1815
11104SOL    HW235467   3.903   7.578   2.660 -0.4122  0.7534 -0.2512
11105SOL     OW35468   4.094   4.402   0.476  0.5785 -0.1960 -0.3468
11105SOL    HW135469   4.154   4.332   0.501 -0.8846 -0.9659  1.2136
11105SOL    HW235470   4.093   4.399   0.380  2.4276 -0.6330 -0.3978
11106SOL     OW35471   1.497   8.086   3.137  0.2854 -0.5076  0.1955
11106SOL    HW135472   1.505   8.059   3.228  3.4994  1.1339  0.5420
11106SOL    HW235473   1.470   8.177   3.141  0.1724 -0.5052 -0.5201
11107SOL     OW35474   8.441   0.754   8.699  0.6630  0.1002 -0.0158
11107SOL    HW135475   8.504   0.720   8.762 -0.1813  2.1272  2.0602
11107SOL    HW235476   8.494   0.777   8.622  1.8487 -1.5583  0.2459
11108SOL     OW35477   3.545   7.853   1.890  0.2571  0.0876 -0.5201
11108SOL    HW135478   3.544   7.774   1.836 -0.9260 -0.4305  0.2010
11108SOL    HW235479   3.485   7.832   1.962 -0.8627  2.0190 -0.8444
11109SOL     OW35480   6.560   0.667   6.107 -0.1711  0.1983 -0.8805
11109SOL    HW135481   6.491   0.733   6.103 -0.2886  0.0883 -0.6833
11109SOL    HW235482   6.576   0.654   6.201  1.8372  2.0172 -0.9037
11110SOL     OW35483   4.563   7.085   8.745  0.4468 -0.4805 -0.2978
11110SOL    HW135484   4.551   7.149   8.674 -0.1080 -0.9235 -0.6206
11110SOL    HW235485   4.655   7.090   8.767  1.0422 -1.5199 -2.2392
11111SOL     OW35486   1.181   9.259   5.409 -0.9108 -0.0907 -0.1935
11111SOL    HW135487   1.158   9.305   5.328  0.9083  0.0972 -0.6648
11111SOL    HW235488   1.267   9.220   5.390 -0.8342 -0.7513  1.3758
11112SOL     OW35489   9.129   0.457   0.141  0.1100  0.7098 -0.1467
11112SOL    HW135490   9.197   0.436   0.077  0.2237 -0.3559  0.2958
11112SOL    HW235491   9.120   0.377   0.193 -0.4525  1.3327  0.7408
11113SOL     OW35492   4.781   1.343   8.158 -0.0952 -0.8860 -0.2254
11113SOL    HW135493   4.772   1.316   8.249  1.7886 -1.2868 -0.1258
11113SOL    HW235494   4.862   1.303   8.128 -1.5203 -2.2221 -2.6506
11114SOL     OW35495   2.699   1.181   6.247  0.5283  0.4573 -0.3065
11114SOL    HW135496   2.616   1.188   6.199  0.4074 -0.2507 -0.2098
11114SOL    HW235497   2.749   1.114   6.200  0.7114  0.2882  0.1179
11115SOL     OW35498   2.231   0.997   8.611  0.2311  0.2198  0.7278
11115SOL    HW135499   2.211   1.091   8.618 -0.1636  0.3973 -1.7484
11115SOL    HW235500   2.327   0.994   8.605  0.3459  0.3064  2.2116
11116SOL     OW35501   3.969   3.475   6.263  0.1347 -0.0183  0.5239
11116SOL    HW135502   3.889   3.512   6.225 -0.4432 -0.3381  1.3860
11116SOL    HW235503   3.997   3.540   6.327  0.1249 -0.2536  0.7711
11117SOL     OW35504   5.956   6.846   1.972 -0.4083 -0.1202 -0.2423
11117SOL    HW135505   6.033   6.901   1.965 -2.1675  2.6536  0.4567
11117SOL    HW235506   5.963   6.805   2.058 -0.4942  1.5089  0.5866
11118SOL     OW35507   6.706   7.363   0.848  0.1212 -0.2564 -0.2660
11118SOL    HW135508   6.801   7.350   0.847 -0.0901 -1.9722 -0.4551
11118SOL    HW235509   6.677   7.320   0.928 -0.5205  0.1689 -0.2660
11119SOL     OW35510   6.910   5.719   5.247 -0.0935  0.2961  0.4874
11119SOL    HW135511   6.928   5.734   5.154  0.5159  0.2524  0.5989
11119SOL    HW235512   6.819   5.747   5.258 -0.4291 -0.4453 -0.2909
11120SOL     OW35513   7.571   3.028   3.275 -0.3647  0.2283 -0.4272
11120SOL    HW135514   7.504   3.071   3.328  0.2320 -0.2145  0.7451
11120SOL    HW235515   7.550   2.935   3.280  0.3775  0.0777  0.0365
11121SOL     OW35516   9.111   7.844   3.635 -0.4991  0.2552 -0.2856
11121SOL    HW135517   9.034   7.882   3.593 -1.8842 -2.9474 -0.9677
11121SOL    HW235518   9.131   7.767   3.582  1.7772 -0.2978  1.2422
11122SOL     OW35519   2.790   0.350   2.027 -0.6743 -0.0648  0.5511
11122SOL    HW135520   2.876   0.308   2.018 -0.9765 -0.3651 -1.3027
11122SOL    HW235521   2.728   0.284   1.996 -1.4462  0.7054  0.4303
11123SOL     OW35522   8.354   6.539   7.301  0.4164  0.9771 -0.2366
11123SOL    HW135523   8.309   6.613   7.341  0.0722  1.0335 -0.7306
11123SOL    HW235524   8.378   6.483   7.375 -2.5324 -0.2656 -0.0797
11124SOL     OW35525   0.434   0.724   4.923  0.4244 -0.0107  0.1458
11124SOL    HW135526   0.410   0.752   4.834  1.4033  0.2689 -0.0410
11124SOL    HW235527   0.501   0.787   4.950 -0.0038  0.0231  1.1677
11125SOL     OW35528   7.498   0.261   2.205 -0.2397  0.4691  0.0683
11125SOL    HW135529   7.433   0.192   2.199 -0.6024  0.7769  0.4022
11125SOL    HW235530   7.525   0.262   2.297  2.2704 -1.4767 -0.5168
11126SOL     OW35531   4.714   5.860   6.015 -0.8950 -0.1711  0.1465
11126SOL    HW135532   4.740   5.884   6.104 -1.3762 -1.7585  0.7417
11126SOL    HW235533   4.698   5.944   5.971 -2.4578  0.6110  2.0808
11127SOL     OW35534   5.970   7.634   3.354  0.3516 -0.0706 -0.2569
11127SOL    HW135535   6.016   7.644   3.437  0.7110  0.7001 -0.5420
11127SOL    HW235536   6.039   7.639   3.288 -0.1184  1.0182 -0.6910
11128SOL     OW35537   4.231   3.261   4.561 -0.3210 -0.2290  0.3069
11128SOL    HW135538   4.229   3.219   4.647 -0.3956 -0.4455  0.1986
11128SOL    HW235539   4.254   3.352   4.580 -0.3381 -0.2758  0.5564
11129SOL     OW35540   5.787   0.912   3.540 -0.2351  0.1639  0.3733
11129SOL    HW135541   5.766   0.967   3.616 -1.2292  0.2201  0.0703
11129SOL    HW235542   5.727   0.942   3.472 -0.3221 -0.8371 -0.0048
11130SOL     OW35543   0.614   6.234   2.388  0.1969 -0.0318  0.6048
11130SOL    HW135544   0.636   6.326   2.402 -0.2774  0.0507  0.8029
11130SOL    HW235545   0.568   6.208   2.468 -2.3898  0.3946 -0.6376
11131SOL     OW35546   8.035   3.546   5.640  0.3525 -0.2561  0.1548
11131SOL    HW135547   8.109   3.493   5.669  1.8593 -0.1893 -3.0363
11131SOL    HW235548   7.971   3.483   5.608  0.5405 -0.2761 -0.1971
11132SOL     OW35549   8.315   5.427   8.237  0.2693 -0.4865  0.2720
11132SOL    HW135550   8.380   5.357   8.236  0.0478 -0.7150 -1.5503
11132SOL    HW235551   8.326   5.472   8.153 -0.5078  0.8131  0.8278
11133SOL     OW35552   9.221   7.107   6.549  0.2508 -0.1119  0.1318
11133SOL    HW135553   9.279   7.099   6.625  1.1077  0.5153 -0.4458
11133SOL    HW235554   9.133   7.095   6.585  0.7561 -1.9007  0.9062
11134SOL     OW35555   4.399   3.888   0.082  0.4205 -0.2776 -0.3679
11134SOL    HW135556   4.491   3.911   0.069  1.1156 -3.2460 -1.4402
11134SOL    HW235557   4.383   3.816   0.021 -1.8084 -1.6827  1.6706
11135SOL     OW35558   2.338   8.155   5.546  0.3767 -0.3703 -0.2574
11135SOL    HW135559   2.411   8.097   5.523  1.5465  1.1784 -0.5687
11135SOL    HW235560   2.325   8.142   5.640 -1.2115 -3.1233 -0.7410
11136SOL     OW35561   2.897   5.800   1.391 -0.0830 -0.0313 -0.0123
11136SOL    HW135562   2.937   5.823   1.307  0.9668 -0.4506  0.3614
11136SOL    HW235563   2.842   5.875   1.413  0.3438  0.4747 -0.6400
11137SOL     OW35564   3.980   0.454   1.912 -0.7597  0.1934  0.1773
11137SOL    HW135565   4.025   0.445   1.828 -1.4361  0.6287 -0.2424
11137SOL    HW235566   3.984   0.548   1.931 -1.9893  0.3251 -0.1562
11138SOL     OW35567   2.692   7.550   7.058  0.2421 -0.2252 -0.1302
11138SOL    HW135568   2.643   7.514   7.132  1.0671  1.1601  1.1554
11138SOL    HW235569   2.632   7.542   6.983 -1.7318  0.8421  1.2466
11139SOL     OW35570   9.415   1.039   1.113 -0.0470  1.0748 -0.0511
11139SOL    HW135571   9.484   1.020   1.176 -1.3995  0.8517  1.4396
11139SOL    HW235572   9.456   1.096   1.048  1.8059  0.0481  0.1573
11140SOL     OW35573   4.785   7.381   0.733 -0.0066  0.6287 -0.2660
11140SOL    HW135574   4.771   7.445   0.803  1.0976 -0.1225  0.7060
11140SOL    HW235575   4.864   7.334   0.761 -0.2579 -0.5183 -1.4186
11141SOL     OW35576   1.523   2.858   6.415 -0.0929 -0.3020  0.6883
11141SOL    HW135577   1.502   2.937   6.465  0.0530 -0.9385  1.7723
11141SOL    HW235578   1.443   2.806   6.418 -0.2955 -0.0754 -0.3014
11142SOL     OW35579   2.877   2.405   9.197  0.1213  0.2195 -0.3900
11142SOL    HW135580   2.911   2.425   9.284  2.1846  1.6716 -1.4557
11142SOL    HW235581   2.832   2.484   9.169 -1.1735 -0.4911 -0.3911
11143SOL     OW35582   3.705   1.956   1.964  0.5057  0.1131 -0.2510
11143SOL    HW135583   3.664   1.871   1.948  0.8786  0.0814 -1.0835
11143SOL    HW235584   3.798   1.937   1.977  0.1888  0.0721  2.6204
11144SOL     OW35585   8.353   8.194   0.197 -0.3172 -0.0653 -0.5827
11144SOL    HW135586   8.407   8.204   0.275  1.4827  0.5920 -1.8403
11144SOL    HW235587   8.355   8.101   0.178 -1.6135 -0.3823  0.6887
11145SOL     OW35588   9.226   5.567   7.270 -0.5041 -0.0591 -0.3286
11145SOL    HW135589   9.162   5.522   7.214 -1.3422  0.4180  0.2191
11145SOL    HW235590   9.205   5.539   7.359  0.2418 -0.1164 -0.1648
11146SOL     OW35591   5.434   8.561   0.425  0.0593  0.0019 -0.2560
11146SOL    HW135592   5.446   8.562   0.520 -0.7834 -1.3877 -0.0939
11146SOL    HW235593   5.503   8.503   0.393 -0.3582 -0.4426 -0.3589
11147SOL     OW35594   7.312   3.590   3.232 -0.0718  0.5839 -0.1606
11147SOL    HW135595   7.222   3.562   3.248  0.2878 -0.0698  0.7876
11147SOL    HW235596   7.309   3.686   3.238 -0.9867  0.6766 -1.7128
11148SOL     OW35597   2.528   4.920   6.008  0.1931 -0.1898  0.2215
11148SOL    HW135598   2.579   4.845   5.979  0.7103 -0.0601  0.7861
11148SOL    HW235599   2.551   4.990   5.946 -0.3827 -0.5120 -0.3788
11149SOL     OW35600   7.172   9.609   2.537 -0.6622  0.3597  0.2612
11149SOL    HW135601   7.192   9.606   2.444 -0.3643  0.1092  0.3343
11149SOL    HW235602   7.227   9.678   2.572  1.0684 -1.1686  0.6968
11150SOL     OW35603   7.279   7.586   0.333  0.2707 -0.4249 -0.1279
11150SOL    HW135604   7.204   7.571   0.276  0.4087  2.3338 -1.2083
11150SOL    HW235605   7.251   7.556   0.419 -1.2493 -1.4359 -0.9367
11151SOL     OW35606   8.578   9.022   6.718 -0.1306  0.5556 -0.2697
11151SOL    HW135607   8.514   9.044   6.785  0.4741  2.4805 -0.2647
11151SOL    HW235608   8.663   9.040   6.758  0.2387  1.7647 -1.5090
11152SOL     OW35609   3.935   9.009   6.017  0.4755 -0.4687 -0.1255
11152SOL    HW135610   3.871   8.956   5.969 -1.3348 -2.1862  3.7084
11152SOL    HW235611   3.899   9.097   6.016  0.9822 -0.2255 -2.5345
11153SOL     OW35612   3.382   8.780   6.434  0.0027 -0.1580  0.0203
11153SOL    HW135613   3.332   8.758   6.513  1.5658  0.4815  1.2673
11153SOL    HW235614   3.357   8.870   6.414 -1.2277 -0.6801 -0.9277
11154SOL     OW35615   3.740   7.270   4.467 -0.1596  0.4496  0.1005
11154SOL    HW135616   3.835   7.260   4.458 -0.3927 -0.4162 -1.8919
11154SOL    HW235617   3.708   7.282   4.378 -1.8332  2.0219  0.8266
11155SOL     OW35618   3.330   4.529   8.800 -0.0675 -0.3603  0.7827
11155SOL    HW135619   3.289   4.613   8.819 -0.1665 -0.5666  1.5358
11155SOL    HW235620   3.424   4.549   8.797 -0.2310  0.3266 -2.1076
11156SOL     OW35621   4.050   6.780   5.806  0.2272  0.9747 -0.4441
11156SOL    HW135622   4.064   6.844   5.737  3.7326  0.5761 -0.2784
11156SOL    HW235623   4.084   6.698   5.770  0.0003  0.2404  0.9401
11157SOL     OW35624   0.045   0.924   7.050  0.5901 -0.0646  0.0406
11157SOL    HW135625   0.021   0.939   6.958 -1.1558  1.3059  0.6587
11157SOL    HW235626  -0.006   0.989   7.099  2.6885  0.3405  1.8686
11158SOL     OW35627   1.914   6.436   7.279 -0.0621 -0.3991 -0.5170
11158SOL    HW135628   1.826   6.468   7.298 -0.4152 -0.7833 -1.4486
11158SOL    HW235629   1.902   6.371   7.210  0.7779 -1.6329  0.4424
11159SOL     OW35630   5.424   1.735   7.510 -0.3737  0.1241  0.0395
11159SOL    HW135631   5.442   1.829   7.514  1.6677 -0.2322  0.2982
11159SOL    HW235632   5.500   1.697   7.467 -1.4543 -1.3710 -0.6775
11160SOL     OW35633   1.357   0.213   6.410 -0.4000  0.1627  0.0260
11160SOL    HW135634   1.420   0.257   6.467  1.3823 -1.4026 -0.5971
11160SOL    HW235635   1.316   0.147   6.466 -0.6390  0.4196  0.1541
11161SOL     OW35636   2.769   1.220   6.480  0.2685  0.3593  0.0847
11161SOL    HW135637   2.691   1.209   6.534  1.6511 -1.4976  1.9075
11161SOL    HW235638   2.741   1.198   6.392 -1.5568  1.1127  0.4407
11162SOL     OW35639   6.519   4.890   5.023 -0.2203  0.6804 -0.1199
11162SOL    HW135640   6.495   4.912   4.933 -0.7597  1.0652  0.1110
11162SOL    HW235641   6.436   4.891   5.071 -0.0008 -0.0161  0.2815
11163SOL     OW35642   0.626   0.438   2.878 -0.6006 -0.5388 -0.2576
11163SOL    HW135643   0.550   0.483   2.843 -1.6760 -1.4333  0.8530
11163SOL    HW235644   0.685   0.508   2.905 -2.3703  0.2673  1.7453
11164SOL     OW35645   4.638   1.846   9.352  0.6973  0.1035 -0.1684
11164SOL    HW135646   4.720   1.854   9.402  0.6051 -1.0181  0.1891
11164SOL    HW235647   4.594   1.770   9.390 -0.1832  0.2567 -0.8435
11165SOL     OW35648   7.445   3.215   5.185 -0.3569  0.2966 -0.4432
11165SOL    HW135649   7.495   3.220   5.105 -1.4045 -0.1057 -1.1519
11165SOL    HW235650   7.454   3.301   5.226  1.4209  0.0220 -0.2074
11166SOL     OW35651   5.241   6.313   0.240 -0.2353 -0.0244 -0.6344
11166SOL    HW135652   5.221   6.288   0.150  0.6996  2.7740 -1.7043
11166SOL    HW235653   5.245   6.408   0.239  1.2068  0.0513  2.0706
11167SOL     OW35654   4.882   8.240   5.634 -0.0893  0.0991  0.2519
11167SOL    HW135655   4.787   8.242   5.639 -0.1708 -1.6584  0.2346
11167SOL    HW235656   4.911   8.250   5.725 -0.4640 -2.5150  0.7475
11168SOL     OW35657   3.208   5.038   2.673  0.1553 -0.8864  0.1831
11168SOL    HW135658   3.276   5.045   2.741 -0.7708 -1.3958  1.1943
11168SOL    HW235659   3.142   4.980   2.711  0.0879 -2.0432 -1.5894
11169SOL     OW35660   1.127   5.626   4.043  0.0128 -0.6666 -0.2354
11169SOL    HW135661   1.200   5.579   4.084 -0.0274  0.4503  1.1967
11169SOL    HW235662   1.152   5.718   4.048 -1.6082 -0.2272  0.6042
11170SOL     OW35663   2.370   0.120   8.795  0.1879 -0.3175  0.2628
11170SOL    HW135664   2.458   0.097   8.824 -0.1036 -0.4741  1.0648
11170SOL    HW235665   2.352   0.061   8.722  0.7223 -0.3265  0.1340
11171SOL     OW35666   3.286   4.004   3.833  1.1658 -0.0756  0.6400
11171SOL    HW135667   3.312   4.089   3.869 -0.7506  0.4351  0.9573
11171SOL    HW235668   3.225   3.968   3.898  0.2706 -0.6851 -0.5032
11172SOL     OW35669   7.951   8.427   3.982 -0.0898  0.5268 -0.4601
11172SOL    HW135670   7.882   8.469   3.931  1.0925  1.6665 -1.1921
11172SOL    HW235671   7.938   8.333   3.968 -1.5776  0.7073 -0.4385
11173SOL     OW35672   4.821   2.790   5.503  0.2652  0.1743  0.2825
11173SOL    HW135673   4.772   2.799   5.422 -1.1782  0.2076  1.1300
11173SOL    HW235674   4.906   2.830   5.484 -0.3286  0.8910 -0.9666
11174SOL     OW35675   2.886   2.628   3.326  0.2216 -0.1169  0.6815
11174SOL    HW135676   2.837   2.546   3.331  0.7134 -0.3924  1.1224
11174SOL    HW235677   2.842   2.686   3.389 -1.2705  0.5997 -0.9511
11175SOL     OW35678   1.334   6.534   4.560 -0.1151  0.4865  0.1213
11175SOL    HW135679   1.385   6.591   4.617 -0.2532 -0.4560  1.2251
11175SOL    HW235680   1.378   6.449   4.565  1.2396  0.8907 -3.0121
11176SOL     OW35681   8.151   6.082   9.449 -0.1019 -0.4270 -0.1694
11176SOL    HW135682   8.117   6.002   9.488 -0.3610 -0.6781 -0.9016
11176SOL    HW235683   8.179   6.056   9.361  1.4795 -0.1167  0.2012
11177SOL     OW35684   5.514   8.267   4.555  0.1367  0.0018 -0.0246
11177SOL    HW135685   5.582   8.208   4.587 -1.3784 -1.3221  0.8527
11177SOL    HW235686   5.519   8.343   4.614  1.3838  0.2913 -0.4866
11178SOL     OW35687   8.803   1.076   3.581 -0.3930  0.2523 -0.8341
11178SOL    HW135688   8.821   1.110   3.669  0.1200  0.3464 -0.9715
11178SOL    HW235689   8.860   1.000   3.572 -0.2151  0.4215 -1.1941
11179SOL     OW35690   8.592   5.579   7.736  0.2850  0.3802 -0.0777
11179SOL    HW135691   8.567   5.608   7.648  0.7990 -2.0840 -1.1415
11179SOL    HW235692   8.560   5.488   7.740  0.0234  0.5195  2.4181
11180SOL     OW35693   8.327   8.230   8.762 -0.2394 -0.4899  0.0356
11180SOL    HW135694   8.310   8.152   8.816  1.8133 -0.4822  0.7627
11180SOL    HW235695   8.413   8.261   8.790 -0.6420  1.5786 -0.8329
11181SOL     OW35696   3.927   9.189   4.093  0.1172  0.1257  0.2042
11181SOL    HW135697   3.964   9.123   4.034 -0.4292 -2.1516  2.2251
11181SOL    HW235698   3.833   9.190   4.071  0.1170  0.1975  0.2089
11182SOL     OW35699   3.180   2.042   2.212  0.5134  0.6454  0.1885
11182SOL    HW135700   3.189   1.954   2.176 -2.8207  0.4011 -0.3068
11182SOL    HW235701   3.270   2.077   2.213  1.5491 -1.5857 -2.5332
11183SOL     OW35702   0.495   5.441   6.969 -0.1463  0.3948  0.2706
11183SOL    HW135703   0.527   5.413   7.055  1.1479  0.6889 -0.0877
11183SOL    HW235704   0.438   5.515   6.988 -0.2909  0.1330  0.9093
11184SOL     OW35705   8.809   3.755   1.992 -0.5323  0.0533  0.3358
11184SOL    HW135706   8.793   3.795   2.078  0.0780  0.0728  0.4450
11184SOL    HW235707   8.903   3.762   1.980 -0.3170 -1.8984  0.6348
11185SOL     OW35708   5.114   0.508   2.517  0.2234  0.2284 -0.7818
11185SOL    HW135709   5.115   0.454   2.595 -0.3847 -0.3329 -1.1486
11185SOL    HW235710   5.186   0.570   2.529  0.2095  0.0752  0.1599
11186SOL     OW35711   4.639   1.876   6.986 -0.5266  0.3559 -0.1323
11186SOL    HW135712   4.575   1.837   6.926  0.0387  0.8255 -1.0598
11186SOL    HW235713   4.691   1.934   6.932 -0.5832  1.5139  1.0059
11187SOL     OW35714   9.460   0.626   8.274 -0.6054 -0.1031  0.1685
11187SOL    HW135715   9.421   0.633   8.361 -1.7475  0.9301 -0.4032
11187SOL    HW235716   9.427   0.542   8.240 -2.4385  0.7378 -0.3006
11188SOL     OW35717   1.306   1.981   9.042 -0.1240  0.0886 -0.1295
11188SOL    HW135718   1.388   1.985   8.992  0.2684  0.0758  0.5094
11188SOL    HW235719   1.332   1.995   9.133 -0.7544 -0.5667  0.1599
11189SOL     OW35720   8.506   3.290   5.085  0.2029 -0.1639  0.6738
11189SOL    HW135721   8.531   3.264   4.997 -1.3956  0.5443 -0.0328
11189SOL    HW235722   8.574   3.352   5.113 -0.0146  0.7053 -0.6451
11190SOL     OW35723   1.289   3.022   1.736  0.8924  0.5264 -0.4889
11190SOL    HW135724   1.214   3.081   1.732 -1.4786 -2.2649 -0.6173
11190SOL    HW235725   1.343   3.057   1.806 -0.0891  3.0901 -0.9051
11191SOL     OW35726   8.632   9.318   0.819  0.6349 -0.1559  0.7388
11191SOL    HW135727   8.692   9.392   0.825  0.3610  0.3187 -1.6319
11191SOL    HW235728   8.546   9.355   0.840  0.3155  0.5373 -1.5367
11192SOL     OW35729   5.195   0.642   2.218  0.1577 -0.3439 -0.6111
11192SOL    HW135730   5.158   0.663   2.132  0.9875  0.9047 -0.6841
11192SOL    HW235731   5.176   0.549   2.230 -1.0621 -0.2463 -1.5935
11193SOL     OW35732   7.620   4.531   4.306 -0.2060  0.3150 -0.3822
11193SOL    HW135733   7.627   4.587   4.228 -0.8415  0.2158 -0.5158
11193SOL    HW235734   7.530   4.544   4.336  0.0962  0.4969  0.4489
11194SOL     OW35735   3.296   4.250   2.122  0.7868  0.3549 -0.2410
11194SOL    HW135736   3.249   4.296   2.052 -1.9136 -1.8912 -0.1117
11194SOL    HW235737   3.255   4.281   2.203 -0.6801 -1.6634 -0.1222
11195SOL     OW35738   6.789   2.394   8.555  0.6213  0.1655  0.3357
11195SOL    HW135739   6.743   2.450   8.617 -0.4133 -0.0010 -0.2628
11195SOL    HW235740   6.813   2.316   8.605 -0.7370 -0.2319  0.3863
11196SOL     OW35741   5.379   4.162   7.423  0.4133 -0.3357  0.0375
11196SOL    HW135742   5.314   4.227   7.452 -0.4580 -0.7932 -0.8302
11196SOL    HW235743   5.358   4.147   7.331  0.5738 -1.8857  0.2379
11197SOL     OW35744   5.380   6.992   9.182  0.3226 -0.1782  0.0790
11197SOL    HW135745   5.340   7.064   9.231 -1.5442 -0.6007 -0.7670
11197SOL    HW235746   5.322   6.978   9.108  0.6738 -2.5191  0.1816
11198SOL     OW35747   6.280   8.105   9.320 -0.2305  0.0618 -0.0830
11198SOL    HW135748   6.338   8.182   9.314  0.8133 -0.7963 -3.3158
11198SOL    HW235749   6.340   8.031   9.332 -1.2036 -0.4095  2.7224
11199SOL     OW35750   0.280   5.316   8.441  0.1757  0.5781  0.3734
11199SOL    HW135751   0.314   5.334   8.528  0.1540  2.1678  0.0854
11199SOL    HW235752   0.330   5.240   8.410  1.4139  1.0928  1.0756
11200SOL     OW35753   4.581   2.316   5.013 -0.0898 -0.1170 -0.1345
11200SOL    HW135754   4.515   2.280   4.954  0.2629  0.7914 -1.1141
11200SOL    HW235755   4.660   2.324   4.958 -0.1265  2.0371  0.0320
11201SOL     OW35756   7.635   6.456   2.848 -0.3315 -0.0883 -0.5588
11201SOL    HW135757   7.567   6.461   2.916 -0.0866 -2.1182 -0.0846
11201SOL    HW235758   7.613   6.377   2.799  1.1261 -0.2411 -1.0144
11202SOL     OW35759   3.808   1.830   6.771  0.7363 -0.3544 -0.3217
11202SOL    HW135760   3.714   1.811   6.772  1.1169 -2.5570 -0.4971
11202SOL    HW235761   3.815   1.922   6.795 -1.3512 -0.7128  1.9996
11203SOL     OW35762   0.871   1.290   8.011  0.3479 -0.4030 -0.1981
11203SOL    HW135763   0.942   1.345   8.045  0.9404 -0.5139 -1.2021
11203SOL    HW235764   0.832   1.250   8.089  0.2101  1.0566  0.5195
11204SOL     OW35765   7.410   0.007   0.371  0.3790 -0.1633 -0.2228
11204SOL    HW135766   7.378  -0.080   0.346 -1.7212  0.7013 -0.7838
11204SOL    HW235767   7.336   0.066   0.354  1.1111  1.4956  1.7847
11205SOL     OW35768   8.627   5.436   3.328  0.3552  0.0587  0.5099
11205SOL    HW135769   8.631   5.532   3.323  0.5829  0.0612  0.7236
11205SOL    HW235770   8.675   5.414   3.408  0.6425 -0.2607  0.2531
11206SOL     OW35771   5.445   0.992   5.506 -0.2184  1.2352 -0.1346
11206SOL    HW135772   5.437   0.969   5.413  1.8234  1.3178 -0.3829
11206SOL    HW235773   5.534   1.028   5.514  0.2515 -0.2175  2.1311
11207SOL     OW35774   0.028   1.041   7.935  0.0382 -0.0767 -1.0513
11207SOL    HW135775  -0.033   0.979   7.974  0.3697  0.5090  0.4852
11207SOL    HW235776   0.114   1.013   7.966  0.2289  0.9161 -0.6485
11208SOL     OW35777   8.247   3.239   7.129 -0.5482 -0.1590 -0.3752
11208SOL    HW135778   8.188   3.268   7.198  1.5522  2.4132  0.4943
11208SOL    HW235779   8.288   3.160   7.165 -0.7908  0.1299  0.5681
11209SOL     OW35780   9.441   9.049   6.758 -0.2325 -0.2070 -0.3133
11209SOL    HW135781   9.391   9.113   6.708 -0.4237  0.6011  0.8622
11209SOL    HW235782   9.404   9.054   6.847  0.1190 -1.5594 -0.0676
11210SOL     OW35783   7.086   4.993   6.251 -0.1147  0.4892  0.1401
11210SOL    HW135784   7.013   5.032   6.203  1.3805  0.4701 -2.2729
11210SOL    HW235785   7.142   5.068   6.274  0.5972  0.2076 -0.6694
11211SOL     OW35786   6.354   4.524   2.423  0.1477  0.2823  0.4473
11211SOL    HW135787   6.416   4.581   2.378 -0.9097  0.1512 -1.2524
11211SOL    HW235788   6.404   4.444   2.443  0.9116  0.7565  0.4823
11212SOL     OW35789   8.786   1.169   7.554 -0.2081  0.1867  0.2731
11212SOL    HW135790   8.799   1.093   7.497 -0.8227 -0.7847  1.3968
11212SOL    HW235791   8.833   1.148   7.634  1.0595  1.7509  0.0078
11213SOL     OW35792   3.767   9.099   7.635 -0.1151  0.2561 -0.3997
11213SOL    HW135793   3.776   9.028   7.572  0.2085  0.8543 -1.0457
11213SOL    HW235794   3.675   9.095   7.663 -0.7717  1.0421 -2.2477
11214SOL     OW35795   4.706   3.023   7.042  0.6442 -0.5330 -0.0986
11214SOL    HW135796   4.760   3.099   7.066  0.9332 -0.2810 -1.4625
11214SOL    HW235797   4.673   2.991   7.125 -1.1358  2.3205  0.4487
11215SOL     OW35798   8.533   9.039   4.249  0.6472 -0.8022  0.0821
11215SOL    HW135799   8.505   8.957   4.291 -0.1888 -0.5261  0.0809
11215SOL    HW235800   8.528   9.104   4.319  1.8103 -0.8406  0.2162
11216SOL     OW35801   6.683   4.214   7.454 -0.2870 -0.0319  0.2546
11216SOL    HW135802   6.596   4.191   7.488  0.1914 -1.2310  0.7161
11216SOL    HW235803   6.707   4.138   7.400  0.6111  0.1652  0.3782
11217SOL     OW35804   9.080   9.583   6.510  0.3146  0.3485  0.1606
11217SOL    HW135805   9.097   9.675   6.487 -0.3275  0.2743 -0.6311
11217SOL    HW235806   9.130   9.533   6.446  0.3870  0.1367  0.3826
11218SOL     OW35807   6.919   3.175   9.410  0.3187  0.5398  0.7968
11218SOL    HW135808   6.983   3.246   9.407 -0.1839  1.1052  2.4185
11218SOL    HW235809   6.955   3.114   9.475  1.2282 -1.2370 -1.2404
11219SOL     OW35810   3.642   1.434   0.773 -0.4296 -0.3440 -0.1388
11219SOL    HW135811   3.556   1.460   0.739 -0.7796 -0.4814  0.6090
11219SOL    HW235812   3.622   1.364   0.836 -0.1471  1.7810  2.5170
11220SOL     OW35813   5.866   5.507   0.237 -0.0228  0.2735  0.1252
11220SOL    HW135814   5.842   5.539   0.150  1.4885 -1.9633 -1.2154
11220SOL    HW235815   5.932   5.440   0.221  0.5188 -0.0322  3.0444
11221SOL     OW35816   3.708   2.063   4.923  0.4138  0.0636 -0.3009
11221SOL    HW135817   3.695   2.122   4.848  1.0102  2.0701  1.0935
11221SOL    HW235818   3.802   2.045   4.923  0.0774 -2.1485 -1.5260
11222SOL     OW35819   1.265   4.639   2.361  0.1221 -0.2959  0.0418
11222SOL    HW135820   1.275   4.703   2.291 -0.6819  1.8415  1.7669
11222SOL    HW235821   1.172   4.642   2.383 -0.1228 -2.7406 -0.3714
11223SOL     OW35822   1.102   5.674   9.612 -0.3154 -0.4810  0.3195
11223SOL    HW135823   1.106   5.634   9.698 -0.2491 -1.0670  0.0486
11223SOL    HW235824   1.189   5.711   9.599 -0.2049 -0.7286  0.3467
11224SOL     OW35825   1.182   5.143   3.271  0.2078 -0.1757 -0.0449
11224SOL    HW135826   1.098   5.129   3.315 -0.3418  0.0339 -0.9940
11224SOL    HW235827   1.193   5.066   3.216  0.1790  0.2271 -0.6228
11225SOL     OW35828   2.785   4.522   2.988  0.0346 -0.4311  0.2670
11225SOL    HW135829   2.780   4.490   2.898 -2.3629  1.9688 -0.5581
11225SOL    HW235830   2.867   4.572   2.991 -1.4496  2.4171 -1.7807
11226SOL     OW35831   6.709   1.037   8.386  0.5990  0.3462  0.0682
11226SOL    HW135832   6.666   0.954   8.368 -1.3404  1.2203  0.4862
11226SOL    HW235833   6.732   1.072   8.300  0.5139 -0.1473 -0.1521
11227SOL     OW35834   7.413   6.391   4.001 -0.4574 -0.5563  0.0457
11227SOL    HW135835   7.423   6.381   4.096 -2.1960 -1.0827  0.2046
11227SOL    HW235836   7.433   6.483   3.984 -0.8783 -0.2720  1.0334
11228SOL     OW35837   3.126   2.758   0.134 -0.3331  0.3544  0.0717
11228SOL    HW135838   3.046   2.805   0.161 -1.3962 -1.7576  0.7923
11228SOL    HW235839   3.162   2.723   0.215  1.1132  0.8864 -0.3098
11229SOL     OW35840   4.786   5.501   9.224 -0.5039 -0.3536  0.2410
11229SOL    HW135841   4.852   5.501   9.293 -1.0942  0.1963  0.8271
11229SOL    HW235842   4.806   5.424   9.171  0.7342 -0.0760  0.2659
11230SOL     OW35843   8.816   8.934   8.987 -0.3489 -0.2299  0.0595
11230SOL    HW135844   8.804   9.028   9.003 -0.1220 -0.0116 -0.9595
11230SOL    HW235845   8.851   8.900   9.069 -0.3756  0.5903  0.4240
11231SOL     OW35846   1.819   4.630   2.864 -0.7147 -0.0225 -0.1433
11231SOL    HW135847   1.829   4.552   2.809 -2.0171  0.7542 -1.5709
11231SOL    HW235848   1.761   4.602   2.935 -0.0009 -0.7224  0.1742
11232SOL     OW35849   6.647   1.164   2.774  0.8053 -0.1720 -0.0118
11232SOL    HW135850   6.668   1.134   2.686  0.3976  1.2519 -0.6168
11232SOL    HW235851   6.686   1.098   2.832  1.3406 -0.9614 -1.2408
11233SOL     OW35852   3.378   0.318   1.567  0.2217 -0.2672  0.2975
11233SOL    HW135853   3.318   0.365   1.510 -1.0341 -1.5660  0.4836
11233SOL    HW235854   3.463   0.322   1.522 -0.2605  0.6017 -0.5512
11234SOL     OW35855   2.480   7.219   9.531 -0.9257 -0.1285 -0.1502
11234SOL    HW135856   2.402   7.262   9.497 -1.1823  1.2889  2.0260
11234SOL    HW235857   2.455   7.128   9.543 -2.7970  0.5738  1.8704
11235SOL     OW35858   8.241   8.905   8.931 -0.6014 -0.1900 -0.2231
11235SOL    HW135859   8.326   8.890   8.973 -0.9605 -0.3553  0.4697
11235SOL    HW235860   8.179   8.904   9.004 -1.6136 -3.1993 -0.9729
11236SOL     OW35861   0.887   8.134   3.356  0.1697  0.4927  0.5730
11236SOL    HW135862   0.846   8.057   3.316 -0.5752  0.8134  0.6989
11236SOL    HW235863   0.940   8.098   3.427  2.8085 -0.2476 -1.6299
11237SOL     OW35864   7.513   6.949   0.101  0.0281  0.0743 -0.1240
11237SOL    HW135865   7.513   6.923   0.009  0.7783  1.6878 -0.6166
11237SOL    HW235866   7.573   6.888   0.143 -2.4447 -2.5486 -0.0573
11238SOL     OW35867   7.182   4.850   2.674 -0.2650 -0.0630  0.0659
11238SOL    HW135868   7.236   4.896   2.610 -2.0507 -0.8691 -2.1513
11238SOL    HW235869   7.209   4.758   2.667 -0.7061 -0.2076  0.1952
11239SOL     OW35870   1.068   8.396   3.866 -0.1236 -0.0956 -0.4139
11239SOL    HW135871   1.070   8.304   3.890 -0.3180 -0.1499 -0.5975
11239SOL    HW235872   1.021   8.398   3.782 -0.0139  0.1550 -0.4711
11240SOL     OW35873   7.124   7.914   5.046 -0.5342 -0.5386 -0.5603
11240SOL    HW135874   7.138   7.824   5.077 -0.7254 -0.2997  0.2341
11240SOL    HW235875   7.210   7.941   5.013 -0.2664 -0.7143 -0.0130
11241SOL     OW35876   0.375   0.461   2.621 -0.2903 -0.0892 -0.4370
11241SOL    HW135877   0.441   0.487   2.556  0.2549 -0.9362 -0.2274
11241SOL    HW235878   0.418   0.395   2.674 -0.4528  1.1599  1.3247
11242SOL     OW35879   2.712   4.720   5.969 -0.2794 -0.3492  0.4248
11242SOL    HW135880   2.720   4.625   5.963 -0.0397 -0.2605 -1.2572
11242SOL    HW235881   2.802   4.752   5.962 -0.4820  0.0346 -0.6329
11243SOL     OW35882   4.948   0.177   7.996 -0.8576  0.1174 -0.2973
11243SOL    HW135883   4.983   0.198   7.909 -0.1383  0.5222  0.0751
11243SOL    HW235884   4.887   0.248   8.015 -0.6815  0.2722 -0.2965
11244SOL     OW35885   8.589   4.833   6.553  0.0075 -0.3045 -0.6041
11244SOL    HW135886   8.546   4.904   6.506  0.1513 -0.1785 -0.5473
11244SOL    HW235887   8.525   4.762   6.554 -0.6621  0.2809  0.5025
11245SOL     OW35888   5.666   6.087   1.867 -0.4463 -0.3292 -0.2612
11245SOL    HW135889   5.678   6.169   1.818  0.7568 -0.0777  0.4075
11245SOL    HW235890   5.579   6.094   1.904 -0.7770  0.1711 -1.0911
11246SOL     OW35891   4.942   9.233   2.263 -0.1445 -0.6694 -0.0146
11246SOL    HW135892   4.876   9.167   2.242  0.8155 -1.9999  0.9531
11246SOL    HW235893   4.902   9.316   2.238 -1.6588 -1.5477 -0.6507
11247SOL     OW35894   8.413   6.561   5.241  0.6463  0.1479  0.2574
11247SOL    HW135895   8.412   6.657   5.240  0.9284  0.1512 -0.4943
11247SOL    HW235896   8.404   6.536   5.149  2.1894 -0.5121  0.2488
11248SOL     OW35897   4.873   9.220   3.524 -0.4256 -0.2425  0.1866
11248SOL    HW135898   4.893   9.192   3.435 -0.6243  0.2136 -0.0043
11248SOL    HW235899   4.936   9.174   3.579  1.3976  1.4043 -0.4163
11249SOL     OW35900   6.614   7.468   7.061  0.1975  0.2592  0.2138
11249SOL    HW135901   6.618   7.511   6.976  0.3783  0.4450  0.3159
11249SOL    HW235902   6.523   7.441   7.071  0.4435 -0.9511 -0.6274
11250SOL     OW35903   4.171   8.462   2.615  0.2639  0.1955  0.4268
11250SOL    HW135904   4.214   8.410   2.683  1.4916 -1.0258 -1.2009
11250SOL    HW235905   4.221   8.543   2.612  1.5364 -0.5938 -0.4017
11251SOL     OW35906   8.680   6.339   8.647  0.2164  0.2711  0.7244
11251SOL    HW135907   8.673   6.422   8.600  1.4660  0.0805  0.1587
11251SOL    HW235908   8.705   6.276   8.580  0.8410 -0.2477  1.4286
11252SOL     OW35909   1.804   5.113   0.454 -0.1313  0.5039 -0.2346
11252SOL    HW135910   1.868   5.047   0.428  0.0117  0.5311  0.0445
11252SOL    HW235911   1.787   5.163   0.374  0.6928  0.9113 -0.1628
11253SOL     OW35912   7.724   2.314   5.780 -0.2067 -0.4698  0.3222
11253SOL    HW135913   7.708   2.298   5.687  1.0134 -0.1797  0.0475
11253SOL    HW235914   7.740   2.227   5.816  2.8962 -0.3214 -0.4746
11254SOL     OW35915   4.859   6.521   6.496  0.2047 -0.0032  0.6226
11254SOL    HW135916   4.839   6.613   6.480  1.9601  0.1619 -0.9947
11254SOL    HW235917   4.799   6.472   6.439 -0.7131  0.1211  1.4666
11255SOL     OW35918   9.474   2.847   2.691 -0.2157 -0.3593  0.0353
11255SOL    HW135919   9.507   2.931   2.723 -1.0268  0.5549 -1.3933
11255SOL    HW235920   9.387   2.868   2.657 -1.2809 -2.1983  1.4440
11256SOL     OW35921   4.064   2.987   9.589  0.4428  0.4796 -0.0068
11256SOL    HW135922   4.097   2.922   9.651  1.0090  0.5195 -0.2622
11256SOL    HW235923   4.000   2.939   9.535  2.0948 -0.3364 -1.3291
11257SOL     OW35924   8.707   5.522   2.503  0.4394  0.1443  0.0993
11257SOL    HW135925   8.625   5.570   2.493  0.1130 -0.4723 -0.3177
11257SOL    HW235926   8.746   5.523   2.415 -0.0712 -1.1891 -0.1772
11258SOL     OW35927   3.027   5.538   1.810  0.2219 -0.0514 -0.0491
11258SOL    HW135928   3.094   5.505   1.750  0.8515  0.2930  0.4655
11258SOL    HW235929   2.948   5.488   1.787  1.1348 -1.9425  0.7092
11259SOL     OW35930   5.594   9.593   0.281  0.3743  0.2762 -0.1973
11259SOL    HW135931   5.547   9.677   0.280 -0.3114 -0.0423  1.4776
11259SOL    HW235932   5.625   9.582   0.192 -0.1708  1.9561 -0.6339
11260SOL     OW35933   0.127   7.551   8.788  0.1080 -0.1878  0.3631
11260SOL    HW135934   0.201   7.566   8.847 -0.3545  0.0727  0.8982
11260SOL    HW235935   0.120   7.632   8.737  0.9215 -0.6643 -0.5397
11261SOL     OW35936   1.784   6.751   3.535 -0.3939  0.0943 -0.0453
11261SOL    HW135937   1.833   6.747   3.453 -0.4781  0.7526 -0.1340
11261SOL    HW235938   1.695   6.726   3.511 -0.2286 -0.5858  0.0189
11262SOL     OW35939   5.987   5.603   4.402 -0.0416 -0.3516 -0.3210
11262SOL    HW135940   6.000   5.635   4.312 -1.0703  2.6145  0.4908
11262SOL    HW235941   5.918   5.538   4.394 -1.9045  1.6142 -1.4759
11263SOL     OW35942   0.203   9.458   1.171 -0.1692  0.2120  0.3820
11263SOL    HW135943   0.136   9.493   1.229 -3.1564 -0.2427 -2.4535
11263SOL    HW235944   0.215   9.527   1.105 -0.2440 -0.9437 -0.8869
11264SOL     OW35945   4.422   8.993   4.704  0.1406  0.8184  0.5815
11264SOL    HW135946   4.466   9.050   4.642  0.6163 -0.3682 -0.1920
11264SOL    HW235947   4.392   9.053   4.774 -1.4329  2.3588 -1.2847
11265SOL     OW35948   8.385   4.831   6.794  0.3864  0.0123  0.3762
11265SOL    HW135949   8.302   4.877   6.784  0.4522  0.0361 -0.0731
11265SOL    HW235950   8.450   4.889   6.754  0.5198 -0.3143  0.1124
11266SOL     OW35951   7.041   2.268   8.895  0.7890  0.4323 -0.1799
11266SOL    HW135952   7.020   2.270   8.988 -0.1236  0.5732 -0.3792
11266SOL    HW235953   7.032   2.359   8.866  1.2383  0.4209 -0.3761
11267SOL     OW35954   7.849   4.803   5.221  0.2064 -0.1391 -0.1503
11267SOL    HW135955   7.941   4.777   5.215 -0.2775 -1.8083 -1.1287
11267SOL    HW235956   7.840   4.873   5.157  0.8381  0.1777  0.0962
11268SOL     OW35957   2.643   2.018   7.932  0.6036 -0.0483 -0.4454
11268SOL    HW135958   2.714   2.018   7.867 -0.2707  0.4569 -1.4359
11268SOL    HW235959   2.649   2.104   7.973 -0.0987  0.4258 -1.3040
11269SOL     OW35960   0.213   3.640   6.536 -0.3312 -0.5761 -0.5859
11269SOL    HW135961   0.246   3.704   6.473  1.8877 -0.2741  0.7817
11269SOL    HW235962   0.125   3.619   6.505 -0.0707  1.0413 -2.6290
11270SOL     OW35963   2.457   9.032   4.918 -0.2709  0.2581 -0.2466
11270SOL    HW135964   2.528   9.020   4.855  0.3496  0.0243  0.4972
11270SOL    HW235965   2.382   9.059   4.864  0.0792 -0.5626 -1.1679
11271SOL     OW35966   8.654   7.802   3.765  0.5031  0.3001 -0.0814
11271SOL    HW135967   8.597   7.805   3.842 -0.1010 -2.0777 -0.3627
11271SOL    HW235968   8.739   7.834   3.797  0.2782 -0.6606  1.5952
11272SOL     OW35969   4.800   2.852   8.823  0.0908  0.5681 -0.1851
11272SOL    HW135970   4.829   2.762   8.805 -0.4135  0.3527  0.0592
11272SOL    HW235971   4.792   2.892   8.737 -1.8024 -0.2925 -0.4458
11273SOL     OW35972   1.230   0.192   4.489  0.2712  0.0415 -0.1859
11273SOL    HW135973   1.255   0.109   4.530  2.0338 -0.1088 -1.4330
11273SOL    HW235974   1.298   0.254   4.516 -1.4035  1.3102  1.3040
11274SOL     OW35975   9.438   7.078   0.670 -0.1684 -0.1616 -0.0202
11274SOL    HW135976   9.354   7.033   0.662 -1.1436  1.0775  2.2893
11274SOL    HW235977   9.500   7.009   0.693 -1.0450 -0.7745  0.5625
11275SOL     OW35978   1.794   2.885   9.265 -0.1273  0.4354  0.5468
11275SOL    HW135979   1.817   2.821   9.333  0.1493 -0.6267 -0.5058
11275SOL    HW235980   1.850   2.961   9.283 -2.1796  1.4542  3.2968
11276SOL     OW35981   2.855   0.834   7.064  0.1303  0.8532 -0.5712
11276SOL    HW135982   2.881   0.823   7.156  0.1036 -0.0035 -0.6614
11276SOL    HW235983   2.924   0.791   7.014 -0.5461  0.1208 -0.8905
11277SOL     OW35984   0.926   2.384   4.745 -0.1261  0.2174 -0.3746
11277SOL    HW135985   1.018   2.383   4.773 -0.0790  0.2817 -0.5268
11277SOL    HW235986   0.878   2.346   4.819 -0.1870  1.8231  0.4642
11278SOL     OW35987   6.431   8.025   7.094 -0.3437  0.1545  0.3297
11278SOL    HW135988   6.344   7.987   7.083  0.2848 -1.0507 -0.8072
11278SOL    HW235989   6.482   7.957   7.138  0.6846 -0.2157 -1.3393
11279SOL     OW35990   2.604   0.910   8.600 -0.2789 -0.5382 -0.1018
11279SOL    HW135991   2.684   0.891   8.551  0.3903  0.2004  0.6876
11279SOL    HW235992   2.580   0.998   8.574 -0.8846 -0.7792 -0.3813
11280SOL     OW35993   7.046   7.079   2.205  0.2363  0.1701 -0.0608
11280SOL    HW135994   7.072   6.989   2.224  0.0907  0.2541  0.5633
11280SOL    HW235995   7.113   7.111   2.146  0.1731 -0.4169 -0.4641
11281SOL     OW35996   8.839   4.009   2.163 -0.3621 -0.2927  0.2497
11281SOL    HW135997   8.874   4.095   2.187 -0.3137 -0.0915 -0.5046
11281SOL    HW235998   8.763   4.028   2.108  0.3122 -0.7092 -0.8730
11282SOL     OW35999   7.624   7.221   2.513  0.1236  0.0852 -0.1007
11282SOL    HW136000   7.593   7.163   2.443 -2.0695  0.1801  0.7113
11282SOL    HW236001   7.718   7.204   2.519 -0.1271 -1.9512 -1.1955
11283SOL     OW36002   7.457   2.071   2.274 -0.2899 -0.0661 -0.5144
11283SOL    HW136003   7.410   2.097   2.194  1.0992  1.1296 -0.9857
11283SOL    HW236004   7.501   1.990   2.251 -2.1548 -1.2749 -0.0291
11284SOL     OW36005   3.076   8.176   5.752 -0.6892 -0.6857  0.3210
11284SOL    HW136006   3.114   8.115   5.689 -0.8493 -1.0927  0.6084
11284SOL    HW236007   3.147   8.196   5.812 -0.4812 -0.1369 -0.1040
11285SOL     OW36008   7.991   5.494   7.487 -0.1240 -0.0126 -0.0434
11285SOL    HW136009   8.080   5.457   7.486  0.2166  0.6754  1.3400
11285SOL    HW236010   7.949   5.458   7.409  1.6671  0.3764 -1.2626
11286SOL     OW36011   7.865   8.559   2.395 -0.4801  0.6881  0.2154
11286SOL    HW136012   7.864   8.636   2.339 -1.1675  1.0718  0.7469
11286SOL    HW236013   7.957   8.530   2.394 -0.9003 -1.0867 -3.4514
11287SOL     OW36014   4.828   8.554   8.554 -0.2083  0.1370  0.1329
11287SOL    HW136015   4.784   8.484   8.506 -1.9532  2.5454 -2.1096
11287SOL    HW236016   4.890   8.590   8.490  1.2326  0.1690  1.5073
11288SOL     OW36017   9.172   8.485   2.642  0.1709 -0.4186 -0.0809
11288SOL    HW136018   9.236   8.555   2.654  0.5214 -0.8355  0.5912
11288SOL    HW236019   9.112   8.518   2.576 -0.4580  1.0818  1.1737
11289SOL     OW36020   1.858   7.456   8.999 -0.6144 -0.2866  0.0918
11289SOL    HW136021   1.888   7.379   9.046  1.6381 -0.1098 -0.9118
11289SOL    HW236022   1.786   7.425   8.944 -2.6755 -0.6755  2.8183
11290SOL     OW36023   3.785   6.675   8.198 -0.0925 -0.2033 -0.1924
11290SOL    HW136024   3.746   6.640   8.118  0.4293 -1.3700  0.0416
11290SOL    HW236025   3.799   6.598   8.253 -1.3309  0.6809  1.4278
11291SOL     OW36026   9.568   1.491   2.244 -0.3886 -0.3673 -0.6332
11291SOL    HW136027   9.511   1.497   2.167 -1.5836  0.8930  0.2944
11291SOL    HW236028   9.508   1.484   2.318  0.7463 -1.9158  0.1845
11292SOL     OW36029   1.009   0.461   3.393 -0.1761  0.0645 -0.4533
11292SOL    HW136030   0.933   0.520   3.390 -0.0291  0.2821 -0.0901
11292SOL    HW236031   0.979   0.386   3.444  0.4695  1.1188  1.6360
11293SOL     OW36032   2.964   4.050   0.279 -0.0169  0.9195 -0.2578
11293SOL    HW136033   3.024   4.114   0.242 -0.8490  2.0966  0.3951
11293SOL    HW236034   3.017   4.002   0.342  0.9056  0.1687 -1.5488
11294SOL     OW36035   7.793   6.234   4.589  0.0773 -0.1053  0.6336
11294SOL    HW136036   7.870   6.187   4.557 -1.5151 -1.5392 -1.4725
11294SOL    HW236037   7.786   6.209   4.681  0.0819 -3.0394 -0.0518
11295SOL     OW36038   7.208   8.646   2.179  0.0462 -0.1889 -0.0332
11295SOL    HW136039   7.201   8.554   2.205 -0.1347 -0.4464 -0.9798
11295SOL    HW236040   7.174   8.649   2.090  0.9317  0.6355 -0.3634
11296SOL     OW36041   8.836   2.880   7.847  0.3312 -0.4251 -0.1804
11296SOL    HW136042   8.775   2.854   7.778 -1.3267  0.0940  1.0221
11296SOL    HW236043   8.844   2.975   7.837 -1.3486 -0.0491  1.3486
11297SOL     OW36044   1.748   4.679   7.718  0.6391 -0.8017 -0.0768
11297SOL    HW136045   1.749   4.687   7.622  1.7937  0.6243  0.0181
11297SOL    HW236046   1.657   4.659   7.739  0.0363  0.3482 -1.3830
11298SOL     OW36047   1.400   0.619   6.498 -0.1132  0.7532  0.7137
11298SOL    HW136048   1.355   0.565   6.562  0.1742  1.4965  1.5631
11298SOL    HW236049   1.350   0.701   6.497 -1.1058  0.1814 -1.2342
11299SOL     OW36050   9.120   7.846   0.620  0.4445 -0.6210 -0.2810
11299SOL    HW136051   9.082   7.763   0.649  2.4620 -0.7569  2.2943
11299SOL    HW236052   9.215   7.834   0.630  0.8299  1.7015 -0.6312
11300SOL     OW36053   1.619   0.004   2.743 -0.2557 -0.2731  0.2627
11300SOL    HW136054   1.621  -0.044   2.660 -2.0745  1.9011 -1.1688
11300SOL    HW236055   1.598  -0.061   2.809 -1.1474 -1.6814 -1.3496
11301SOL     OW36056   6.905   5.017   2.626 -0.0724  0.3020 -0.1827
11301SOL    HW136057   6.894   5.072   2.548 -3.4747  0.3007  0.1553
11301SOL    HW236058   6.816   4.992   2.651  0.9442 -0.4761  3.1897
11302SOL     OW36059   4.835   6.941   1.280 -0.0193 -0.2587 -0.2957
11302SOL    HW136060   4.854   6.918   1.371  0.9006 -0.3930 -0.5194
11302SOL    HW236061   4.888   6.882   1.228 -0.2768  0.0508 -0.9243
11303SOL     OW36062   4.799   3.115   7.784  0.4202 -0.3927 -0.0784
11303SOL    HW136063   4.828   3.162   7.863 -1.0084  0.6246 -0.1015
11303SOL    HW236064   4.824   3.173   7.712  0.6569 -0.7483 -0.2805
11304SOL     OW36065   2.301   7.492   1.158  0.4648  0.4145  0.1671
11304SOL    HW136066   2.346   7.569   1.124  2.5811 -0.3603  1.0068
11304SOL    HW236067   2.363   7.420   1.143 -0.7450 -0.8387  0.9238
11305SOL     OW36068   6.452   0.967   1.661 -0.0745 -0.3954 -0.0974
11305SOL    HW136069   6.422   0.987   1.572 -0.7588 -1.3518 -0.0974
11305SOL    HW236070   6.543   0.998   1.663 -0.7419  1.7117 -0.3973
11306SOL     OW36071   5.664   8.287   3.321  0.0455 -0.5267 -0.4465
11306SOL    HW136072   5.579   8.282   3.278 -0.9904  0.5952  1.3761
11306SOL    HW236073   5.660   8.225   3.393  0.5408 -0.0492  0.0102
11307SOL     OW36074   6.822   1.925   8.159  0.1051  0.0120  0.1685
11307SOL    HW136075   6.734   1.903   8.189  0.3584  1.4250  2.0935
11307SOL    HW236076   6.858   1.842   8.128 -1.4678 -0.8155  0.4749
11308SOL     OW36077   6.446   2.520   7.987  0.3912 -0.3768  0.0237
11308SOL    HW136078   6.402   2.515   7.902  0.8843 -0.3639 -0.2334
11308SOL    HW236079   6.482   2.609   7.990 -0.4128 -0.0571  0.6425
11309SOL     OW36080   3.888   8.096   6.143  0.2360 -0.2330 -0.0734
11309SOL    HW136081   3.940   8.030   6.097  1.1989  0.7590 -0.4836
11309SOL    HW236082   3.875   8.165   6.078 -3.0644 -1.1102 -0.5136
11310SOL     OW36083   0.861   2.937   3.800  0.2946  0.2637 -0.4160
11310SOL    HW136084   0.906   2.873   3.855  2.4810  0.2939 -2.0185
11310SOL    HW236085   0.857   3.016   3.853  1.6297  0.0662  0.0230
11311SOL     OW36086   0.170   9.510   2.404  0.8580  0.3568  0.7989
11311SOL    HW136087   0.237   9.500   2.337  0.6518 -1.6359  0.8421
11311SOL    HW236088   0.141   9.421   2.424 -0.9676  1.0734  1.6349
11312SOL     OW36089   8.950   7.682   3.927  0.6540 -0.0243  0.0701
11312SOL    HW136090   9.044   7.677   3.942  0.4427  0.7593  1.8696
11312SOL    HW236091   8.936   7.770   3.893  0.4765  0.1173  0.5157
11313SOL     OW36092   1.621   0.200   7.425 -0.3684 -0.5059  0.1491
11313SOL    HW136093   1.558   0.267   7.399 -0.2492  0.2788  1.7262
11313SOL    HW236094   1.571   0.143   7.484  0.0873 -0.5217  0.5285
11314SOL     OW36095   7.259   1.251   0.377 -0.5415 -0.0349 -0.0556
11314SOL    HW136096   7.171   1.278   0.404 -0.7182 -1.3104  0.7027
11314SOL    HW236097   7.246   1.215   0.289 -0.6851  0.1863 -0.1283
11315SOL     OW36098   6.993   0.137   5.630 -0.0750  0.2966 -0.6004
11315SOL    HW136099   7.047   0.085   5.690  0.3271  0.7199 -0.5861
11315SOL    HW236100   7.024   0.227   5.642 -0.0239  0.3918 -1.4109
11316SOL     OW36101   4.328   3.186   0.153  0.1226  0.2186 -0.2685
11316SOL    HW136102   4.305   3.246   0.224  1.1747  2.4230 -1.6656
11316SOL    HW236103   4.270   3.211   0.081  2.1780  1.2876 -1.6441
11317SOL     OW36104   6.035   7.639   5.876  0.2068  0.3792  0.2012
11317SOL    HW136105   6.010   7.700   5.806  1.9600  0.5218 -0.3599
11317SOL    HW236106   6.079   7.694   5.941  0.3883 -0.0416  0.4398
11318SOL     OW36107   8.359   8.981   8.419  0.1589 -0.4934 -0.2980
11318SOL    HW136108   8.362   8.920   8.346 -0.9290  1.1018 -1.7329
11318SOL    HW236109   8.327   8.928   8.493 -0.5131 -1.7062 -1.4158
11319SOL     OW36110   2.209   5.392   9.521 -0.0889 -0.4502  0.2659
11319SOL    HW136111   2.230   5.309   9.479 -0.3810 -0.5818  0.3770
11319SOL    HW236112   2.222   5.376   9.615 -1.4594 -0.7763  0.4109
11320SOL     OW36113   4.026   0.085   5.528  0.5411  0.2683  0.3529
11320SOL    HW136114   4.087   0.020   5.564 -0.7910 -0.6344  1.1041
11320SOL    HW236115   4.033   0.160   5.587  0.2672 -0.1952  0.9879
11321SOL     OW36116   4.251   8.179   6.056 -0.1157  0.1859 -0.1812
11321SOL    HW136117   4.320   8.113   6.050 -0.0195  0.0993  1.3946
11321SOL    HW236118   4.183   8.149   5.995  0.4188 -0.7508 -0.3341
11322SOL     OW36119   5.565   2.718   7.908  0.0734  0.3183  0.3377
11322SOL    HW136120   5.621   2.641   7.907  0.7091  0.7772  0.0570
11322SOL    HW236121   5.506   2.703   7.983  1.1945  0.2636  1.2424
11323SOL     OW36122   1.134   5.279   3.638  0.3843 -0.0327  0.4424
11323SOL    HW136123   1.045   5.266   3.668 -0.5961  0.2103 -2.1374
11323SOL    HW236124   1.148   5.374   3.645  0.1677  0.0212  0.1488
11324SOL     OW36125   4.001   5.677   1.570  0.4020  0.3840 -0.0137
11324SOL    HW136126   4.048   5.624   1.506 -0.6568  0.4634 -0.8906
11324SOL    HW236127   4.044   5.763   1.567  0.3829  0.3759 -0.6047
11325SOL     OW36128   4.632   2.302   4.251 -0.4082  0.0372  0.0726
11325SOL    HW136129   4.596   2.378   4.297 -0.4445  0.5000 -0.7089
11325SOL    HW236130   4.610   2.317   4.159  0.9734 -0.1210 -0.3100
11326SOL     OW36131   6.586   3.387   1.319 -0.2302 -0.0668  0.4102
11326SOL    HW136132   6.572   3.465   1.374  0.0786  0.3190 -0.0528
11326SOL    HW236133   6.665   3.407   1.268 -1.4227  0.2749 -1.3831
11327SOL     OW36134   6.742   1.433   6.459 -0.8553 -0.1787  0.4143
11327SOL    HW136135   6.812   1.460   6.519 -1.6801 -0.5824  1.5945
11327SOL    HW236136   6.765   1.475   6.376 -0.9399  2.4441  1.5877
11328SOL     OW36137   3.787   0.071   8.958 -0.0435  0.2289 -0.6237
11328SOL    HW136138   3.853   0.139   8.943  0.1601  0.3587  0.7219
11328SOL    HW236139   3.732   0.106   9.028  0.8836 -1.5142  1.0713
11329SOL     OW36140   3.987   1.184   4.972 -0.2384 -0.7932 -0.4918
11329SOL    HW136141   4.069   1.188   4.923  0.1008 -1.3075  0.0248
11329SOL    HW236142   3.981   1.267   5.018 -0.3147 -0.5078 -1.0057
11330SOL     OW36143   7.706   8.327   9.580  0.7544 -0.0718  0.0225
11330SOL    HW136144   7.638   8.372   9.630 -1.0047 -0.3262 -1.9906
11330SOL    HW236145   7.697   8.235   9.603  2.2616  0.1693  1.7658
11331SOL     OW36146   7.876   1.274   7.045 -0.3140 -0.2777  0.1167
11331SOL    HW136147   7.862   1.365   7.073  0.1981 -0.1970  0.1223
11331SOL    HW236148   7.919   1.282   6.960 -0.5583 -0.5181 -0.0285
11332SOL     OW36149   7.688   0.438   5.730  0.3116  0.1734 -0.1112
11332SOL    HW136150   7.774   0.408   5.701 -0.2594 -1.1083 -0.5539
11332SOL    HW236151   7.706   0.522   5.774  1.6664  0.3298 -0.8895
11333SOL     OW36152   6.387   3.755   8.066 -0.1833  0.1630  0.1390
11333SOL    HW136153   6.467   3.791   8.105  0.3093 -0.1579 -0.5511
11333SOL    HW236154   6.362   3.819   8.000  0.8734 -0.8544 -1.3151
11334SOL     OW36155   9.495   0.237   9.315  0.8812 -0.2525 -0.2364
11334SOL    HW136156   9.404   0.268   9.312  0.7916 -0.5334 -0.4722
11334SOL    HW236157   9.533   0.283   9.390  0.2895 -0.8249  0.4360
11335SOL     OW36158   2.042   8.270   1.477 -0.2486 -0.1419 -0.3978
11335SOL    HW136159   2.054   8.177   1.458  0.6798 -0.2245  0.5425
11335SOL    HW236160   2.127   8.309   1.457  0.9028 -0.2493  3.4918
11336SOL     OW36161   5.976   0.264   2.413 -0.0513 -0.2538  0.1095
11336SOL    HW136162   5.952   0.340   2.359  2.3006 -1.0441 -2.2942
11336SOL    HW236163   5.894   0.217   2.425 -1.3074  1.8815  0.4192
11337SOL     OW36164   5.596   7.892   2.911 -0.0192  0.8414  0.2705
11337SOL    HW136165   5.521   7.871   2.966 -0.8156 -0.1994 -1.1529
11337SOL    HW236166   5.665   7.834   2.942 -0.6810 -0.2763 -0.2748
11338SOL     OW36167   0.969   2.565   5.687 -0.4587  0.0407  0.4885
11338SOL    HW136168   1.019   2.618   5.749  0.7403  0.4465 -0.7577
11338SOL    HW236169   1.010   2.583   5.602 -1.1489 -1.5530 -0.2238
11339SOL     OW36170   2.646   0.668   7.048  0.3774 -0.3259 -0.2398
11339SOL    HW136171   2.583   0.703   6.985  0.5784  0.5625  0.0393
11339SOL    HW236172   2.718   0.731   7.047  1.7844 -1.8714 -1.3697
11340SOL     OW36173   2.059   7.105   4.293 -0.7149 -0.2899  0.3157
11340SOL    HW136174   2.145   7.084   4.255 -0.2382  1.9116  0.0605
11340SOL    HW236175   2.004   7.123   4.217 -1.0910 -0.5794  0.5202
11341SOL     OW36176   8.311   8.399   5.433 -0.5417 -0.1366  0.1327
11341SOL    HW136177   8.217   8.398   5.455 -0.2914 -0.9071  1.2118
11341SOL    HW236178   8.348   8.466   5.490 -0.4994  0.5071 -0.6330
11342SOL     OW36179   7.214   9.020   1.244  0.5492 -0.3364 -0.0507
11342SOL    HW136180   7.169   8.938   1.225 -2.7123  0.5714  2.6758
11342SOL    HW236181   7.181   9.081   1.177  3.6672 -1.2508 -2.6467
11343SOL     OW36182   8.868   7.593   1.529 -0.6153  0.1117  0.3319
11343SOL    HW136183   8.794   7.624   1.476 -1.4381  0.2431  1.5088
11343SOL    HW236184   8.872   7.654   1.602  0.8049  0.2155  0.1861
11344SOL     OW36185   3.705   3.178   0.065  0.4239 -0.1814 -0.3941
11344SOL    HW136186   3.695   3.098   0.013  1.0692  0.1005 -0.9678
11344SOL    HW236187   3.776   3.226   0.022 -1.1249  1.5592 -1.1488
11345SOL     OW36188   7.867   0.762   4.320  0.4656  0.0668  0.1704
11345SOL    HW136189   7.848   0.855   4.307 -0.9862 -0.0453  1.1920
11345SOL    HW236190   7.910   0.758   4.405  0.6991 -0.1845  0.0432
11346SOL     OW36191   9.212   1.896   3.067 -0.1415  0.3759  0.0841
11346SOL    HW136192   9.274   1.903   2.994  0.6724 -1.4946  0.5310
11346SOL    HW236193   9.135   1.853   3.029 -0.0476  0.1595  0.1359
11347SOL     OW36194   1.178   9.546   0.353  0.0114 -0.3096 -0.4405
11347SOL    HW136195   1.218   9.578   0.433  0.7978 -0.0212 -0.9286
11347SOL    HW236196   1.218   9.599   0.284 -0.7888 -0.4274 -1.0002
11348SOL     OW36197   2.193   8.432   9.570  0.3052 -0.5568 -0.1691
11348SOL    HW136198   2.120   8.488   9.544  1.0176 -0.5468 -2.3627
11348SOL    HW236199   2.205   8.450   9.663 -0.6541  1.5720 -0.3875
11349SOL     OW36200   9.253   3.880   1.035  0.0733 -0.4818  0.0744
11349SOL    HW136201   9.194   3.830   1.091  0.1930  2.5095  3.2015
11349SOL    HW236202   9.338   3.875   1.078  0.4226  1.0849 -0.3616
11350SOL     OW36203   1.034   2.926   5.009 -0.0714  0.5065 -0.5964
11350SOL    HW136204   0.958   2.984   5.010 -0.3517  0.2818 -2.9800
11350SOL    HW236205   0.997   2.838   4.999  0.4227  0.0837  1.0968
11351SOL     OW36206   9.149   2.267   0.131  0.3087 -0.2700 -0.8451
11351SOL    HW136207   9.164   2.361   0.138 -1.6010  0.0065  0.0664
11351SOL    HW236208   9.147   2.236   0.222 -1.4964 -0.7342 -1.0069
11352SOL     OW36209   8.313   1.904   2.270 -0.2905  1.0274 -0.4584
11352SOL    HW136210   8.340   1.860   2.189 -2.6557 -0.2752 -0.6643
11352SOL    HW236211   8.277   1.988   2.241  0.2784  1.2332 -0.5728
11353SOL     OW36212   2.083   7.033   0.796  0.1857 -0.8074  0.7568
11353SOL    HW136213   2.133   7.113   0.813 -0.2541  0.1387 -1.9080
11353SOL    HW236214   2.139   6.962   0.829  1.0406  0.4915  2.2564
11354SOL     OW36215   4.741   4.361   8.169 -0.5154 -0.9205 -0.4482
11354SOL    HW136216   4.802   4.337   8.100 -0.3185  0.7829 -0.9215
11354SOL    HW236217   4.796   4.374   8.247 -0.8650 -3.9927  0.4248
11355SOL     OW36218   7.064   7.544   0.997  0.0025  0.1261  0.1649
11355SOL    HW136219   7.000   7.523   1.064 -1.4757  0.9256 -0.9293
11355SOL    HW236220   7.019   7.525   0.914  0.3553  2.6431 -0.7151
11356SOL     OW36221   7.255   5.272   8.177  0.2612  0.2099  0.0391
11356SOL    HW136222   7.207   5.316   8.247 -0.2708 -0.8496  0.3617
11356SOL    HW236223   7.347   5.281   8.201  0.0491 -1.0285  1.4434
11357SOL     OW36224   4.975   7.416   7.709  0.1739  0.4619  0.6606
11357SOL    HW136225   4.961   7.498   7.662  0.3039  1.4636  2.3076
11357SOL    HW236226   4.889   7.392   7.743  0.0585 -0.3237 -0.1276
11358SOL     OW36227   2.415   6.725   6.867  0.1893  0.8511  0.6316
11358SOL    HW136228   2.426   6.767   6.782  1.4110  0.5572  0.6125
11358SOL    HW236229   2.466   6.779   6.927 -0.1947  0.7367  1.0689
11359SOL     OW36230   8.556   9.163   8.376  0.2900  0.3498 -0.1826
11359SOL    HW136231   8.484   9.099   8.376  1.1317 -0.6294  0.5087
11359SOL    HW236232   8.635   9.110   8.362  0.8320  1.5021 -1.8453
11360SOL     OW36233   4.379   7.031   5.839 -0.0103  0.2985 -0.5406
11360SOL    HW136234   4.450   7.076   5.886 -0.0241  0.0976 -0.3298
11360SOL    HW236235   4.396   7.051   5.747  0.0843  0.5938 -0.4621
11361SOL     OW36236   6.190   3.674   0.158  0.7012  1.0496  0.1845
11361SOL    HW136237   6.233   3.625   0.227 -0.0344  1.9193  1.2938
11361SOL    HW236238   6.209   3.625   0.078  2.1951  0.4269  0.8840
11362SOL     OW36239   8.520   4.756   2.321  0.0804 -0.0610  0.1981
11362SOL    HW136240   8.562   4.704   2.253 -0.2394 -1.0660  0.7482
11362SOL    HW236241   8.463   4.816   2.274 -0.0597 -0.6748 -0.4254
11363SOL     OW36242   5.536   5.336   3.094 -0.2241 -0.2667 -0.4007
11363SOL    HW136243   5.538   5.383   3.011 -1.4590  1.1906  0.3344
11363SOL    HW236244   5.443   5.319   3.110 -0.0177 -0.4574  0.7145
11364SOL     OW36245   9.509   0.253   2.695  0.2373  0.0384  0.8999
11364SOL    HW136246   9.549   0.166   2.698 -0.3803 -0.7187 -4.1825
11364SOL    HW236247   9.434   0.248   2.754  1.1955 -2.2397  2.0163
11365SOL     OW36248   7.572   4.412   7.622 -0.0813  0.0538 -0.0775
11365SOL    HW136249   7.543   4.485   7.676  1.8586 -1.1690  2.8740
11365SOL    HW236250   7.519   4.338   7.651 -0.4196 -0.2473 -1.3867
11366SOL     OW36251   4.969   5.131   5.876  0.0178  0.1065 -0.2787
11366SOL    HW136252   4.938   5.186   5.948  0.5967  1.5862 -1.1348
11366SOL    HW236253   5.046   5.086   5.912 -0.1722  0.2135  0.2713
11367SOL     OW36254   3.745   4.309   7.855  0.1801 -0.5314 -0.1363
11367SOL    HW136255   3.792   4.238   7.811  0.8363  1.1075 -2.2503
11367SOL    HW236256   3.653   4.295   7.833  0.3478 -0.5492 -0.8508
11368SOL     OW36257   5.023   0.985   1.881  0.3326 -0.1677 -0.4208
11368SOL    HW136258   5.086   1.054   1.857 -0.3745  0.7400  0.2518
11368SOL    HW236259   5.014   0.993   1.976  0.5886 -1.5223 -0.2587
11369SOL     OW36260   1.940   4.195   6.576 -0.3497  0.0683  0.1552
11369SOL    HW136261   1.892   4.131   6.630  1.7821 -0.6310  1.3437
11369SOL    HW236262   1.990   4.246   6.639  1.2529  0.0769 -1.0774
11370SOL     OW36263   2.477   8.557   2.035 -0.0281  0.2489  0.1454
11370SOL    HW136264   2.517   8.563   1.948 -0.0833  1.0464  0.1666
11370SOL    HW236265   2.384   8.575   2.020 -0.4684 -1.8347  0.0603
11371SOL     OW36266   4.736   2.499   7.818  0.2574 -0.6548  0.3314
11371SOL    HW136267   4.763   2.563   7.752 -2.1302 -0.1064 -0.1804
11371SOL    HW236268   4.814   2.488   7.873  1.5311  0.7412 -1.0761
11372SOL     OW36269   6.537   7.060   1.248  0.4118 -0.1269 -0.3332
11372SOL    HW136270   6.499   7.067   1.336 -1.1207 -1.4675 -0.8266
11372SOL    HW236271   6.580   6.975   1.248 -1.8005 -1.3416 -1.5974
11373SOL     OW36272   8.292   0.413   4.448 -0.3468  0.4100  0.8230
11373SOL    HW136273   8.329   0.499   4.470 -0.4269  0.6363  0.1172
11373SOL    HW236274   8.227   0.396   4.516  1.3490 -0.2090  2.3716
11374SOL     OW36275   3.092   4.349   8.533 -0.2260  0.6933 -0.4901
11374SOL    HW136276   3.169   4.334   8.479  1.3604  3.0830  0.9002
11374SOL    HW236277   3.126   4.357   8.622 -2.5084 -1.1959  0.6554
11375SOL     OW36278   7.755   1.023   4.439  0.2016 -0.3569  0.2259
11375SOL    HW136279   7.789   1.096   4.388  0.9613 -0.0352  1.1433
11375SOL    HW236280   7.798   1.032   4.524  1.1763 -2.4967  0.0265
11376SOL     OW36281   0.123   5.026   3.640  0.1532 -0.3665  0.1809
11376SOL    HW136282   0.046   5.056   3.689  0.8261  0.4242  0.7884
11376SOL    HW236283   0.088   4.965   3.576 -0.8823 -0.6329  0.9698
11377SOL     OW36284   7.413   6.557   4.604  0.1613  0.6218 -0.6401
11377SOL    HW136285   7.450   6.548   4.692  0.7363  0.2266 -0.9156
11377SOL    HW236286   7.478   6.517   4.546  0.0991  1.4625 -1.3167
11378SOL     OW36287   5.846   9.455   9.260 -0.5301 -0.1125 -0.3329
11378SOL    HW136288   5.829   9.379   9.316  0.8618 -1.3625 -1.4922
11378SOL    HW236289   5.932   9.486   9.287 -0.9309  0.8440 -0.1227
11379SOL     OW36290   3.644   1.057   2.691 -0.5486  0.2971  0.4297
11379SOL    HW136291   3.599   1.104   2.761  1.4475 -0.3612  2.2546
11379SOL    HW236292   3.643   0.966   2.719 -0.8024 -0.1809 -1.0579
11380SOL     OW36293   1.694   9.080   6.928 -0.2439  0.2106 -0.0757
11380SOL    HW136294   1.606   9.053   6.904  0.4375 -1.2777 -1.0667
11380SOL    HW236295   1.695   9.077   7.024 -0.8384 -1.2589 -0.0944
11381SOL     OW36296   5.308   5.862   5.154  0.2062  0.3743 -0.0832
11381SOL    HW136297   5.314   5.864   5.250  0.2655  2.1605 -0.0962
11381SOL    HW236298   5.295   5.769   5.133 -1.0174  0.0878  1.7197
11382SOL     OW36299   0.663   5.141   8.633 -0.2398  0.2374 -0.0342
11382SOL    HW136300   0.654   5.217   8.574 -1.3758  0.3185  0.2229
11382SOL    HW236301   0.573   5.120   8.658  0.1815 -0.2734  1.0786
11383SOL     OW36302   7.013   3.233   7.143  0.1069  0.2364 -0.2152
11383SOL    HW136303   7.060   3.214   7.224 -1.2075 -0.6739  0.3781
11383SOL    HW236304   7.053   3.313   7.110  1.4421 -0.0166  0.7214
11384SOL     OW36305   2.574   0.089   6.875 -0.4007 -0.2512  0.4125
11384SOL    HW136306   2.629   0.109   6.951 -1.7088 -2.3413  2.0233
11384SOL    HW236307   2.486   0.118   6.901 -0.5034  1.0592 -1.2502
11385SOL     OW36308   9.085   2.021   7.821  0.5912  0.3241 -0.0137
11385SOL    HW136309   9.035   1.977   7.752  1.0821  1.3626 -1.0677
11385SOL    HW236310   9.165   1.970   7.828  1.2494  1.1102 -1.3722
11386SOL     OW36311   1.389   1.665   8.272 -0.2346 -0.6444  0.1789
11386SOL    HW136312   1.363   1.606   8.342  0.3262 -1.9033 -0.6392
11386SOL    HW236313   1.483   1.648   8.259  0.3220  1.5179  0.9275
11387SOL     OW36314   7.905   0.009   1.930  0.2825 -0.4554 -0.3823
11387SOL    HW136315   7.973  -0.054   1.904  0.2681  0.4761 -2.9790
11387SOL    HW236316   7.825  -0.024   1.889  0.1488  0.8583 -1.2247
11388SOL     OW36317   7.924   8.887   6.050 -0.1062  0.4506  0.4162
11388SOL    HW136318   7.973   8.842   6.119  0.2528 -0.9323 -0.7082
11388SOL    HW236319   7.867   8.948   6.098  0.6505  0.0535  1.8905
11389SOL     OW36320   3.852   8.121   6.710  0.1622  0.4000 -0.1416
11389SOL    HW136321   3.934   8.161   6.739  0.6683  0.5254 -1.6620
11389SOL    HW236322   3.843   8.147   6.618 -0.3345 -1.6179 -0.7126
11390SOL     OW36323   8.508   3.079   1.395 -0.0046 -0.4488  0.6030
11390SOL    HW136324   8.570   3.011   1.368 -0.1048 -0.5744  0.6826
11390SOL    HW236325   8.466   3.042   1.473 -1.5678 -1.2058 -0.5518
11391SOL     OW36326   8.100   4.724   5.245  0.0623  0.5041  0.1079
11391SOL    HW136327   8.131   4.642   5.282  0.2792  0.2216 -0.6856
11391SOL    HW236328   8.172   4.755   5.190 -0.8851  0.0364 -1.4607
11392SOL     OW36329   2.595   5.837   3.222  0.1046  0.2812  0.1325
11392SOL    HW136330   2.537   5.812   3.294 -1.8244  0.4333 -1.2890
11392SOL    HW236331   2.588   5.766   3.159 -0.0444  1.1811 -0.9066
11393SOL     OW36332   8.491   2.376   8.348 -0.5294 -0.4858 -0.5678
11393SOL    HW136333   8.515   2.376   8.441 -0.4133 -0.7199 -0.5982
11393SOL    HW236334   8.572   2.353   8.302 -0.3491  0.5148 -0.7938
11394SOL     OW36335   2.359   2.102   3.900  0.6086 -0.1285  0.3521
11394SOL    HW136336   2.349   2.011   3.870 -0.1961  0.2878 -0.6963
11394SOL    HW236337   2.435   2.100   3.957  0.6484 -1.4571  0.2824
11395SOL     OW36338   0.643   3.329   0.861 -0.0716  0.0742  0.0598
11395SOL    HW136339   0.590   3.403   0.833 -0.6890 -0.0083  0.9890
11395SOL    HW236340   0.587   3.279   0.920  1.5856  0.9942  2.6109
11396SOL     OW36341   3.205   2.320   2.097  0.4739  0.7388  0.2126
11396SOL    HW136342   3.224   2.226   2.104 -2.1889 -0.0632 -1.7489
11396SOL    HW236343   3.180   2.346   2.185  1.6036 -0.2713  0.8658
11397SOL     OW36344   9.332   5.807   9.249 -0.1524 -0.0225  0.0620
11397SOL    HW136345   9.291   5.776   9.168  0.9936 -0.7620 -0.2687
11397SOL    HW236346   9.288   5.758   9.318  1.3559 -2.2946 -0.4233
11398SOL     OW36347   1.996   0.421   8.253 -0.1053  0.5353  0.3159
11398SOL    HW136348   2.062   0.418   8.322  0.5169  1.8991 -0.1825
11398SOL    HW236349   1.925   0.366   8.286  0.9897 -0.4560  1.1481
11399SOL     OW36350   5.307   1.939   2.559 -0.2336  0.4847 -0.4936
11399SOL    HW136351   5.219   1.901   2.572 -0.3213  0.6858 -0.5039
11399SOL    HW236352   5.303   1.978   2.472  0.2296 -0.5110 -0.9778
11400SOL     OW36353   7.517   2.504   7.925  0.2869  0.4126  0.0197
11400SOL    HW136354   7.512   2.562   8.001  2.5918  1.0466 -0.2440
11400SOL    HW236355   7.550   2.560   7.854 -0.0457 -0.6120 -0.9730
11401SOL     OW36356   5.576   3.205   0.979  0.8293 -0.2321  0.6021
11401SOL    HW136357   5.507   3.257   0.937 -0.2190 -1.5032  0.6679
11401SOL    HW236358   5.646   3.267   0.997 -0.8793  1.4686  1.8407
11402SOL     OW36359   6.760   1.011   6.080 -0.1828  0.0736 -0.4196
11402SOL    HW136360   6.673   0.972   6.073 -1.1925  1.4135  2.8725
11402SOL    HW236361   6.749   1.098   6.042 -0.5520  0.5243  0.6725
11403SOL     OW36362   8.815   0.469   3.567 -0.4998  0.1472 -0.3227
11403SOL    HW136363   8.797   0.552   3.524 -0.8496  0.4570  0.4050
11403SOL    HW236364   8.894   0.436   3.525  0.3375  1.4272  0.2284
11404SOL     OW36365   3.466   5.270   1.085 -0.2092 -0.5974 -0.5290
11404SOL    HW136366   3.519   5.349   1.098 -1.5939  0.0506  1.6996
11404SOL    HW236367   3.382   5.291   1.125 -0.5592 -3.2974  0.3585
11405SOL     OW36368   5.361   4.702   5.915 -0.0265 -0.1014  0.3589
11405SOL    HW136369   5.388   4.613   5.934  0.9763  0.4895  1.9460
11405SOL    HW236370   5.442   4.748   5.893 -0.1233  0.9720  2.0591
11406SOL     OW36371   1.898   4.460   3.849 -0.3629 -0.7233 -0.2565
11406SOL    HW136372   1.948   4.381   3.870 -0.0891 -0.8718 -1.3840
11406SOL    HW236373   1.807   4.434   3.860 -0.2467 -0.9327  0.2316
11407SOL     OW36374   4.199   8.940   8.030  0.1009  0.1613 -0.1330
11407SOL    HW136375   4.122   8.911   8.079 -1.4316  0.9356 -1.9365
11407SOL    HW236376   4.272   8.891   8.067 -1.0362  0.3413  2.5128
11408SOL     OW36377   2.879   1.064   8.790  0.2093 -0.5967  0.2485
11408SOL    HW136378   2.795   1.070   8.745  1.1183 -2.1306 -1.8181
11408SOL    HW236379   2.933   1.133   8.750  0.1565 -0.0795  1.0590
11409SOL     OW36380   7.428   1.177   4.117 -0.3882  0.6512  0.3853
11409SOL    HW136381   7.417   1.272   4.116 -1.6105  0.7877 -4.9954
11409SOL    HW236382   7.508   1.161   4.065 -0.9033 -1.2508  0.0785
11410SOL     OW36383   6.238   2.604   6.894  0.4725 -0.3564 -0.0459
11410SOL    HW136384   6.258   2.514   6.916 -0.5912 -1.1347 -2.0207
11410SOL    HW236385   6.251   2.653   6.976  1.4038 -2.2156  0.9598
11411SOL     OW36386   8.731   3.092   0.706 -0.1002 -0.4891 -0.3536
11411SOL    HW136387   8.747   3.075   0.798 -1.5107  1.5575  0.3470
11411SOL    HW236388   8.762   3.182   0.692 -1.7366 -0.0298 -1.3170
11412SOL     OW36389   3.611   7.780   5.563 -0.6581  0.0012 -0.1249
11412SOL    HW136390   3.651   7.696   5.584 -2.0833 -0.7114 -0.0911
11412SOL    HW236391   3.527   7.757   5.523 -0.0670  1.3832 -2.3466
11413SOL     OW36392   8.095   9.495   1.794 -0.6410  0.0004 -0.1355
11413SOL    HW136393   8.159   9.564   1.781  1.4227 -1.6383  0.7584
11413SOL    HW236394   8.077   9.462   1.705 -0.1576  0.4225 -0.3942
11414SOL     OW36395   7.288   8.031   7.373 -0.0865 -0.2097 -0.2401
11414SOL    HW136396   7.371   8.043   7.419 -0.3751 -1.7323  0.7543
11414SOL    HW236397   7.222   8.032   7.442 -0.7580 -0.4225 -0.8648
11415SOL     OW36398   6.019   1.997   0.267 -0.5186 -0.2844 -0.1536
11415SOL    HW136399   6.010   2.005   0.172 -0.9563  0.2821 -0.0679
11415SOL    HW236400   5.954   1.931   0.292  0.5709 -1.5189 -0.4040
11416SOL     OW36401   2.287   9.446   6.256  0.7816  0.0479  0.1468
11416SOL    HW136402   2.317   9.479   6.341 -1.0010  0.4292  0.6724
11416SOL    HW236403   2.337   9.365   6.243  0.9522 -0.1171  1.6414
11417SOL     OW36404   2.586   9.210   8.725  0.3577 -0.0334 -0.3875
11417SOL    HW136405   2.540   9.191   8.644 -0.5916  0.6927 -0.0409
11417SOL    HW236406   2.549   9.293   8.755  1.1286  0.0241  0.4682
11418SOL     OW36407   3.768   6.431   1.154 -0.0707 -0.0644 -0.3930
11418SOL    HW136408   3.746   6.386   1.072 -0.6434 -0.0573 -0.2435
11418SOL    HW236409   3.693   6.415   1.211  0.4893 -0.3956  0.2700
11419SOL     OW36410   4.274   2.837   2.500  0.1672  0.2155 -0.0620
11419SOL    HW136411   4.317   2.920   2.479  1.0403 -0.5410 -1.4926
11419SOL    HW236412   4.332   2.795   2.563 -0.3518  0.7335  0.7789
11420SOL     OW36413   4.080   3.304   6.558 -0.3082 -0.5923  0.4654
11420SOL    HW136414   4.054   3.244   6.628 -0.5285 -0.6493  0.3361
11420SOL    HW236415   4.065   3.255   6.477  2.3242 -1.4645  0.4292
11421SOL     OW36416   0.114   1.792   4.309  0.5499 -0.2548 -0.0764
11421SOL    HW136417   0.158   1.840   4.380 -0.3675 -0.4510  0.6515
11421SOL    HW236418   0.160   1.708   4.305 -0.6047 -1.0432  1.6651
11422SOL     OW36419   1.858   6.924   8.963  0.2304  0.3156  0.4477
11422SOL    HW136420   1.878   6.831   8.955 -1.2221 -0.0412  0.6451
11422SOL    HW236421   1.823   6.933   9.052 -2.5646  0.4170 -0.5692
11423SOL     OW36422   2.733   4.880   7.336  0.0158  0.0182 -0.2725
11423SOL    HW136423   2.681   4.954   7.306  0.4228  0.4720  0.1406
11423SOL    HW236424   2.673   4.829   7.391 -0.4468 -0.3039 -1.0598
11424SOL     OW36425   0.158   0.757   3.857  0.1590 -0.2158  0.0613
11424SOL    HW136426   0.065   0.735   3.867  0.2391 -1.1759 -1.0486
11424SOL    HW236427   0.181   0.800   3.939 -1.8561  2.3057 -0.5420
11425SOL     OW36428   0.372   1.484   3.769 -0.4458 -0.4610 -0.2308
11425SOL    HW136429   0.419   1.438   3.700 -1.0199  0.6344 -1.3936
11425SOL    HW236430   0.286   1.503   3.731 -1.0372 -0.4567  1.0450
11426SOL     OW36431   6.917   4.351   5.046 -0.0470  0.1414  0.5764
11426SOL    HW136432   6.977   4.302   5.102  1.7113  1.0531 -0.4261
11426SOL    HW236433   6.971   4.419   5.006 -1.6079  0.5962 -0.8966
11427SOL     OW36434   1.288   4.021   6.558  0.4880  0.0117 -0.5252
11427SOL    HW136435   1.224   3.953   6.537  0.7993  0.0093 -1.5120
11427SOL    HW236436   1.339   4.031   6.478  2.6951 -1.0163  0.6799
11428SOL     OW36437   3.877   6.056   1.783  0.1006 -0.3632 -0.8366
11428SOL    HW136438   3.960   6.069   1.738  0.3859 -1.1472 -0.5400
11428SOL    HW236439   3.880   5.966   1.816 -0.9835 -0.5103 -1.0803
11429SOL     OW36440   7.736   8.300   5.742 -0.0344 -0.8884  0.4041
11429SOL    HW136441   7.659   8.281   5.795  1.2077 -1.8890  1.9414
11429SOL    HW236442   7.763   8.214   5.708 -0.9758 -0.2426 -2.1884
11430SOL     OW36443   7.199   8.265   9.463  0.0555  0.1371  0.5967
11430SOL    HW136444   7.288   8.234   9.483  0.0746 -0.4615 -0.3028
11430SOL    HW236445   7.153   8.185   9.436 -1.5000 -0.0135  3.3603
11431SOL     OW36446   0.835   9.076   0.212 -0.2474 -0.3130  0.3966
11431SOL    HW136447   0.750   9.049   0.248 -1.3212  1.1273 -0.9385
11431SOL    HW236448   0.884   9.106   0.289 -2.4720  2.6733  0.8398
11432SOL     OW36449   6.955   3.369   4.222  0.5238 -0.0519  0.2468
11432SOL    HW136450   6.862   3.384   4.239  0.5162  0.7354 -0.4393
11432SOL    HW236451   6.960   3.281   4.186 -0.4850  1.2542 -3.4922
11433SOL     OW36452   1.455   9.106   6.081  0.2791 -0.4600  0.5480
11433SOL    HW136453   1.534   9.084   6.130 -0.1195 -2.4519  0.3894
11433SOL    HW236454   1.437   9.197   6.104  2.9416  0.2712  0.1016
11434SOL     OW36455   8.045   7.859   9.413 -0.0001 -0.5925  0.5840
11434SOL    HW136456   8.135   7.858   9.382  0.1552  0.3817  0.9791
11434SOL    HW236457   7.993   7.887   9.337  0.0768 -0.7453  0.4752
11435SOL     OW36458   7.249   6.319   8.157  0.0643 -0.1711  0.1540
11435SOL    HW136459   7.319   6.256   8.176  0.2994 -0.5496 -1.7675
11435SOL    HW236460   7.284   6.373   8.086 -1.2110  0.2706 -0.1606
11436SOL     OW36461   6.137   7.322   0.117 -0.2059  0.1676  0.5273
11436SOL    HW136462   6.128   7.339   0.211 -0.6137 -0.8507  0.6920
11436SOL    HW236463   6.155   7.407   0.078 -2.8022  1.0868  1.1869
11437SOL     OW36464   1.660   8.913   8.795  0.2945 -0.2123 -0.1165
11437SOL    HW136465   1.593   8.949   8.853  0.1531  0.9371 -0.9779
11437SOL    HW236466   1.612   8.878   8.720  0.6720  1.3234 -1.1130
11438SOL     OW36467   0.686   5.503   8.029  0.3107 -0.0813 -0.1203
11438SOL    HW136468   0.768   5.534   7.991  0.4776  0.4319  0.6300
11438SOL    HW236469   0.626   5.577   8.021 -0.0077 -0.3750 -0.4542
11439SOL     OW36470   1.284   8.689   9.267 -0.6371  0.3987  0.1672
11439SOL    HW136471   1.281   8.614   9.208 -1.6465 -0.1202  0.8550
11439SOL    HW236472   1.221   8.668   9.336  0.4813  1.0023  1.4115
11440SOL     OW36473   9.508   9.074   8.592 -0.4938  0.4820 -0.3848
11440SOL    HW136474   9.572   9.026   8.539  0.9568  1.0696  0.7387
11440SOL    HW236475   9.438   9.012   8.608 -0.1617 -0.2264 -1.5835
11441SOL     OW36476   1.988   7.399   1.376  0.2016 -0.3396 -0.1454
11441SOL    HW136477   2.026   7.357   1.299  0.8008 -1.0832  0.5406
11441SOL    HW236478   2.063   7.417   1.433 -0.4231 -1.7868  1.2155
11442SOL     OW36479   9.279   5.418   9.020 -0.4182 -1.0930 -0.1646
11442SOL    HW136480   9.256   5.485   8.957  0.6569  0.3803  0.9244
11442SOL    HW236481   9.243   5.337   8.984  0.2816 -0.3550 -2.7071
11443SOL     OW36482   8.230   3.650   3.917  0.2349 -0.3285  0.8045
11443SOL    HW136483   8.309   3.634   3.865 -0.8378 -0.4379 -0.8643
11443SOL    HW236484   8.197   3.563   3.939  0.9542 -0.2898  2.1726
11444SOL     OW36485   4.763   7.600   6.732  0.0249 -0.5732 -0.2643
11444SOL    HW136486   4.823   7.646   6.791  0.9738 -0.5370 -1.2152
11444SOL    HW236487   4.820   7.537   6.686 -0.8394 -1.1401 -0.5748
11445SOL     OW36488   4.250   6.308   2.025 -0.0737  0.2661 -0.0215
11445SOL    HW136489   4.325   6.253   2.003 -2.1294 -2.2431 -1.3102
11445SOL    HW236490   4.181   6.246   2.051 -2.0269  2.3456  0.0911
11446SOL     OW36491   5.960   1.239   7.978 -0.0061 -0.6491  0.5941
11446SOL    HW136492   5.949   1.144   7.976 -0.3317 -0.6021 -0.3432
11446SOL    HW236493   5.973   1.260   8.070  0.3064 -1.6291  0.7849
11447SOL     OW36494   8.565   7.746   6.235  0.1139  0.0492 -0.2154
11447SOL    HW136495   8.590   7.831   6.271  1.2082 -0.9590  1.5951
11447SOL    HW236496   8.505   7.710   6.300  0.2543 -0.8639 -0.5817
11448SOL     OW36497   4.885   6.555   6.831  0.1360 -0.2070 -0.7017
11448SOL    HW136498   4.828   6.480   6.812  0.0738  0.5845 -4.2196
11448SOL    HW236499   4.837   6.631   6.798  1.5894  1.0049 -0.1584
11449SOL     OW36500   2.613   7.063   0.992 -0.4563  0.4911 -0.4830
11449SOL    HW136501   2.697   7.110   0.989 -1.1751  1.8537  0.0047
11449SOL    HW236502   2.595   7.041   0.901  0.7969 -0.5390 -0.5207
11450SOL     OW36503   2.115   3.089   5.323 -0.1655 -0.9850  0.3202
11450SOL    HW136504   2.200   3.046   5.330 -0.0113 -0.5528  1.1452
11450SOL    HW236505   2.094   3.085   5.229  1.4518  0.2238 -0.1354
11451SOL     OW36506   0.999   3.405   6.918  0.1686  0.0469 -0.0865
11451SOL    HW136507   1.041   3.329   6.879 -0.1913 -0.0191 -0.3405
11451SOL    HW236508   0.908   3.401   6.889  0.0488  0.3469  0.2339
11452SOL     OW36509   4.713   0.981   1.477 -0.2771 -0.0049 -0.4747
11452SOL    HW136510   4.737   0.889   1.490 -0.8474 -0.4621 -2.4409
11452SOL    HW236511   4.619   0.980   1.461 -0.7695  1.2246  1.7942
11453SOL     OW36512   0.833   6.611   7.692 -0.3874 -0.4432  0.2529
11453SOL    HW136513   0.907   6.556   7.669 -0.0020 -0.2837  1.0871
11453SOL    HW236514   0.756   6.558   7.669 -0.0475 -0.2039 -1.5922
11454SOL     OW36515   4.795   7.202   2.612 -0.4235  0.0989  0.0307
11454SOL    HW136516   4.754   7.286   2.593 -0.1361  0.4655  0.9695
11454SOL    HW236517   4.872   7.224   2.665 -0.2997 -0.7441  0.2230
11455SOL     OW36518   0.273   4.842   4.282 -0.0034  0.8274  0.4142
11455SOL    HW136519   0.356   4.807   4.248 -0.4196 -2.0122  2.0321
11455SOL    HW236520   0.214   4.840   4.207  1.0914  2.0435 -0.5353
11456SOL     OW36521   4.880   8.333   3.667  0.6056  0.1294 -0.5047
11456SOL    HW136522   4.860   8.400   3.732  1.1399  0.6128 -0.8376
11456SOL    HW236523   4.911   8.381   3.591  0.7684 -0.4827 -0.8345
11457SOL     OW36524   3.522   9.082   6.562  0.0074  0.6053 -0.4011
11457SOL    HW136525   3.487   9.053   6.647 -0.9393 -0.8263 -1.2443
11457SOL    HW236526   3.613   9.053   6.563 -0.3416 -0.5400 -0.3552
11458SOL     OW36527   5.159   0.700   0.422  0.5332  0.0167  0.1566
11458SOL    HW136528   5.103   0.640   0.472  0.0368 -0.3962 -0.8705
11458SOL    HW236529   5.141   0.786   0.459 -2.0813  0.1524 -1.2243
11459SOL     OW36530   2.674   0.378   4.471  0.5705  0.0182  0.1658
11459SOL    HW136531   2.770   0.378   4.463  0.6951  0.1919  1.4670
11459SOL    HW236532   2.656   0.436   4.545 -0.6670  1.3492 -1.1170
11460SOL     OW36533   4.425   1.206   4.110 -0.1040 -0.5627 -0.2165
11460SOL    HW136534   4.446   1.195   4.017  0.7364 -0.1042 -0.0888
11460SOL    HW236535   4.445   1.298   4.128 -1.2740 -0.3754  0.1711
11461SOL     OW36536   8.153   6.813   8.810  0.3385 -0.2178  0.3334
11461SOL    HW136537   8.089   6.880   8.836  0.7382  0.5291 -0.5463
11461SOL    HW236538   8.167   6.829   8.717  0.9751 -1.0871  0.2729
11462SOL     OW36539   8.463   2.245   8.960  0.2442 -0.4307 -0.4422
11462SOL    HW136540   8.497   2.160   8.989 -1.3106 -1.0284 -0.2741
11462SOL    HW236541   8.490   2.306   9.029  1.3688 -0.7679 -0.5598
11463SOL     OW36542   8.638   4.461   3.574 -0.1607 -0.1910  0.1570
11463SOL    HW136543   8.666   4.372   3.595 -1.8952 -0.7170  0.3481
11463SOL    HW236544   8.543   4.459   3.582 -0.4299  1.1102 -2.0199
11464SOL     OW36545   5.936   9.244   0.881  0.4124  0.4495  0.6503
11464SOL    HW136546   5.914   9.333   0.854 -0.7333  0.2812  0.9937
11464SOL    HW236547   6.032   9.243   0.880  0.4642  0.9843 -1.5864
11465SOL     OW36548   7.954   9.014   0.053  0.0964 -0.5812 -0.2837
11465SOL    HW136549   7.968   9.108   0.039  0.6906 -0.7485 -0.8375
11465SOL    HW236550   7.860   9.002   0.038  0.2013 -0.2516 -1.3063
11466SOL     OW36551   8.859   6.128   7.609  0.4240 -0.0964  0.3011
11466SOL    HW136552   8.815   6.212   7.598  2.2613  0.6306 -2.5657
11466SOL    HW236553   8.923   6.143   7.678  0.7921  0.9352 -0.2370
11467SOL     OW36554   4.237   1.366   6.838  0.2600 -0.5552  0.2369
11467SOL    HW136555   4.152   1.351   6.881 -0.6930  2.0130 -0.5291
11467SOL    HW236556   4.296   1.386   6.910 -0.5163  0.4571  0.6188
11468SOL     OW36557   3.141   6.752   9.404  0.0312  0.6400 -0.4674
11468SOL    HW136558   3.096   6.827   9.366  0.7484  1.9966  1.1769
11468SOL    HW236559   3.219   6.741   9.350 -0.2327  0.8779 -0.9017
11469SOL     OW36560   6.795   4.740   7.465  0.1260 -0.2334  0.0321
11469SOL    HW136561   6.788   4.645   7.468 -2.2714 -0.1099  2.3400
11469SOL    HW236562   6.766   4.769   7.552  1.1410  2.6052 -0.4624
11470SOL     OW36563   2.097   4.789   3.098  0.0473 -0.5784  0.2950
11470SOL    HW136564   2.172   4.770   3.154  2.1174  0.7934 -1.8181
11470SOL    HW236565   2.104   4.726   3.026  0.7469  1.1510 -1.2305
11471SOL     OW36566   5.208   4.497   5.805  0.2930  0.2705  0.7317
11471SOL    HW136567   5.264   4.575   5.810  1.6090 -0.5667 -0.1059
11471SOL    HW236568   5.255   4.439   5.745 -1.5136 -0.4783 -0.0024
11472SOL     OW36569   0.566   1.968   3.884  0.6000 -0.0860  0.0835
11472SOL    HW136570   0.594   2.039   3.825  1.5873  2.2074  3.0604
11472SOL    HW236571   0.563   1.890   3.828  0.7415  2.0063 -3.1038
11473SOL     OW36572   4.566   9.215   1.102 -0.0756 -0.0020 -0.8047
11473SOL    HW136573   4.654   9.233   1.069 -0.1892  0.1872 -1.0159
11473SOL    HW236574   4.524   9.164   1.033  0.2392 -1.0898 -0.2071
11474SOL     OW36575   1.357   2.934   9.271  0.5160 -0.1307  0.8194
11474SOL    HW136576   1.328   2.963   9.357 -2.0288 -0.1682  0.0592
11474SOL    HW236577   1.366   3.015   9.221 -0.2353 -0.2169  0.5232
11475SOL     OW36578   3.636   3.500   1.002  0.1660 -0.3609 -0.1303
11475SOL    HW136579   3.626   3.442   1.078  0.7805  0.1179  0.3279
11475SOL    HW236580   3.636   3.441   0.927 -0.7052 -0.8228  0.2140
11476SOL     OW36581   3.730   8.358   9.474 -0.9662  0.6097 -0.0790
11476SOL    HW136582   3.759   8.356   9.383  0.2978  0.4589  0.3199
11476SOL    HW236583   3.733   8.450   9.499  2.0444  0.3650  0.8256
11477SOL     OW36584   6.425   7.367   6.879  0.5160  0.0206  0.0942
11477SOL    HW136585   6.340   7.330   6.901  0.5155 -0.3981 -0.5736
11477SOL    HW236586   6.481   7.291   6.862  1.0188  0.2914  0.5079
11478SOL     OW36587   7.455   7.656   1.339  0.3061 -0.3380  0.9712
11478SOL    HW136588   7.468   7.750   1.350 -0.0695 -0.3160  1.2525
11478SOL    HW236589   7.374   7.648   1.289  0.4815 -0.5068  0.7137
11479SOL     OW36590   8.454   4.810   7.245  0.3094 -0.2737  0.4917
11479SOL    HW136591   8.410   4.734   7.285  0.4600 -0.2940  0.6222
11479SOL    HW236592   8.498   4.853   7.319  3.2219 -2.0485 -0.0229
11480SOL     OW36593   1.639   0.286   5.775  0.2105 -0.0252 -0.1584
11480SOL    HW136594   1.689   0.308   5.696 -1.2415  0.7859 -0.8909
11480SOL    HW236595   1.582   0.214   5.748  1.1962 -1.2198  0.7822
11481SOL     OW36596   5.932   5.038   4.642  0.3001  0.2688 -0.4171
11481SOL    HW136597   5.857   5.034   4.582  1.5761 -0.3651 -2.0549
11481SOL    HW236598   5.948   4.947   4.666  1.0267  0.3108 -0.7206
11482SOL     OW36599   2.567   4.656   6.606 -0.2047  0.2906 -0.2326
11482SOL    HW136600   2.528   4.738   6.578  0.6557  1.1705  1.0825
11482SOL    HW236601   2.661   4.674   6.613 -0.0595 -0.6535  0.5586
11483SOL     OW36602   8.941   5.125   6.342 -0.6599 -0.5039 -0.3445
11483SOL    HW136603   8.964   5.052   6.400 -1.1612 -1.0949 -0.8758
11483SOL    HW236604   8.956   5.203   6.395  2.9771 -0.7708 -0.7248
11484SOL     OW36605   8.603   6.469   8.261 -0.0330 -0.0288 -0.0465
11484SOL    HW136606   8.621   6.513   8.344  2.1377 -1.8148  0.5299
11484SOL    HW236607   8.513   6.437   8.270 -0.1391  0.5576  1.2301
11485SOL     OW36608   2.689   2.012   3.450 -0.0781  0.8449  0.5826
11485SOL    HW136609   2.632   2.036   3.377  1.0411  0.0352 -0.5922
11485SOL    HW236610   2.667   1.921   3.469  1.7601  0.0469 -0.8458
11486SOL     OW36611   2.446   2.159   0.735  0.9400  1.0834 -0.3364
11486SOL    HW136612   2.472   2.233   0.790 -2.3133  1.3626  1.0527
11486SOL    HW236613   2.515   2.094   0.748  0.3658  1.0809  4.2908
11487SOL     OW36614   8.735   3.284   1.238  0.0271  0.3622 -0.5620
11487SOL    HW136615   8.646   3.258   1.263  0.5619 -1.0224  0.0314
11487SOL    HW236616   8.745   3.372   1.273 -0.7250  0.0906  0.3884
11488SOL     OW36617   9.080   5.338   3.831 -0.1594 -0.2088 -0.4171
11488SOL    HW136618   8.994   5.340   3.874  0.3998 -0.9664  0.7721
11488SOL    HW236619   9.082   5.419   3.780 -0.9431  0.6433  0.8287
11489SOL     OW36620   2.834   4.972   6.488  0.4023 -0.0709 -0.7450
11489SOL    HW136621   2.900   4.999   6.424 -0.0776  0.1293 -1.1640
11489SOL    HW236622   2.832   5.043   6.552  0.4506  0.0151 -0.8382
11490SOL     OW36623   2.363   9.020   3.562  0.5077 -0.0667 -0.3526
11490SOL    HW136624   2.403   9.092   3.611  0.9236 -1.0921  0.8728
11490SOL    HW236625   2.428   8.996   3.497  1.1980 -0.6098  0.5234
11491SOL     OW36626   2.738   1.369   0.890  0.2995 -0.6629 -0.4093
11491SOL    HW136627   2.742   1.421   0.971 -0.9550 -1.2219  0.0398
11491SOL    HW236628   2.668   1.409   0.839 -0.7309 -1.8893 -0.0307
11492SOL     OW36629   1.782   8.285   7.089 -0.4045 -0.1700  0.3178
11492SOL    HW136630   1.764   8.213   7.027  0.1840  0.4848 -0.6449
11492SOL    HW236631   1.803   8.241   7.171 -0.0423 -1.1110 -0.2540
11493SOL     OW36632   2.696   1.076   3.312  0.0688 -0.7772  0.2603
11493SOL    HW136633   2.707   1.047   3.221  1.1176 -0.2503  0.2080
11493SOL    HW236634   2.773   1.131   3.329 -1.4651  1.3619  0.6080
11494SOL     OW36635   4.882   3.855   9.080  0.2491  0.3387  0.0910
11494SOL    HW136636   4.845   3.910   9.012 -3.1468  2.2191  3.1055
11494SOL    HW236637   4.943   3.912   9.126  1.6360 -0.5521 -0.5702
11495SOL     OW36638   6.265   4.376   7.841 -0.1252 -0.1788 -0.0363
11495SOL    HW136639   6.319   4.326   7.902 -1.8103  0.4988  2.1584
11495SOL    HW236640   6.299   4.353   7.754  1.4836 -2.2911  1.0505
11496SOL     OW36641   1.962   0.470   3.475 -0.3449 -0.0304  0.0767
11496SOL    HW136642   1.889   0.515   3.433  0.5480  0.2646 -1.2274
11496SOL    HW236643   1.921   0.405   3.532 -1.6129  0.2840 -0.4490
11497SOL     OW36644   5.517   1.897   9.256  0.3742 -0.4812  0.1576
11497SOL    HW136645   5.442   1.953   9.277  0.1390 -0.4440 -0.7255
11497SOL    HW236646   5.554   1.937   9.177  1.1740 -0.6486  0.4464
11498SOL     OW36647   9.111   7.751   7.213 -0.7374  0.0424 -0.1889
11498SOL    HW136648   9.136   7.659   7.221  0.1051  0.4103  2.2757
11498SOL    HW236649   9.049   7.765   7.284 -0.7922  1.3933 -0.4806
11499SOL     OW36650   0.981   8.533   6.242 -0.3335 -0.2269  0.4778
11499SOL    HW136651   0.973   8.542   6.337  0.6408 -2.5045  0.8412
11499SOL    HW236652   1.057   8.588   6.219  1.1365 -1.7268  1.4833
11500SOL     OW36653   8.614   4.067   3.067  0.4481  0.1729 -0.5295
11500SOL    HW136654   8.546   4.134   3.067 -1.0545 -1.2450  0.6749
11500SOL    HW236655   8.628   4.046   3.159  0.7480 -1.2618 -0.8718
11501SOL     OW36656   1.259   5.948   0.960 -0.2762  0.1240 -0.7926
11501SOL    HW136657   1.165   5.968   0.960  0.1386  3.0416  2.4490
11501SOL    HW236658   1.295   6.004   0.891 -0.9162 -1.5779 -2.5807
11502SOL     OW36659   6.179   2.311   0.058  0.6596  0.4681 -0.5071
11502SOL    HW136660   6.092   2.326   0.095  1.2735  1.0647  0.7693
11502SOL    HW236661   6.222   2.397   0.062  1.3220  0.1738 -1.0707
11503SOL     OW36662   6.926   8.636   3.126  0.0353 -0.2304  0.0190
11503SOL    HW136663   7.012   8.665   3.095  1.0811 -3.3059 -0.3212
11503SOL    HW236664   6.875   8.624   3.046 -0.1687  0.0358  0.1089
11504SOL     OW36665   9.465   9.213   4.347 -0.5136  0.7886 -0.1181
11504SOL    HW136666   9.496   9.298   4.317 -0.3736  0.3799 -1.1602
11504SOL    HW236667   9.376   9.206   4.312 -0.3467  0.3054 -0.4634
11505SOL     OW36668   2.981   5.115   6.738  0.2860 -0.5788  0.0059
11505SOL    HW136669   2.909   5.075   6.785 -0.0240 -0.1780 -0.1244
11505SOL    HW236670   3.048   5.046   6.732 -0.9906 -1.7609 -1.9550
11506SOL     OW36671   7.998   5.206   0.352 -0.0465  0.7192 -0.0760
11506SOL    HW136672   7.983   5.112   0.364 -0.1991  0.8678  1.0547
11506SOL    HW236673   8.006   5.240   0.441  0.0408  1.7787 -0.4745
11507SOL     OW36674   2.799   7.789   7.621 -0.0063  0.2619  0.1244
11507SOL    HW136675   2.829   7.877   7.599 -1.1937  0.8858  0.8868
11507SOL    HW236676   2.872   7.732   7.598  1.4657  1.6262  1.2233
11508SOL     OW36677   7.222   9.534   3.989 -0.0886 -0.9499 -0.2983
11508SOL    HW136678   7.132   9.522   3.957 -0.3749 -0.2894  0.2227
11508SOL    HW236679   7.260   9.447   3.986  0.0840 -0.8606 -2.9210
11509SOL     OW36680   2.666   0.361   5.328 -0.6680  0.0197 -0.3507
11509SOL    HW136681   2.608   0.294   5.290 -1.0728 -0.8763  1.7486
11509SOL    HW236682   2.743   0.360   5.271 -1.5054 -0.7913 -1.5317
11510SOL     OW36683   0.886   2.715   4.872  0.6146 -0.8191  0.0944
11510SOL    HW136684   0.820   2.784   4.863  1.0213 -0.6917 -2.7357
11510SOL    HW236685   0.841   2.635   4.844  1.9395 -0.4732 -3.5053
11511SOL     OW36686   6.679   6.127   5.100  0.0081  0.2029 -0.0936
11511SOL    HW136687   6.702   6.077   5.022  0.9421  0.9705 -0.3383
11511SOL    HW236688   6.584   6.122   5.106 -0.0792  0.2164 -1.3431
11512SOL     OW36689   5.094   8.952   3.351  0.0381  0.5797  0.1339
11512SOL    HW136690   5.180   8.917   3.373  0.2931  0.7207 -0.6109
11512SOL    HW236691   5.107   9.047   3.348  0.3485  0.5178 -1.8913
11513SOL     OW36692   7.381   3.572   1.738 -0.1764 -0.2742  0.1338
11513SOL    HW136693   7.319   3.590   1.667 -0.9297  0.4528  0.9582
11513SOL    HW236694   7.330   3.523   1.802  1.0693 -2.9271 -0.7577
11514SOL     OW36695   5.588   5.042   4.029 -0.1608  0.4148 -0.0504
11514SOL    HW136696   5.535   5.016   4.104  0.8402 -0.1451  0.4809
11514SOL    HW236697   5.664   4.984   4.032  1.1306  2.0349 -0.0208
11515SOL     OW36698   1.792   1.640   3.540 -0.3364 -0.2139  0.2591
11515SOL    HW136699   1.773   1.586   3.617  0.0587  1.3128  1.4739
11515SOL    HW236700   1.883   1.668   3.552  0.0403 -0.6822 -1.2515
11516SOL     OW36701   6.876   9.309   9.462  1.0191  0.0687  0.5422
11516SOL    HW136702   6.817   9.293   9.389  1.1409  1.2492  0.1622
11516SOL    HW236703   6.880   9.225   9.509 -1.5286  0.1633  1.0288
11517SOL     OW36704   6.089   5.432   1.635 -0.4167  0.2044 -0.2432
11517SOL    HW136705   6.033   5.489   1.688 -1.1017 -1.0935  0.5048
11517SOL    HW236706   6.084   5.468   1.547 -0.4822  1.5302  0.2800
11518SOL     OW36707   6.989   1.233   0.715  0.1009  0.5529  0.3168
11518SOL    HW136708   6.941   1.173   0.774 -1.0685  0.8052 -0.3563
11518SOL    HW236709   7.081   1.219   0.738 -0.1588 -1.2727  0.4062
11519SOL     OW36710   1.924   1.276   2.633 -0.3643  0.0154  0.3969
11519SOL    HW136711   1.997   1.337   2.645  1.0485 -1.3311 -0.7914
11519SOL    HW236712   1.896   1.290   2.543  1.7838 -2.7998 -0.8589
11520SOL     OW36713   5.331   6.377   9.545 -0.4771  0.3923  0.1973
11520SOL    HW136714   5.352   6.364   9.452  0.9537  0.6368  0.4569
11520SOL    HW236715   5.264   6.311   9.564 -0.1920 -0.2156 -0.8134
11521SOL     OW36716   7.858   8.507   5.064  0.1482  0.2785 -0.5140
11521SOL    HW136717   7.832   8.573   5.129 -0.7221 -2.2059  1.8626
11521SOL    HW236718   7.918   8.449   5.112  0.3883 -1.0256 -2.3069
11522SOL     OW36719   1.622   1.485   1.701 -0.6045 -0.7064  0.4045
11522SOL    HW136720   1.560   1.557   1.692  0.6935  0.2736 -1.2381
11522SOL    HW236721   1.684   1.514   1.767  0.2090 -0.0303 -0.6110
11523SOL     OW36722   6.277   1.265   6.762  0.0757 -0.3836  0.4696
11523SOL    HW136723   6.372   1.272   6.777  0.5335 -0.8979 -1.7811
11523SOL    HW236724   6.251   1.352   6.734 -0.1160 -0.2499  1.0605
11524SOL     OW36725   2.157   3.356   8.893 -0.1602  0.0287 -0.1264
11524SOL    HW136726   2.095   3.337   8.822  0.5420 -2.6945 -0.0972
11524SOL    HW236727   2.236   3.307   8.869  0.5951  0.2287  1.8223
11525SOL     OW36728   2.205   0.495   0.512 -0.6895  0.4098  0.7080
11525SOL    HW136729   2.220   0.401   0.522 -1.3189  0.2441  0.1751
11525SOL    HW236730   2.180   0.505   0.420 -0.1942  1.1596  0.6492
11526SOL     OW36731   8.492   6.658   4.005 -0.2613 -0.3785 -0.4759
11526SOL    HW136732   8.583   6.646   3.978  0.1538 -0.6428  0.9375
11526SOL    HW236733   8.479   6.593   4.073 -0.8674  1.0074  0.7926
11527SOL     OW36734   9.239   4.023   2.147 -0.1459 -0.0601 -0.7349
11527SOL    HW136735   9.278   4.065   2.070 -0.4223 -0.6087 -1.1767
11527SOL    HW236736   9.310   4.018   2.210  0.0091  0.6639 -0.8389
11528SOL     OW36737   8.480   3.346   6.700 -0.3272  0.6865 -0.0080
11528SOL    HW136738   8.436   3.352   6.785  0.5188 -0.7636  0.5692
11528SOL    HW236739   8.428   3.282   6.651  0.3646 -0.0593  0.2071
11529SOL     OW36740   3.613   5.511   7.634 -0.1833 -0.3730 -0.1320
11529SOL    HW136741   3.519   5.528   7.630 -0.4490 -1.5666  0.5175
11529SOL    HW236742   3.620   5.426   7.676  1.3433  1.2216  3.1932
11530SOL     OW36743   0.836   0.536   7.121  0.1035  0.3809 -0.1742
11530SOL    HW136744   0.897   0.575   7.183  0.0759  0.3152 -0.1052
11530SOL    HW236745   0.890   0.508   7.048  0.5033 -1.7432  0.8540
11531SOL     OW36746   8.048   1.510   3.456  0.6873  0.2840  0.6226
11531SOL    HW136747   8.096   1.585   3.421  0.3525 -0.3144 -1.2643
11531SOL    HW236748   7.966   1.508   3.405 -0.0640 -0.3853  1.8031
11532SOL     OW36749   3.588   2.203   1.973  0.3068 -0.1304  0.2121
11532SOL    HW136750   3.632   2.119   1.965  2.1978  0.4975  2.7847
11532SOL    HW236751   3.644   2.265   1.926 -0.8159 -0.1746 -1.2469
11533SOL     OW36752   7.570   5.936   6.965  0.0818 -0.1148 -0.1538
11533SOL    HW136753   7.665   5.927   6.962  0.0889 -1.3553  1.7313
11533SOL    HW236754   7.541   5.917   6.876  1.6630  1.8749 -1.1627
11534SOL     OW36755   0.652   9.548   6.084  0.2915 -0.5762 -0.3963
11534SOL    HW136756   0.688   9.607   6.017  0.3945 -0.4273 -0.2099
11534SOL    HW236757   0.557   9.553   6.072  0.2263  0.6902  0.5159
11535SOL     OW36758   7.774   7.993   8.994 -0.3127 -0.5500 -0.1155
11535SOL    HW136759   7.824   8.058   9.043  0.6339 -0.7524 -0.7958
11535SOL    HW236760   7.833   7.963   8.925 -1.4996 -0.5111 -1.1936
11536SOL     OW36761   0.639   2.574   4.966  0.0707  0.6741  0.1659
11536SOL    HW136762   0.612   2.607   5.052  0.1843 -1.4070  1.0820
11536SOL    HW236763   0.713   2.516   4.985 -0.6504 -0.7588 -1.1540
11537SOL     OW36764   5.217   9.598   2.394  0.3610  0.5708 -0.1463
11537SOL    HW136765   5.183   9.655   2.325 -0.7155 -1.0873 -1.0428
11537SOL    HW236766   5.294   9.556   2.356  0.6627  0.7636  0.2280
11538SOL     OW36767   0.638   4.049   9.044 -0.1059  0.3988 -0.0000
11538SOL    HW136768   0.714   4.018   8.995 -0.8617 -1.1534 -0.2659
11538SOL    HW236769   0.569   4.057   8.977 -0.6089  0.1736  0.4853
11539SOL     OW36770   6.949   0.866   5.922  0.3993 -0.6028  0.1324
11539SOL    HW136771   6.915   0.786   5.963 -0.2361 -0.5944 -0.3696
11539SOL    HW236772   6.899   0.937   5.962  1.4724 -0.3666  1.1277
11540SOL     OW36773   3.456   0.542   7.865 -0.6436 -0.2497 -0.0933
11540SOL    HW136774   3.431   0.457   7.829 -0.4573 -0.2751 -0.1638
11540SOL    HW236775   3.546   0.530   7.895 -0.5715 -0.0398 -0.2252
11541SOL     OW36776   6.909   4.695   5.809 -0.1274  0.1928 -0.0722
11541SOL    HW136777   6.962   4.641   5.867  1.3859  1.0812 -0.5511
11541SOL    HW236778   6.826   4.648   5.801  0.7040 -1.4501  0.4360
11542SOL     OW36779   5.094   5.502   4.029  0.1422  0.1689 -0.1336
11542SOL    HW136780   5.025   5.554   4.069  0.5342 -0.4828  1.4552
11542SOL    HW236781   5.077   5.507   3.935 -0.7098  1.8853  0.0842
11543SOL     OW36782   0.124   9.259   2.502 -0.4270  0.4378 -0.3317
11543SOL    HW136783   0.203   9.213   2.476 -0.2245  0.9169 -0.5719
11543SOL    HW236784   0.053   9.213   2.457 -0.6840 -1.9234  2.2046
11544SOL     OW36785   7.267   8.574   4.293 -0.6265 -0.2853  0.4403
11544SOL    HW136786   7.184   8.528   4.283 -0.6447 -0.0080 -0.9064
11544SOL    HW236787   7.331   8.504   4.307 -1.0900 -0.4868  1.6839
11545SOL     OW36788   8.856   3.690   5.265  0.7544  0.2319 -0.2468
11545SOL    HW136789   8.838   3.600   5.241  3.1645 -0.0923 -1.0619
11545SOL    HW236790   8.868   3.688   5.360 -0.6969  0.0180 -0.0444
11546SOL     OW36791   3.021   6.533   2.486 -0.6356 -0.6527  0.0382
11546SOL    HW136792   2.935   6.546   2.447 -0.7000  0.6181  0.5481
11546SOL    HW236793   3.064   6.470   2.429 -1.6723 -0.8230 -0.5825
11547SOL     OW36794   3.802   8.385   2.131 -0.3300  0.0717 -0.1528
11547SOL    HW136795   3.830   8.344   2.049 -1.6532  1.2706 -1.2462
11547SOL    HW236796   3.733   8.446   2.105 -0.9762  0.2837  1.8975
11548SOL     OW36797   0.197   6.244   1.463  0.1018 -0.6310  0.1268
11548SOL    HW136798   0.269   6.188   1.492  0.9322  0.4092  0.1636
11548SOL    HW236799   0.161   6.280   1.544  0.7880  0.3164  0.0316
11549SOL     OW36800   8.755   6.997   9.391  0.0513  0.3155  0.0701
11549SOL    HW136801   8.743   6.999   9.486  0.5440 -0.9826  0.1763
11549SOL    HW236802   8.729   6.909   9.365 -2.0759  1.2480 -1.3111
11550SOL     OW36803   9.054   9.324   4.103 -0.4187  0.1208 -0.5191
11550SOL    HW136804   9.049   9.276   4.020 -0.1234  0.8150 -0.9452
11550SOL    HW236805   8.968   9.365   4.111 -0.1355  0.8166 -0.9576
11551SOL     OW36806   0.623   6.728   4.929  0.3300  0.0229 -0.2683
11551SOL    HW136807   0.612   6.810   4.977 -0.2275  1.2732 -2.4189
11551SOL    HW236808   0.718   6.712   4.931  0.1904 -1.2880  3.1793
11552SOL     OW36809   4.441   6.082   4.625  0.4537 -0.1308 -0.5612
11552SOL    HW136810   4.455   6.141   4.699  1.8601 -1.8877  0.6610
11552SOL    HW236811   4.471   6.132   4.549 -3.1572  2.5967 -0.4225
11553SOL     OW36812   0.610   6.856   7.508 -0.3846  0.2492  0.4853
11553SOL    HW136813   0.575   6.833   7.594  0.2883 -2.1837  0.1732
11553SOL    HW236814   0.589   6.781   7.452  0.7218  1.0107 -1.0261
11554SOL     OW36815   3.361   5.959   8.918 -0.7297 -0.1349  0.1868
11554SOL    HW136816   3.329   6.024   8.854 -2.0718 -0.7072  0.2296
11554SOL    HW236817   3.407   5.895   8.865 -0.4984  0.1980 -0.0184
11555SOL     OW36818   1.968   6.600   5.621  0.4034 -0.2423 -0.2264
11555SOL    HW136819   1.936   6.684   5.654  2.5935  1.1462 -1.3852
11555SOL    HW236820   1.891   6.557   5.585 -1.4259 -0.3114  3.3908
11556SOL     OW36821   7.649   9.333   0.605 -0.0196 -0.0495  0.5362
11556SOL    HW136822   7.725   9.360   0.553 -0.2151 -4.0114 -2.2711
11556SOL    HW236823   7.687   9.287   0.680  0.2636  0.7755  0.9179
11557SOL     OW36824   9.215   1.077   2.151  0.2979 -0.5349 -0.5089
11557SOL    HW136825   9.269   1.133   2.207 -0.2497 -0.9157  0.4145
11557SOL    HW236826   9.152   1.136   2.111 -2.2441 -0.7525  2.7279
11558SOL     OW36827   9.102   2.630   1.707 -0.5764  0.1960 -0.0667
11558SOL    HW136828   9.078   2.561   1.768 -1.0456  0.8164  0.4700
11558SOL    HW236829   9.198   2.633   1.709 -0.5983  1.0119  1.5828
11559SOL     OW36830   4.978   7.825   3.346 -0.0027  0.2755  0.1570
11559SOL    HW136831   5.052   7.807   3.288  0.3579 -0.4902  0.8250
11559SOL    HW236832   4.980   7.753   3.409 -0.5916  0.9086  0.9105
11560SOL     OW36833   3.197   3.854   9.045  0.2208  0.0561  0.0449
11560SOL    HW136834   3.235   3.940   9.064 -0.8731  0.3149  1.1603
11560SOL    HW236835   3.106   3.873   9.022 -1.2320 -1.0081  4.1282
11561SOL     OW36836   9.538   2.415   0.278 -0.0554 -0.2240  0.0926
11561SOL    HW136837   9.518   2.323   0.260 -2.2279 -0.1315  1.6028
11561SOL    HW236838   9.528   2.459   0.193 -2.4678 -0.8990 -0.0511
11562SOL     OW36839   6.724   6.791   6.569 -0.5378  0.2861  0.6588
11562SOL    HW136840   6.638   6.763   6.598 -0.9521 -1.2142 -1.7538
11562SOL    HW236841   6.709   6.875   6.525 -0.4562  0.7987  1.5593
11563SOL     OW36842   7.930   9.435   1.059  0.2121 -0.6973 -0.3580
11563SOL    HW136843   8.012   9.430   1.012  0.5969 -0.8876  0.3168
11563SOL    HW236844   7.895   9.522   1.039  1.2088 -0.1121  0.3709
11564SOL     OW36845   4.313   9.451   6.900 -0.1347  0.4169  0.2835
11564SOL    HW136846   4.406   9.470   6.914  0.2817 -1.5883  0.5223
11564SOL    HW236847   4.311   9.401   6.819 -1.1187  1.1224 -0.1406
11565SOL     OW36848   2.100   5.877   2.681  0.4192 -0.0739 -0.5229
11565SOL    HW136849   2.170   5.940   2.699  2.2891 -1.9809 -0.7201
11565SOL    HW236850   2.082   5.888   2.587  1.0412 -0.0982 -0.6540
11566SOL     OW36851   5.340   0.706   2.644  0.1770  0.5339  0.2221
11566SOL    HW136852   5.274   0.737   2.582  0.6017 -0.8999 -1.0156
11566SOL    HW236853   5.414   0.765   2.633  0.2080  0.3503 -0.5708
11567SOL     OW36854   6.660   4.267   0.953 -0.2217  0.2426  0.2909
11567SOL    HW136855   6.568   4.250   0.975 -0.4436  1.1352  0.0838
11567SOL    HW236856   6.659   4.283   0.859  0.0638  0.8079  0.3808
11568SOL     OW36857   1.777   7.214   6.422  0.1391 -0.9449 -0.4899
11568SOL    HW136858   1.837   7.241   6.492 -0.9496  1.3057 -0.3220
11568SOL    HW236859   1.820   7.244   6.341 -0.1069 -0.5796 -0.4874
11569SOL     OW36860   3.724   6.018   6.690 -0.1480 -0.1726  0.2172
11569SOL    HW136861   3.731   5.941   6.746  0.2859 -0.6932 -0.5225
11569SOL    HW236862   3.636   6.013   6.653 -1.6559  1.8585  3.1675
11570SOL     OW36863   3.578   7.771   8.740 -0.2919 -0.0641  0.7966
11570SOL    HW136864   3.554   7.687   8.703 -0.8798 -0.3964  1.8788
11570SOL    HW236865   3.578   7.757   8.835  0.2370  0.9849  0.9788
11571SOL     OW36866   7.073   8.936   1.883  0.1486 -0.3578  0.2032
11571SOL    HW136867   7.008   8.959   1.949 -0.2503  0.2396 -0.3795
11571SOL    HW236868   7.040   8.975   1.802  1.6899  0.7530  0.0582
11572SOL     OW36869   2.604   2.072   2.813  0.3856  0.3252  0.2712
11572SOL    HW136870   2.653   2.146   2.777 -1.0904  0.8815 -0.6985
11572SOL    HW236871   2.562   2.108   2.891  0.1305  0.3483  0.1237
11573SOL     OW36872   8.122   2.320   8.724  0.5354 -0.4313  0.7851
11573SOL    HW136873   8.165   2.404   8.741  1.0244 -0.6059  0.4483
11573SOL    HW236874   8.086   2.329   8.636 -0.0592 -0.3136  1.0375
11574SOL     OW36875   2.463   7.624   1.867 -0.0724 -0.2813  0.1474
11574SOL    HW136876   2.424   7.708   1.890 -4.2257 -1.7797 -0.5557
11574SOL    HW236877   2.451   7.569   1.944 -0.5276 -1.1540 -0.5234
11575SOL     OW36878   2.342   1.571   9.618  0.2896 -0.3825  0.1366
11575SOL    HW136879   2.294   1.488   9.616 -0.3126 -0.0796  1.2777
11575SOL    HW236880   2.311   1.619   9.541 -0.0979 -0.8060  0.0264
11576SOL     OW36881   0.652   0.720   1.972  0.4222  0.1109 -0.0565
11576SOL    HW136882   0.567   0.719   2.017 -0.7972  1.9352 -2.0861
11576SOL    HW236883   0.688   0.633   1.985 -1.7876 -0.7310  0.8706
11577SOL     OW36884   2.616   1.525   4.497  0.5325  0.0122  0.2787
11577SOL    HW136885   2.568   1.483   4.568  2.7398 -0.8856  1.3360
11577SOL    HW236886   2.605   1.619   4.513 -1.8323 -0.1053 -0.2688
11578SOL     OW36887   6.887   6.132   0.514  0.3451 -0.8463 -0.2335
11578SOL    HW136888   6.973   6.108   0.481  1.5048  2.6581 -0.1445
11578SOL    HW236889   6.831   6.134   0.435  0.8888 -0.9659 -0.6281
11579SOL     OW36890   1.084   2.802   3.604 -0.1399 -0.2387 -0.3131
11579SOL    HW136891   1.089   2.823   3.697  1.1881  0.5824 -0.5400
11579SOL    HW236892   1.172   2.819   3.571 -0.8820  0.6063 -1.9675
11580SOL     OW36893   8.959   6.598   0.063  0.2649 -0.2220  0.3285
11580SOL    HW136894   9.015   6.672   0.039  0.0805 -0.6917 -1.6433
11580SOL    HW236895   9.007   6.555   0.135  0.0625  2.1284  2.0010
11581SOL     OW36896   7.126   0.202   3.773  0.0703  0.4165  0.2472
11581SOL    HW136897   7.104   0.180   3.683 -0.6273  0.1216  0.4823
11581SOL    HW236898   7.216   0.172   3.784 -0.6301 -1.8453  0.3712
11582SOL     OW36899   8.917   4.762   3.002  0.1408  0.1296  0.0011
11582SOL    HW136900   8.931   4.823   2.929 -1.1440  1.4589  0.8331
11582SOL    HW236901   8.934   4.675   2.963  0.0130  0.8346 -1.7316
11583SOL     OW36902   8.256   3.286   9.266  0.6073  0.1529  0.3446
11583SOL    HW136903   8.161   3.280   9.253  0.5105  1.0556  0.5588
11583SOL    HW236904   8.268   3.366   9.316  1.6549  1.2517 -1.5569
11584SOL     OW36905   9.145   6.096   8.350 -0.4776  0.4471  0.1231
11584SOL    HW136906   9.068   6.050   8.317  0.2105  0.4316 -1.6224
11584SOL    HW236907   9.190   6.033   8.405 -0.1059 -0.6594 -1.3793
11585SOL     OW36908   0.701   8.171   4.714 -0.2563  0.1257  0.1839
11585SOL    HW136909   0.664   8.240   4.658 -0.2431  0.5751  0.7139
11585SOL    HW236910   0.733   8.218   4.791  2.5640 -0.0645 -0.7629
11586SOL     OW36911   3.616   3.919   6.346  0.5334 -0.2053 -0.2066
11586SOL    HW136912   3.528   3.953   6.361  0.0599  0.0070 -3.0009
11586SOL    HW236913   3.607   3.824   6.354  0.1971 -0.1463  0.1351
11587SOL     OW36914   5.018   6.899   4.028 -0.4957  0.4281 -0.4352
11587SOL    HW136915   5.013   6.995   4.023  0.7044  0.4939 -0.6016
11587SOL    HW236916   5.043   6.881   4.119  0.1755  0.3256 -0.6339
11588SOL     OW36917   3.950   8.053   5.247  0.3319  0.0273 -0.2266
11588SOL    HW136918   3.921   8.140   5.274  2.9265  0.4245  1.6750
11588SOL    HW236919   3.926   7.996   5.321  2.6085  0.0495  0.5876
11589SOL     OW36920   5.165   2.479   5.697  0.2667 -0.2358  0.1307
11589SOL    HW136921   5.219   2.487   5.618 -0.8974 -3.8571 -1.2502
11589SOL    HW236922   5.089   2.534   5.679 -0.4427 -1.7318 -1.8164
11590SOL     OW36923   7.107   4.105   7.484  0.1855 -0.4399  0.1993
11590SOL    HW136924   7.087   4.157   7.406 -0.9732 -1.0957  0.0328
11590SOL    HW236925   7.058   4.024   7.472  1.3775 -1.2768  0.7989
11591SOL     OW36926   9.126   8.172   8.862 -0.2004 -0.1028  0.3258
11591SOL    HW136927   9.073   8.092   8.859  1.6173 -1.3785  0.6552
11591SOL    HW236928   9.160   8.175   8.952  0.0943  0.8115  0.1934
11592SOL     OW36929   1.071   7.877   0.185 -0.2069 -0.0726  0.0627
11592SOL    HW136930   1.094   7.785   0.172 -1.3508 -0.2895 -0.5609
11592SOL    HW236931   1.093   7.894   0.277 -3.5088 -2.0964  1.3954
11593SOL     OW36932   2.703   0.196   4.267  0.1988  0.4054 -0.4152
11593SOL    HW136933   2.680   0.246   4.346 -1.6592 -2.5585  1.1271
11593SOL    HW236934   2.781   0.146   4.292  1.1287  1.2927 -1.4139
11594SOL     OW36935   8.350   4.031   8.426  0.0308  0.4703  0.0983
11594SOL    HW136936   8.299   4.095   8.476  0.4551  1.3905 -0.6169
11594SOL    HW236937   8.306   4.027   8.341  0.2072  0.0562  0.0224
11595SOL     OW36938   3.567   8.052   0.299  0.8902  0.4088 -0.4980
11595SOL    HW136939   3.491   8.051   0.241 -1.0205 -0.2119  1.8994
11595SOL    HW236940   3.574   8.143   0.328 -0.0732  0.1442  0.6354
11596SOL     OW36941   2.139   9.271   3.650 -0.0064  0.0275 -0.2222
11596SOL    HW136942   2.110   9.187   3.615  0.6257  0.2575 -1.3417
11596SOL    HW236943   2.122   9.265   3.744 -1.4567 -0.7410 -0.4955
11597SOL     OW36944   1.935   2.447   3.634 -0.1863 -0.2842 -0.1083
11597SOL    HW136945   1.932   2.357   3.668 -1.1228 -0.6119 -0.9847
11597SOL    HW236946   1.851   2.458   3.589  0.2100  0.7954 -0.6230
11598SOL     OW36947   7.822   0.602   5.446  0.2484  0.3334 -0.4132
11598SOL    HW136948   7.826   0.647   5.361  0.8123  1.2840  0.1152
11598SOL    HW236949   7.728   0.585   5.458  0.2508 -0.9399 -1.7905
11599SOL     OW36950   7.358   0.794   1.069  0.1574 -0.1540  0.1293
11599SOL    HW136951   7.415   0.755   1.136  0.5872  1.7100  0.9249
11599SOL    HW236952   7.400   0.877   1.048 -1.2247  0.3506 -0.7512
11600SOL     OW36953   6.541   1.920   7.859  0.1363 -1.0193  0.3174
11600SOL    HW136954   6.506   2.001   7.823  1.8608 -0.8743 -1.1811
11600SOL    HW236955   6.476   1.891   7.923 -1.0386  0.9432  0.0693
11601SOL     OW36956   1.962   9.282   8.183  0.4008 -0.0241  0.2794
11601SOL    HW136957   1.890   9.229   8.218  0.5972  0.1377  0.9455
11601SOL    HW236958   1.981   9.344   8.253  0.3398  0.7687 -0.4006
11602SOL     OW36959   3.069   0.581   6.316  0.3799  0.1970 -0.0574
11602SOL    HW136960   3.052   0.655   6.258  2.7099  1.0993  0.3036
11602SOL    HW236961   3.165   0.577   6.323  0.2288 -0.2447  3.2198
11603SOL     OW36962   7.252   4.835   6.753 -0.0126  0.2298  0.3913
11603SOL    HW136963   7.223   4.880   6.674  1.1179  0.3425  0.0226
11603SOL    HW236964   7.228   4.743   6.737  1.6720 -0.0373 -0.8314
11604SOL     OW36965   0.761   9.019   8.757 -0.9214 -0.0529  0.0417
11604SOL    HW136966   0.671   9.044   8.775 -0.6008  1.6989 -0.6255
11604SOL    HW236967   0.769   9.020   8.662 -0.5409 -1.5210  0.0380
11605SOL     OW36968   1.318   0.069   7.817  0.2874  0.4222 -0.2287
11605SOL    HW136969   1.257   0.007   7.776 -0.6796  0.6991  0.7223
11605SOL    HW236970   1.261   0.130   7.864  1.3073 -0.2576  2.0729
11606SOL     OW36971   9.230   2.659   4.508 -0.1278 -0.3632  0.1211
11606SOL    HW136972   9.302   2.696   4.458  1.6428 -3.5731  0.0487
11606SOL    HW236973   9.236   2.701   4.594  1.4595 -0.1305 -0.0831
11607SOL     OW36974   0.800   8.516   3.425 -0.3917 -0.0808 -0.3374
11607SOL    HW136975   0.822   8.567   3.347  1.5569  0.9003  0.7798
11607SOL    HW236976   0.752   8.577   3.481  0.0414 -0.1180  0.0871
11608SOL     OW36977   1.933   2.614   7.940 -0.1276 -0.4796  0.0914
11608SOL    HW136978   1.946   2.704   7.971 -1.9080  0.2287 -1.0626
11608SOL    HW236979   1.887   2.571   8.012 -0.0781 -0.1946  0.2967
11609SOL     OW36980   4.027   6.183   3.571  0.0941 -0.2431  0.6481
11609SOL    HW136981   4.018   6.249   3.502  2.4465 -0.2667  0.2341
11609SOL    HW236982   3.942   6.140   3.575 -1.2761  2.2477  0.3671
11610SOL     OW36983   4.713   2.285   7.525  0.1456 -0.2946  0.4725
11610SOL    HW136984   4.658   2.228   7.578  2.7662 -1.3006  2.3230
11610SOL    HW236985   4.711   2.369   7.571  0.3987 -0.4171  0.7066
11611SOL     OW36986   1.357   0.862   4.659  0.6676 -0.2499  0.0403
11611SOL    HW136987   1.335   0.844   4.567 -1.3711 -0.7435  0.5654
11611SOL    HW236988   1.373   0.775   4.697 -0.1427 -0.2116  0.5013
11612SOL     OW36989   8.518   9.429   7.778  0.4538 -0.0351 -0.1717
11612SOL    HW136990   8.480   9.343   7.757  1.1651 -0.3421 -0.2254
11612SOL    HW236991   8.538   9.424   7.872  1.1336 -0.1807 -0.3228
11613SOL     OW36992   2.249   7.669   0.688 -0.3154  0.2664 -0.0613
11613SOL    HW136993   2.276   7.635   0.773 -0.3398 -0.1718 -0.2288
11613SOL    HW236994   2.330   7.702   0.649  0.2478 -2.1003 -1.0545
11614SOL     OW36995   9.151   0.999   3.085  0.3184 -0.4827  0.0224
11614SOL    HW136996   9.115   1.017   3.172  0.0035 -0.9135 -0.0173
11614SOL    HW236997   9.074   0.985   3.030  0.5106 -0.0406 -0.3647
11615SOL     OW36998   5.608   7.636   2.530  0.5790 -0.3326  0.2730
11615SOL    HW136999   5.662   7.642   2.608  0.4536 -1.1088  0.4303
11615SOL    HW237000   5.653   7.690   2.465  0.7159  0.2644  0.8586
11616SOL     OW37001   7.464   2.300   8.088 -0.2825 -0.7880  0.1641
11616SOL    HW137002   7.399   2.364   8.117 -1.5430 -2.0918  0.3116
11616SOL    HW237003   7.514   2.345   8.021 -1.2800  0.2801  0.1103
11617SOL     OW37004   3.474   4.695   6.448 -0.4827  0.8734 -0.1532
11617SOL    HW137005   3.471   4.748   6.527 -0.8986  1.2555 -0.4204
11617SOL    HW237006   3.383   4.688   6.421 -0.2725  1.4054 -1.0336
11618SOL     OW37007   8.340   0.013   5.378  0.0489 -0.2363  0.4746
11618SOL    HW137008   8.418  -0.026   5.339 -0.4635 -0.5006 -0.3138
11618SOL    HW237009   8.267  -0.031   5.334 -0.5523 -0.6496  1.8587
11619SOL     OW37010   4.482   4.872   0.252  0.4054  0.3339 -0.5892
11619SOL    HW137011   4.506   4.870   0.345 -0.0012  1.6793 -0.4333
11619SOL    HW237012   4.559   4.837   0.207  0.4568 -0.7133  0.2719
11620SOL     OW37013   2.199   6.539   2.856  0.5135  0.4174 -0.0406
11620SOL    HW137014   2.277   6.572   2.902  1.1217  0.6777 -1.2397
11620SOL    HW237015   2.128   6.548   2.920  1.5051 -0.0701  1.1699
11621SOL     OW37016   4.895   8.150   4.476 -0.3933  0.0494 -0.2532
11621SOL    HW137017   4.886   8.164   4.570 -0.3295  1.0142 -0.3869
11621SOL    HW237018   4.899   8.055   4.466  0.2529 -0.0366  0.7780
11622SOL     OW37019   2.292   3.261   7.154  0.4303  0.3716  0.4751
11622SOL    HW137020   2.264   3.227   7.069 -0.1461  1.6590  0.1146
11622SOL    HW237021   2.313   3.184   7.206  2.5663 -0.4095 -1.4035
11623SOL     OW37022   8.743   7.790   4.915  0.0807  0.0720  0.0085
11623SOL    HW137023   8.666   7.735   4.926 -0.0180  0.2493  0.2253
11623SOL    HW237024   8.816   7.729   4.908 -0.0562 -0.0914 -0.0007
11624SOL     OW37025   4.644   3.353   0.829  0.0603  0.0184  0.1953
11624SOL    HW137026   4.722   3.352   0.774 -0.1337  1.9368 -0.1734
11624SOL    HW237027   4.671   3.311   0.911  1.0598 -0.5652 -0.4183
11625SOL     OW37028   0.520   3.125   1.651  0.0455  0.4982  0.0901
11625SOL    HW137029   0.603   3.129   1.602 -0.4193  1.8946 -0.6627
11625SOL    HW237030   0.542   3.157   1.738  0.4683  0.0598  0.1448
11626SOL     OW37031   0.922   7.299   2.562 -0.1638 -0.2530 -0.0597
11626SOL    HW137032   0.889   7.388   2.557 -1.1073 -0.4518  1.8491
11626SOL    HW237033   1.016   7.307   2.548 -0.2003  1.0784  0.3528
11627SOL     OW37034   4.921   8.906   2.840  0.2010 -0.1517  0.3541
11627SOL    HW137035   4.927   8.975   2.907 -0.2576  0.6223 -0.3946
11627SOL    HW237036   4.835   8.866   2.854  0.0160  0.1533  0.0896
11628SOL     OW37037   6.590   3.731   5.784  0.0504 -0.6208  0.1760
11628SOL    HW137038   6.588   3.752   5.690  1.8634  2.2212  0.6480
11628SOL    HW237039   6.683   3.715   5.802 -0.3591 -1.7391  1.4109
11629SOL     OW37040   1.720   5.411   8.725 -0.5923 -0.3257 -0.2675
11629SOL    HW137041   1.676   5.327   8.711 -0.9316 -0.6000  2.0021
11629SOL    HW237042   1.807   5.388   8.758 -1.0291  0.1576  1.3170
11630SOL     OW37043   7.193   2.267   6.727  0.5661  0.1938  0.4323
11630SOL    HW137044   7.268   2.231   6.775  0.3658  0.0670  0.6508
11630SOL    HW237045   7.209   2.241   6.636  0.5418 -0.2527  0.5517
11631SOL     OW37046   1.988   1.792   6.894 -0.1021  0.3541  0.7017
11631SOL    HW137047   1.971   1.885   6.879  1.1158  0.6270  0.8612
11631SOL    HW237048   2.071   1.776   6.849 -0.0230 -0.5240  1.1421
11632SOL     OW37049   2.488   9.358   9.342  0.3702  0.0689  0.1054
11632SOL    HW137050   2.543   9.428   9.377  0.9329 -0.0798 -0.4648
11632SOL    HW237051   2.515   9.350   9.251 -0.0124 -0.5818  0.0442
11633SOL     OW37052   0.006   8.493   5.336  0.3565 -0.6945 -0.0654
11633SOL    HW137053  -0.053   8.567   5.345  1.8064  0.4067  0.8349
11633SOL    HW237054   0.077   8.525   5.281  0.7128 -1.6106 -0.1546
11634SOL     OW37055   6.730   0.261   5.989  0.4854  0.2350  0.0271
11634SOL    HW137056   6.813   0.308   5.977  0.7180 -0.3198 -0.6072
11634SOL    HW237057   6.714   0.220   5.904  0.1386 -0.5967  0.4820
11635SOL     OW37058   6.428   6.576   5.133 -0.4001 -0.3926  0.1014
11635SOL    HW137059   6.429   6.497   5.186  0.5965 -1.3471 -1.2801
11635SOL    HW237060   6.341   6.614   5.147  0.4492  0.5690  4.0118
11636SOL     OW37061   7.001   6.855   3.719 -0.0318 -0.0194  0.6644
11636SOL    HW137062   6.991   6.889   3.808  0.4659  0.2589  0.6162
11636SOL    HW237063   6.970   6.765   3.724  0.4553 -0.1597  1.2357
11637SOL     OW37064   4.649   4.687   2.672 -0.0961 -0.1571  0.5600
11637SOL    HW137065   4.560   4.693   2.707  0.1185  1.3268  0.9478
11637SOL    HW237066   4.698   4.640   2.739 -0.5908 -1.0073  0.3315
11638SOL     OW37067   1.633   2.339   3.017  0.1902  0.4006 -0.8996
11638SOL    HW137068   1.648   2.427   3.051  0.8481  0.4567 -1.3152
11638SOL    HW237069   1.545   2.342   2.979 -0.7723  0.2043  1.1858
11639SOL     OW37070   6.818   2.877   7.447 -0.0074  0.1095 -0.0561
11639SOL    HW137071   6.796   2.959   7.405 -1.0911  0.2950  0.8290
11639SOL    HW237072   6.876   2.901   7.519  0.7334 -0.0638 -0.5735
11640SOL     OW37073   3.022   8.426   5.301  0.5923  0.1904  0.0008
11640SOL    HW137074   3.002   8.420   5.394 -1.6123  3.1677 -0.1204
11640SOL    HW237075   3.070   8.509   5.292 -1.2109  1.1416 -1.6665
11641SOL     OW37076   4.498   2.798   4.820  0.2422  0.0776 -0.2460
11641SOL    HW137077   4.455   2.864   4.874  0.2174 -0.2970  0.2074
11641SOL    HW237078   4.568   2.764   4.875  2.2526  1.8591 -1.5882
11642SOL     OW37079   7.001   0.738   7.940  0.2417 -0.1654  0.1401
11642SOL    HW137080   7.033   0.822   7.908  1.1308 -0.3722  0.4476
11642SOL    HW237081   6.937   0.761   8.007 -0.3716  0.2613 -0.5741
11643SOL     OW37082   4.498   2.349   3.328 -0.2559  0.1301  0.0604
11643SOL    HW137083   4.477   2.332   3.236  2.8070  0.7272 -0.8472
11643SOL    HW237084   4.525   2.264   3.363 -1.4230 -0.0976  0.4850
11644SOL     OW37085   6.872   2.986   5.409 -0.0990  0.2125  0.1706
11644SOL    HW137086   6.912   2.944   5.334  0.3093 -0.0015  0.5036
11644SOL    HW237087   6.876   3.080   5.390 -0.6173  0.1281 -0.3744
11645SOL     OW37088   7.291   9.331   8.407 -0.3809 -0.6586 -0.1285
11645SOL    HW137089   7.204   9.290   8.407 -0.1776 -1.2401 -2.3051
11645SOL    HW237090   7.299   9.368   8.319  0.8311  1.1039  0.6680
11646SOL     OW37091   3.541   2.727   3.033  0.2416 -0.3825 -0.6750
11646SOL    HW137092   3.454   2.689   3.029 -0.3095  0.8450 -0.6968
11646SOL    HW237093   3.591   2.680   2.966  0.2233 -2.5344  0.7305
11647SOL     OW37094   1.947   3.047   3.410 -0.1115 -0.3622 -0.1754
11647SOL    HW137095   1.927   3.006   3.494  0.2190 -0.1866 -0.0109
11647SOL    HW237096   2.014   3.112   3.430  0.3969 -0.7254 -0.6651
11648SOL     OW37097   7.318   0.159   3.998 -0.0843  0.5290 -0.2956
11648SOL    HW137098   7.295   0.069   4.022  0.3282  0.2157 -1.0499
11648SOL    HW237099   7.237   0.209   4.011 -0.4992 -0.0808 -0.5137
11649SOL     OW37100   8.003   3.396   1.905 -0.4197 -0.2386 -0.1877
11649SOL    HW137101   8.003   3.318   1.849 -0.8985 -0.5489  0.2319
11649SOL    HW237102   7.924   3.387   1.959  0.8721 -0.8361  1.7178
11650SOL     OW37103   1.071   2.860   2.556 -0.8609 -0.3435 -0.4040
11650SOL    HW137104   1.135   2.789   2.557  0.8996  1.1675  1.2238
11650SOL    HW237105   0.997   2.825   2.605 -0.2182 -1.2157 -0.0163
11651SOL     OW37106   2.999   6.376   6.807  0.0374 -0.8887 -0.5185
11651SOL    HW137107   3.039   6.436   6.869  0.7776 -0.3046 -1.5424
11651SOL    HW237108   3.070   6.349   6.749 -0.6959 -1.1543 -1.3277
11652SOL     OW37109   5.556   5.433   1.028 -0.4037  0.0670 -0.3933
11652SOL    HW137110   5.524   5.470   0.946 -0.2185 -0.3328 -0.6483
11652SOL    HW237111   5.479   5.392   1.068 -1.2992  2.9922  1.2177
11653SOL     OW37112   3.535   9.363   5.900 -0.4046  0.3254  0.4481
11653SOL    HW137113   3.599   9.431   5.921  0.5561 -0.3936 -0.0856
11653SOL    HW237114   3.521   9.372   5.806  0.0906 -0.5162  0.2904
11654SOL     OW37115   6.003   3.575   2.973 -0.4673  0.1321  0.1238
11654SOL    HW137116   6.024   3.644   2.910 -0.3792  2.1894  2.2718
11654SOL    HW237117   6.085   3.527   2.984  1.0082  2.7943  2.1228
11655SOL     OW37118   2.866   1.806   3.275  0.4477 -0.1697  0.7314
11655SOL    HW137119   2.872   1.808   3.180  2.3233  1.0692  0.8157
11655SOL    HW237120   2.780   1.767   3.293 -0.4913  0.7093 -1.4660
11656SOL     OW37121   5.598   0.966   7.291 -0.3630 -0.3601  0.2511
11656SOL    HW137122   5.551   1.037   7.334 -1.5494 -0.7324 -0.3976
11656SOL    HW237123   5.537   0.933   7.225  1.2050 -0.1192 -1.4019
11657SOL     OW37124   8.475   1.322   4.804  0.1437 -0.1238 -0.2611
11657SOL    HW137125   8.538   1.378   4.758  0.3659  0.0511  0.2522
11657SOL    HW237126   8.470   1.358   4.892 -0.5348 -0.2580 -0.2397
11658SOL     OW37127   0.959   8.035   9.333  0.6441 -0.5940  0.1166
11658SOL    HW137128   0.930   8.104   9.273 -0.8374 -1.8654 -0.7224
11658SOL    HW237129   1.043   8.006   9.298  1.7516  1.3630  1.0208
11659SOL     OW37130   3.548   1.035   4.100  0.1675 -0.5482  0.1769
11659SOL    HW137131   3.590   1.027   4.015 -0.6298  0.5790 -0.3396
11659SOL    HW237132   3.456   1.017   4.084  0.3707 -3.0239  1.3020
11660SOL     OW37133   5.679   8.537   1.335  0.5162  0.3424 -0.0138
11660SOL    HW137134   5.742   8.561   1.402  0.3863  0.7225 -0.0262
11660SOL    HW237135   5.630   8.464   1.373  1.1193 -0.1199 -0.1004
11661SOL     OW37136   8.178   2.839   1.986 -0.3718 -0.0609 -0.6801
11661SOL    HW137137   8.179   2.934   1.980 -2.2273  0.2206  1.9943
11661SOL    HW237138   8.269   2.815   2.004 -0.1301  1.3470  0.1321
11662SOL     OW37139   2.166   0.767   4.188  0.9833  0.0269  0.2698
11662SOL    HW137140   2.230   0.837   4.174  1.1178 -0.2000 -0.2821
11662SOL    HW237141   2.104   0.776   4.116  0.3722  0.2574  0.8130
11663SOL     OW37142   9.121   6.807   7.332  0.1157  0.3353  0.0219
11663SOL    HW137143   9.048   6.864   7.305 -0.6103 -0.9205 -0.7384
11663SOL    HW237144   9.199   6.862   7.320 -0.7194  1.9570  1.5478
11664SOL     OW37145   4.538   8.668   0.759  0.1677 -0.7746 -0.3765
11664SOL    HW137146   4.513   8.746   0.709  1.8012 -1.4223 -2.3538
11664SOL    HW237147   4.455   8.634   0.793 -0.4547  3.1198  2.8106
11665SOL     OW37148   7.454   7.153   5.759  0.4873  0.2642 -0.0130
11665SOL    HW137149   7.419   7.205   5.831  0.3278  0.7402 -0.4347
11665SOL    HW237150   7.486   7.073   5.802 -1.4319 -0.3571  0.3424
11666SOL     OW37151   8.561   4.523   7.257 -0.2837 -0.0065 -0.2162
11666SOL    HW137152   8.576   4.573   7.177  0.6260  1.0221  0.5735
11666SOL    HW237153   8.618   4.564   7.322 -1.1547 -0.6895  1.0110
11667SOL     OW37154   6.977   0.786   7.615 -0.6052 -0.0226 -0.1283
11667SOL    HW137155   6.889   0.801   7.648 -0.0289 -0.7746  1.8863
11667SOL    HW237156   6.965   0.727   7.541 -1.7718 -0.5149  0.4188
11668SOL     OW37157   0.473   2.603   5.809  0.2080  0.7407 -0.3577
11668SOL    HW137158   0.545   2.650   5.767 -2.6225  3.2032 -2.9577
11668SOL    HW237159   0.453   2.652   5.888  2.6056 -1.2357  1.6262
11669SOL     OW37160   5.775   9.142   5.030  0.1935  0.9914  0.0751
11669SOL    HW137161   5.762   9.059   5.075  0.1310  1.1233  0.3007
11669SOL    HW237162   5.688   9.168   5.000  0.3729  0.4209 -0.9818
11670SOL     OW37163   3.385   8.589   0.663  0.0239  0.4700  0.3509
11670SOL    HW137164   3.365   8.640   0.584 -0.7381  0.1403  0.3194
11670SOL    HW237165   3.336   8.508   0.653  1.1562 -0.2464  0.4512
11671SOL     OW37166   7.433   1.241   5.114 -0.1588  0.4390 -0.9163
11671SOL    HW137167   7.494   1.234   5.041  0.4272  0.1235 -0.4041
11671SOL    HW237168   7.425   1.335   5.129  1.2539  0.4635 -0.1290
11672SOL     OW37169   7.810   3.945   3.129 -0.3788  0.4144 -0.7856
11672SOL    HW137170   7.795   3.901   3.212 -1.9526  1.3503 -0.5323
11672SOL    HW237171   7.797   3.876   3.063  0.0092 -0.1364 -0.2897
11673SOL     OW37172   1.385   7.371   4.978  0.0886 -0.2103  0.5210
11673SOL    HW137173   1.419   7.452   4.941  1.4666 -1.6913 -1.6953
11673SOL    HW237174   1.452   7.345   5.042  1.5539 -1.3760 -1.3860
11674SOL     OW37175   7.286   9.291   0.889  0.0652  0.4973  0.2382
11674SOL    HW137176   7.305   9.298   0.795  2.4286  3.4461  0.8202
11674SOL    HW237177   7.210   9.348   0.902 -0.1568  0.2213  0.1682
11675SOL     OW37178   5.549   3.916   9.446  0.2247  0.1802 -0.2265
11675SOL    HW137179   5.544   3.821   9.439  3.0723 -0.0751 -0.2053
11675SOL    HW237180   5.535   3.934   9.539 -1.6200 -0.0473 -0.4344
11676SOL     OW37181   0.216   7.732   1.432  0.2066  0.0119  0.3671
11676SOL    HW137182   0.302   7.763   1.462  0.7729  0.3678 -1.4946
11676SOL    HW237183   0.177   7.807   1.387 -0.4944 -0.5433  0.0169
11677SOL     OW37184   3.009   8.574   6.339  0.4339 -0.1586  0.1134
11677SOL    HW137185   2.938   8.639   6.344  1.6768  1.1928  0.9071
11677SOL    HW237186   2.997   8.519   6.417 -1.4373 -1.8527 -1.2474
11678SOL     OW37187   4.625   7.192   7.768  0.0251  0.5324 -0.2213
11678SOL    HW137188   4.670   7.111   7.745 -0.0378  0.6752 -0.8782
11678SOL    HW237189   4.692   7.246   7.809 -0.1227 -0.1481  0.9399
11679SOL     OW37190   4.109   7.083   2.767  0.5209  0.1939 -0.1052
11679SOL    HW137191   4.119   7.177   2.753  1.5660  0.1097 -0.0130
11679SOL    HW237192   4.094   7.074   2.861 -0.0684  0.2983 -0.1862
11680SOL     OW37193   7.749   0.370   6.085  0.6625 -0.9022  0.8236
11680SOL    HW137194   7.833   0.416   6.092  0.3842 -0.4366  1.2346
11680SOL    HW237195   7.684   0.439   6.097  0.2276 -1.3493  1.0527
11681SOL     OW37196   2.508   7.306   1.103 -0.2240  1.0599  0.5037
11681SOL    HW137197   2.523   7.219   1.064  0.4573  1.4013 -0.0226
11681SOL    HW237198   2.583   7.319   1.161  1.0498  2.3434 -1.3377
11682SOL     OW37199   8.624   6.523   2.699 -0.0340 -0.7572 -0.0150
11682SOL    HW137200   8.582   6.438   2.695  0.5501 -0.9995 -2.0170
11682SOL    HW237201   8.553   6.586   2.687 -0.0961 -1.1057 -1.6955
11683SOL     OW37202   8.246   8.456   3.349 -0.1361 -0.7229  0.2505
11683SOL    HW137203   8.264   8.452   3.443  0.5345 -2.2302  0.0936
11683SOL    HW237204   8.240   8.364   3.322 -1.1045 -0.3113 -1.0466
11684SOL     OW37205   7.955   3.631   7.158  0.2676 -0.3847  0.1871
11684SOL    HW137206   8.001   3.712   7.177  1.4591 -0.5678 -1.7541
11684SOL    HW237207   7.864   3.658   7.143  0.3942  0.4016  0.7662
11685SOL     OW37208   6.607   9.422   7.857 -0.0180 -0.0109  0.6443
11685SOL    HW137209   6.603   9.332   7.888  0.6348 -0.1111  0.4579
11685SOL    HW237210   6.666   9.466   7.918 -0.5587  0.3682  0.9074
11686SOL     OW37211   1.155   9.015   4.324  0.0040 -0.1642 -0.0118
11686SOL    HW137212   1.159   9.051   4.236 -0.4090  1.5637  0.6299
11686SOL    HW237213   1.205   9.077   4.377 -0.3945 -0.7664  1.0945
11687SOL     OW37214   8.921   9.157   5.780  0.2417  0.5271 -0.2991
11687SOL    HW137215   8.954   9.243   5.805 -1.5612  0.7632  1.5134
11687SOL    HW237216   8.826   9.162   5.795 -0.4091 -0.7863 -3.1512
11688SOL     OW37217   4.476   2.718   0.632 -0.2096  0.2239  0.1895
11688SOL    HW137218   4.514   2.762   0.708 -2.3733  1.5048  0.6239
11688SOL    HW237219   4.446   2.634   0.665  0.6022 -0.0420  0.2654
11689SOL     OW37220   4.460   9.000   8.452 -0.4634  0.5520  0.0369
11689SOL    HW137221   4.469   8.905   8.460  1.7177  0.8352  2.0189
11689SOL    HW237222   4.529   9.025   8.390  0.0386  0.9647  0.7433
11690SOL     OW37223   6.771   1.934   5.016  0.6498 -0.0429 -0.6495
11690SOL    HW137224   6.721   1.911   4.937 -0.8334 -0.3028  0.3120
11690SOL    HW237225   6.767   1.855   5.070  2.9742 -0.4054 -0.9117
11691SOL     OW37226   6.693   6.710   3.501 -0.1926  0.1527 -0.0235
11691SOL    HW137227   6.627   6.766   3.460  0.4216  1.4003  0.6351
11691SOL    HW237228   6.712   6.643   3.435 -1.0572  0.6305 -0.7742
11692SOL     OW37229   7.087   4.886   9.214  0.1236  0.1505 -0.1104
11692SOL    HW137230   7.119   4.806   9.173 -1.0866 -0.7326  0.6163
11692SOL    HW237231   6.997   4.895   9.183  0.0683  0.9410  0.2437
11693SOL     OW37232   7.325   2.092   6.412  0.1337  0.2339  0.3337
11693SOL    HW137233   7.269   2.170   6.417  1.5770  1.2788  1.0296
11693SOL    HW237234   7.369   2.100   6.328  0.5741  0.3760  0.5778
11694SOL     OW37235   8.795   8.935   1.146 -0.1492  0.0716  0.0623
11694SOL    HW137236   8.708   8.939   1.106  0.1910 -1.0274 -0.8496
11694SOL    HW237237   8.851   8.984   1.086  0.1900 -0.7872 -0.3356
11695SOL     OW37238   1.648   0.573   5.353  0.3227 -0.1797 -0.7890
11695SOL    HW137239   1.681   0.651   5.396  1.6983 -1.1743  0.0500
11695SOL    HW237240   1.553   0.581   5.357  0.4466  0.7284  0.6179
11696SOL     OW37241   8.762   4.091   0.840  0.0407  0.3939  0.3366
11696SOL    HW137242   8.852   4.121   0.849 -0.6551  2.8230 -0.1355
11696SOL    HW237243   8.736   4.120   0.752 -1.0557 -0.6973  0.2790
11697SOL     OW37244   0.735   7.902   5.103  0.1592 -0.3427  0.5512
11697SOL    HW137245   0.687   7.984   5.109  1.4210  0.3761  1.0802
11697SOL    HW237246   0.818   7.925   5.062 -1.2826 -2.1778 -4.0617
11698SOL     OW37247   2.910   9.000   2.551  0.2140 -0.3599  0.7380
11698SOL    HW137248   2.909   8.967   2.461 -0.6932 -0.6310  0.8379
11698SOL    HW237249   2.834   9.057   2.557  0.4684 -0.0607  1.2394
11699SOL     OW37250   1.523   6.674   9.551 -0.4706  0.1347 -0.2665
11699SOL    HW137251   1.542   6.679   9.458 -0.4223  1.3228 -0.2070
11699SOL    HW237252   1.437   6.633   9.556 -0.8772  0.8874 -0.8884
11700SOL     OW37253   3.170   5.518   0.783 -0.7650 -0.6983  0.5379
11700SOL    HW137254   3.185   5.584   0.851  0.2360 -1.1400  0.7676
11700SOL    HW237255   3.238   5.535   0.718 -0.9418 -1.0634  0.2560
11701SOL     OW37256   1.441   5.779   3.947 -0.2222 -0.0084  0.9003
11701SOL    HW137257   1.419   5.760   3.856  0.9536  0.8085  0.4193
11701SOL    HW237258   1.485   5.864   3.944  0.1248 -0.1163  2.1909
11702SOL     OW37259   1.633   1.692   2.947 -0.4046 -0.5433  0.6840
11702SOL    HW137260   1.689   1.770   2.953 -1.0365  0.1747 -1.5600
11702SOL    HW237261   1.694   1.618   2.957  0.6348  0.2355  0.3209
11703SOL     OW37262   8.134   6.775   6.981 -0.3176 -0.0002  0.1323
11703SOL    HW137263   8.186   6.855   6.984 -1.7658  1.2059 -2.7158
11703SOL    HW237264   8.056   6.794   7.033 -0.4484  0.3106 -0.1698
11704SOL     OW37265   5.007   7.639   6.446 -0.2975  0.2820  0.2301
11704SOL    HW137266   4.952   7.630   6.368 -0.3315 -2.7866  0.4937
11704SOL    HW237267   5.094   7.614   6.416  0.1816  1.3303  0.6961
11705SOL     OW37268   1.391   6.417   8.574 -0.0071  0.1146 -0.2431
11705SOL    HW137269   1.299   6.440   8.577  0.0262  0.3080 -0.7498
11705SOL    HW237270   1.396   6.332   8.618 -0.1573  0.9479  1.4864
11706SOL     OW37271   0.815   8.780   2.093  0.2939  1.1624 -0.4375
11706SOL    HW137272   0.826   8.859   2.040  2.3438  0.1689 -1.5782
11706SOL    HW237273   0.892   8.779   2.150  0.0030  0.2732 -0.0513
11707SOL     OW37274   2.941   8.445   4.707  0.2092  0.5039 -0.1516
11707SOL    HW137275   3.022   8.475   4.664  0.4255 -1.9101 -1.5859
11707SOL    HW237276   2.967   8.367   4.755 -1.1304  0.1602  0.0449
11708SOL     OW37277   7.368   1.369   6.932  0.1378  0.0734 -0.0912
11708SOL    HW137278   7.409   1.395   7.014  0.5619  0.3924 -0.3986
11708SOL    HW237279   7.306   1.300   6.957  1.1158 -0.6753  0.3423
11709SOL     OW37280   0.594   0.664   4.409  0.1665  0.5355  0.5272
11709SOL    HW137281   0.579   0.585   4.359  0.3902  1.1062 -0.4755
11709SOL    HW237282   0.664   0.641   4.470  0.0308 -0.1108  0.4425
11710SOL     OW37283   8.576   5.301   8.291 -0.3028  0.7102  0.1714
11710SOL    HW137284   8.544   5.219   8.255  0.7508 -0.0934  0.9976
11710SOL    HW237285   8.670   5.288   8.302 -0.2783  1.6394  1.2985
11711SOL     OW37286   6.210   0.507   4.785  0.1548  0.3802  0.4973
11711SOL    HW137287   6.230   0.424   4.741  0.2659  0.1679  0.9390
11711SOL    HW237288   6.288   0.525   4.838  0.1999  0.8566  0.2781
11712SOL     OW37289   0.590   0.903   0.099  0.2216  0.1525  0.1568
11712SOL    HW137290   0.571   0.819   0.058  0.2230 -0.7390  1.9287
11712SOL    HW237291   0.683   0.918   0.082 -0.4039  1.3515 -2.8309
11713SOL     OW37292   0.928   8.482   6.780 -0.1908 -0.3265  0.3534
11713SOL    HW137293   0.951   8.535   6.856 -0.0236 -0.4866  0.4150
11713SOL    HW237294   0.833   8.482   6.778 -0.1960 -0.5191  0.6984
11714SOL     OW37295   9.572   9.179   9.486  0.5312 -0.3096 -0.0914
11714SOL    HW137296   9.619   9.213   9.410 -0.4712 -0.8251 -0.9785
11714SOL    HW237297   9.514   9.250   9.512 -1.1882 -1.0576 -1.6238
11715SOL     OW37298   7.752   9.091   6.119  0.0878  0.3443 -0.5657
11715SOL    HW137299   7.671   9.133   6.149 -1.3507 -1.2381 -2.0127
11715SOL    HW237300   7.795   9.158   6.065 -1.9933  0.1690 -2.5807
11716SOL     OW37301   3.683   2.462   9.553  0.2207  0.0442 -0.1482
11716SOL    HW137302   3.696   2.458   9.458 -0.8147 -1.0711 -0.2585
11716SOL    HW237303   3.733   2.388   9.587 -1.0819 -0.8207 -0.0442
11717SOL     OW37304   0.663   7.437   1.694 -0.0128  0.2253  0.5050
11717SOL    HW137305   0.670   7.345   1.668 -0.5021  0.6292 -1.2150
11717SOL    HW237306   0.734   7.480   1.646 -1.2550  1.0915 -0.6174
11718SOL     OW37307   8.209   8.173   9.360 -0.1413  0.6487 -0.5392
11718SOL    HW137308   8.178   8.188   9.450 -0.4650  3.6825 -1.0677
11718SOL    HW237309   8.294   8.130   9.372 -0.2903  0.7396  1.2206
11719SOL     OW37310   8.808   5.399   9.555 -0.2809  0.0671 -0.9097
11719SOL    HW137311   8.784   5.318   9.600 -1.8939 -0.5443 -2.7297
11719SOL    HW237312   8.753   5.466   9.595  1.2205  0.3524  0.7572
11720SOL     OW37313   4.065   2.099   8.154 -0.4574 -0.1344 -0.0291
11720SOL    HW137314   4.138   2.051   8.192  0.3571  2.3060  1.7564
11720SOL    HW237315   3.989   2.074   8.207 -0.4444 -0.8403 -0.3341
11721SOL     OW37316   6.613   6.245   2.303 -0.4677  0.0584 -0.0328
11721SOL    HW137317   6.573   6.281   2.382  1.4349  1.7618  0.2362
11721SOL    HW237318   6.700   6.216   2.331 -0.9519 -2.4081 -0.8459
11722SOL     OW37319   2.047   9.250   6.111  0.3666  0.3498 -0.0370
11722SOL    HW137320   2.071   9.326   6.165  0.1000 -1.1344  2.3422
11722SOL    HW237321   2.126   9.196   6.111  0.1130 -0.0270 -0.5194
11723SOL     OW37322   4.809   7.040   6.262 -0.3691 -0.3139 -0.0462
11723SOL    HW137323   4.726   7.023   6.218 -0.9878  2.5243 -0.1679
11723SOL    HW237324   4.789   7.030   6.355 -0.3624 -1.3451 -0.1438
11724SOL     OW37325   4.581   2.117   3.410  0.5084  0.0455 -0.3763
11724SOL    HW137326   4.634   2.117   3.490  1.9305  1.0887 -1.2743
11724SOL    HW237327   4.631   2.062   3.349 -0.7326 -1.0214 -0.4759
11725SOL     OW37328   6.226   3.455   2.354 -0.6288 -0.1131  0.4833
11725SOL    HW137329   6.134   3.432   2.369 -1.1598  0.4642 -1.5702
11725SOL    HW237330   6.235   3.544   2.388  0.1276 -1.3405  3.8273
11726SOL     OW37331   5.882   2.064   9.148  0.2202 -0.3218 -0.1247
11726SOL    HW137332   5.843   2.016   9.221  0.3896 -0.6173 -0.2251
11726SOL    HW237333   5.965   2.020   9.132 -0.0290 -0.5593 -0.8004
11727SOL     OW37334   2.768   6.856   8.582  0.2303 -0.1666 -0.0237
11727SOL    HW137335   2.700   6.857   8.649  0.9451 -1.2296  0.7348
11727SOL    HW237336   2.809   6.943   8.589 -1.4563  0.7636 -0.9657
11728SOL     OW37337   0.809   0.926   9.099 -0.1493 -0.0176 -0.2166
11728SOL    HW137338   0.862   0.880   9.034  0.2602 -1.2458  0.9361
11728SOL    HW237339   0.871   0.985   9.143 -0.4976  1.0664 -1.1322
11729SOL     OW37340   0.802   6.276   6.679  0.2236 -0.1747  0.5744
11729SOL    HW137341   0.894   6.253   6.692  0.1919 -0.9217 -0.3784
11729SOL    HW237342   0.754   6.208   6.725  0.1391  0.5954  1.6465
11730SOL     OW37343   5.794   5.314   3.167 -0.1240 -0.0277  0.0650
11730SOL    HW137344   5.838   5.386   3.121 -0.5450  0.8149  0.9516
11730SOL    HW237345   5.703   5.318   3.136  0.4530 -2.1232 -2.2004
11731SOL     OW37346   0.121   4.942   3.253 -0.2217  0.1284 -0.7681
11731SOL    HW137347   0.193   5.000   3.279  0.4878 -0.6678 -0.9400
11731SOL    HW237348   0.043   4.988   3.284  0.3411  1.0432 -0.6403
11732SOL     OW37349   5.382   3.015   5.093 -0.3783 -0.4394 -0.4211
11732SOL    HW137350   5.300   3.049   5.059 -1.3063 -2.8325 -0.7396
11732SOL    HW237351   5.373   3.019   5.189 -1.5716 -2.1745 -0.4315
11733SOL     OW37352   6.187   6.975   2.081  0.5097  0.2666 -0.6598
11733SOL    HW137353   6.199   7.047   2.019  0.0189  0.2025 -0.8372
11733SOL    HW237354   6.199   7.015   2.167  1.0974  0.3767 -0.7883
11734SOL     OW37355   1.746   2.847   2.113 -0.0434 -0.8926 -0.6043
11734SOL    HW137356   1.698   2.913   2.163  1.5710 -1.0278  1.2103
11734SOL    HW237357   1.815   2.896   2.069 -0.1869 -1.0726 -1.0316
11735SOL     OW37358   1.397   7.221   2.726 -0.1655  0.0111  0.4193
11735SOL    HW137359   1.361   7.145   2.680  0.5701 -0.1959  0.1816
11735SOL    HW237360   1.330   7.289   2.715  0.6920  0.5045 -2.4055
11736SOL     OW37361   9.008   4.420   0.057  0.6012 -0.7069  0.0980
11736SOL    HW137362   9.082   4.462   0.014 -0.2043  0.2278 -0.4329
11736SOL    HW237363   9.044   4.383   0.137  1.5321  0.2219  0.1281
11737SOL     OW37364   5.463   9.302   5.038 -0.2939  0.0702  0.3987
11737SOL    HW137365   5.490   9.258   4.958 -0.2442 -2.0716  1.5276
11737SOL    HW237366   5.369   9.313   5.029  0.0156  2.2420 -1.0175
11738SOL     OW37367   9.072   8.525   5.644  0.8263 -0.0435 -0.3478
11738SOL    HW137368   9.131   8.506   5.717 -0.0177  2.2439  1.0486
11738SOL    HW237369   9.102   8.610   5.611  1.0115 -0.8927 -2.5621
11739SOL     OW37370   4.454   3.934   1.696 -0.3046 -0.7434 -0.4701
11739SOL    HW137371   4.419   4.020   1.674  0.3033 -0.9127 -2.2108
11739SOL    HW237372   4.525   3.953   1.759 -0.7688 -0.0667 -0.1408
11740SOL     OW37373   8.752   1.502   0.445  0.4529 -0.7055 -0.0151
11740SOL    HW137374   8.816   1.455   0.392 -0.2296  0.2444 -1.7401
11740SOL    HW237375   8.805   1.547   0.511  1.4011 -1.2876 -0.3569
11741SOL     OW37376   9.577   7.569   2.509  0.4841 -0.3705 -0.0685
11741SOL    HW137377   9.484   7.549   2.508  0.4960 -0.4526  0.1855
11741SOL    HW237378   9.610   7.540   2.424  0.3077 -0.4874 -0.0959
11742SOL     OW37379   2.133   8.849   3.047 -0.2383 -0.3195 -0.2595
11742SOL    HW137380   2.119   8.914   2.979 -0.9116 -1.1571 -0.9610
11742SOL    HW237381   2.044   8.829   3.079 -0.0212 -0.6672  0.1393
11743SOL     OW37382   7.863   1.683   2.222  0.1413  0.4429 -0.0571
11743SOL    HW137383   7.827   1.668   2.309 -1.2666  1.7337 -0.3727
11743SOL    HW237384   7.921   1.758   2.233  2.3245 -1.2051  0.3086
11744SOL     OW37385   1.244   3.039   1.469 -0.2039  0.2516  0.5934
11744SOL    HW137386   1.197   3.122   1.474  0.4460  0.6075  0.9192
11744SOL    HW237387   1.254   3.011   1.560  1.0525  0.6710  0.6061
11745SOL     OW37388   7.282   7.495   3.030  0.3040 -0.1045 -0.4046
11745SOL    HW137389   7.229   7.541   2.964  0.9795 -0.1776 -1.0223
11745SOL    HW237390   7.273   7.403   3.008 -0.3466 -0.2119  0.2945
11746SOL     OW37391   6.646   1.357   0.066  0.3560 -0.1873  0.4661
11746SOL    HW137392   6.605   1.273   0.091  0.2311 -0.2051  0.2037
11746SOL    HW237393   6.654   1.352  -0.029 -0.0220  0.2660  0.4067
11747SOL     OW37394   5.910   4.083   8.805  0.4292 -0.0344  0.1882
11747SOL    HW137395   5.870   4.155   8.853  0.4436 -0.3174  0.6349
11747SOL    HW237396   5.892   4.006   8.858  0.0723 -0.4228 -0.4790
11748SOL     OW37397   8.158   0.855   2.848  0.0301 -0.4119 -0.1226
11748SOL    HW137398   8.091   0.885   2.787  0.1312  1.3513  0.5663
11748SOL    HW237399   8.240   0.888   2.811  0.1420  0.2525  0.6805
11749SOL     OW37400   4.672   4.331   1.881  0.3326 -0.0124 -0.2428
11749SOL    HW137401   4.602   4.389   1.851 -1.1958 -0.5071  2.1076
11749SOL    HW237402   4.737   4.389   1.919  0.2643  0.3345 -0.6487
11750SOL     OW37403   0.253   0.089   2.614 -0.0741 -0.1828 -0.2430
11750SOL    HW137404   0.253   0.034   2.536 -0.7809 -1.5279  0.6845
11750SOL    HW237405   0.253   0.028   2.687 -1.1066  1.0370  0.8254
11751SOL     OW37406   1.783   8.724   3.619 -0.1165  0.8061  0.1537
11751SOL    HW137407   1.813   8.774   3.544  0.3263  1.1820  0.5788
11751SOL    HW237408   1.855   8.665   3.639  1.7008  3.6646  2.9724
11752SOL     OW37409   1.791   6.624   0.810  0.3707  0.0095  0.6793
11752SOL    HW137410   1.811   6.626   0.903  1.0610 -0.0014  0.5401
11752SOL    HW237411   1.858   6.567   0.773 -1.4517 -2.1519  0.5311
11753SOL     OW37412   2.169   2.162   4.285 -0.0231  0.0209 -0.3362
11753SOL    HW137413   2.189   2.199   4.199 -0.8664 -1.5802 -1.2589
11753SOL    HW237414   2.094   2.214   4.317 -1.0527 -0.6942 -1.5110
11754SOL     OW37415   3.134   7.893   6.362  0.4056 -0.0361  0.1249
11754SOL    HW137416   3.066   7.913   6.297  1.2743  0.8622 -0.5438
11754SOL    HW237417   3.144   7.798   6.358  0.5458  0.0090 -1.1789
11755SOL     OW37418   8.348   0.107   1.365 -0.6185 -0.1929 -0.4610
11755SOL    HW137419   8.287   0.142   1.430 -2.0059 -0.2099 -1.6942
11755SOL    HW237420   8.323   0.015   1.355 -0.6901 -0.0975 -1.2664
11756SOL     OW37421   9.230   5.991   4.108  0.4880  0.6190 -0.1306
11756SOL    HW137422   9.305   6.044   4.133  0.9590 -0.4709  0.9045
11756SOL    HW237423   9.199   5.953   4.191 -0.0577 -0.4056 -0.7728
11757SOL     OW37424   5.308   8.232   4.218  0.1332 -0.0005  0.1697
11757SOL    HW137425   5.383   8.269   4.265  0.4070 -0.5334  0.1509
11757SOL    HW237426   5.333   8.142   4.199  0.0681  0.2245 -1.0889
11758SOL     OW37427   6.959   5.560   8.577  0.4950  0.1752  0.1147
11758SOL    HW137428   6.954   5.598   8.489  0.7871 -0.7607 -0.3233
11758SOL    HW237429   6.983   5.633   8.634  2.2950  0.4353 -0.8904
11759SOL     OW37430   3.759   7.997   8.367  0.1057 -0.5242  0.2525
11759SOL    HW137431   3.780   7.935   8.437 -1.8813 -1.5895 -0.0171
11759SOL    HW237432   3.666   7.982   8.349  0.2655  0.5795 -1.7791
11760SOL     OW37433   0.296   7.361   0.123  0.8608 -0.3784  0.0520
11760SOL    HW137434   0.350   7.286   0.148  2.8994  0.3477 -1.7969
11760SOL    HW237435   0.350   7.437   0.145  0.9126  0.3706 -2.3056
11761SOL     OW37436   1.021   6.338   8.880  0.0300  0.1780 -0.0198
11761SOL    HW137437   0.927   6.350   8.891 -0.1014  1.6166 -2.0362
11761SOL    HW237438   1.031   6.304   8.791  1.4500  0.7296 -0.1075
11762SOL     OW37439   4.634   0.634   5.509 -0.0585  0.2662  0.4586
11762SOL    HW137440   4.575   0.704   5.481  0.4653  0.6686  0.3426
11762SOL    HW237441   4.609   0.558   5.457  0.3715  0.7854 -0.5180
11763SOL     OW37442   4.169   8.279   8.518 -0.4574  0.4259 -0.1354
11763SOL    HW137443   4.075   8.298   8.516 -0.4482  0.4201 -1.1406
11763SOL    HW237444   4.175   8.189   8.485 -0.0424  0.7108 -0.8559
11764SOL     OW37445   7.482   6.268   2.447  0.0325  0.6327 -0.2815
11764SOL    HW137446   7.472   6.364   2.447  1.5320  0.8116  0.1705
11764SOL    HW237447   7.478   6.244   2.355  0.1112  1.1912 -0.4378
11765SOL     OW37448   2.494   7.139   2.214 -0.3576 -0.2170  0.0146
11765SOL    HW137449   2.417   7.082   2.214 -0.4626 -0.0781  0.1443
11765SOL    HW237450   2.564   7.084   2.248 -0.2093 -0.5851 -0.8586
11766SOL     OW37451   6.068   5.454   3.259 -0.1481 -0.5970 -0.4537
11766SOL    HW137452   6.015   5.384   3.297 -1.9359  1.2876  0.7354
11766SOL    HW237453   6.123   5.485   3.332  0.4906 -0.6373 -0.9126
11767SOL     OW37454   0.061   7.957   8.617 -0.0070 -0.0089 -0.1645
11767SOL    HW137455   0.044   7.914   8.701 -1.3169  2.1306  0.7423
11767SOL    HW237456   0.154   7.945   8.603  0.3475 -0.0338  1.8587
11768SOL     OW37457   0.984   1.879   3.921  0.2194  0.6019  0.2987
11768SOL    HW137458   0.930   1.913   3.993  0.1077  2.4155 -0.5706
11768SOL    HW237459   1.065   1.930   3.926  1.0088 -0.6047  0.2807
11769SOL     OW37460   3.856   6.013   1.002  0.5325  0.0359  0.0125
11769SOL    HW137461   3.946   6.016   1.036  0.1751  1.5113  0.9257
11769SOL    HW237462   3.854   5.935   0.946  1.8849 -1.0324  1.3608
11770SOL     OW37463   7.671   9.190   5.728  0.2526 -0.2044 -0.4825
11770SOL    HW137464   7.668   9.096   5.710 -0.3375 -0.0962 -0.9882
11770SOL    HW237465   7.702   9.197   5.818 -0.9342 -0.9325 -0.0005
11771SOL     OW37466   0.486   3.258   1.890 -0.1926 -0.1957 -0.2005
11771SOL    HW137467   0.514   3.349   1.878  0.1306 -0.3843 -0.8814
11771SOL    HW237468   0.440   3.259   1.975  0.4941  0.4362  0.1787
11772SOL     OW37469   7.055   8.327   7.727 -0.5616 -0.1627  0.1101
11772SOL    HW137470   7.128   8.265   7.732 -0.1728  0.0574 -1.8486
11772SOL    HW237471   6.977   8.272   7.719 -0.5645 -0.3936  1.5368
11773SOL     OW37472   1.362   7.103   7.275 -0.1387  0.6476  0.3690
11773SOL    HW137473   1.425   7.159   7.231  0.2568 -1.9494 -2.8300
11773SOL    HW237474   1.283   7.156   7.282  0.6204  2.0878 -1.2092
11774SOL     OW37475   3.643   3.722   2.874 -0.4322 -0.6915 -0.1795
11774SOL    HW137476   3.727   3.730   2.829 -1.0974 -2.4464 -1.8459
11774SOL    HW237477   3.662   3.668   2.951 -0.2127 -2.0836 -1.1785
11775SOL     OW37478   8.251   2.989   8.356  0.2957  0.5836 -0.3976
11775SOL    HW137479   8.240   2.933   8.433  1.3465 -3.1285 -2.6594
11775SOL    HW237480   8.162   3.015   8.333 -0.2614 -0.1595  0.7890
11776SOL     OW37481   8.583   8.544   4.592  0.2722  0.0048 -0.1245
11776SOL    HW137482   8.597   8.513   4.682  0.7882 -0.9886 -0.5337
11776SOL    HW237483   8.488   8.535   4.578  0.2177 -0.0198  0.2507
11777SOL     OW37484   9.106   2.370   6.041  0.5925  0.4589  0.2673
11777SOL    HW137485   9.197   2.384   6.016  1.3219 -3.6479 -0.0747
11777SOL    HW237486   9.107   2.373   6.137  0.3460  3.4279  0.2726
11778SOL     OW37487   2.117   7.535   8.225  0.8085 -0.0651  0.1566
11778SOL    HW137488   2.103   7.629   8.235 -0.4890 -0.1906 -0.2760
11778SOL    HW237489   2.092   7.516   8.135 -1.4697 -1.2013  0.9421
11779SOL     OW37490   3.324   5.091   8.909  0.5282  0.5338 -0.6360
11779SOL    HW137491   3.409   5.064   8.942  0.7029  0.6632 -0.9717
11779SOL    HW237492   3.315   5.182   8.938 -0.0690  0.1232  0.5136
11780SOL     OW37493   3.409   5.678   6.155  0.2068 -0.0377 -0.4590
11780SOL    HW137494   3.388   5.680   6.062 -1.0465  0.8003 -0.1840
11780SOL    HW237495   3.495   5.636   6.160  0.4320  0.1985 -2.0151
11781SOL     OW37496   5.856   3.715   6.728 -0.1074  0.2998 -0.2427
11781SOL    HW137497   5.904   3.791   6.761 -0.4369  0.7250 -0.7080
11781SOL    HW237498   5.765   3.743   6.728 -0.1795  0.0802 -0.8838
11782SOL     OW37499   8.444   4.795   4.685 -1.0257  0.3925  0.5640
11782SOL    HW137500   8.372   4.733   4.673 -1.4640  0.6877  1.5710
11782SOL    HW237501   8.405   4.867   4.735 -0.2516  0.9754  0.3380
11783SOL     OW37502   4.359   4.786   0.987 -0.1279 -0.1861  0.7009
11783SOL    HW137503   4.440   4.830   1.012 -0.3376  0.2946  0.5365
11783SOL    HW237504   4.333   4.828   0.905  1.0149 -2.3097 -0.8827
11784SOL     OW37505   7.567   7.700   8.840 -0.6492  0.0140  0.3879
11784SOL    HW137506   7.562   7.761   8.767  0.8228  1.6135  1.5284
11784SOL    HW237507   7.661   7.694   8.860 -0.8074 -2.0882  0.7874
11785SOL     OW37508   9.189   0.668   0.303  0.0359  0.0268 -0.3101
11785SOL    HW137509   9.182   0.585   0.256  1.9071 -1.5645  1.9984
11785SOL    HW237510   9.238   0.725   0.244  0.9209 -1.3581 -0.9560
11786SOL     OW37511   3.627   6.903   6.575 -0.5025  0.0075  0.4079
11786SOL    HW137512   3.640   6.936   6.487  0.4324 -0.7367  0.2419
11786SOL    HW237513   3.533   6.910   6.591 -1.0582 -1.9418 -1.5104
11787SOL     OW37514   3.787   1.222   0.157  0.0344  0.7729  0.4546
11787SOL    HW137515   3.783   1.149   0.096  1.1863  1.7628 -0.8551
11787SOL    HW237516   3.744   1.294   0.111 -0.7079  1.0648  1.5568
11788SOL     OW37517   9.338   1.986   4.069  0.1419 -0.3747 -0.1343
11788SOL    HW137518   9.348   1.947   4.156  0.5650  1.1473  0.5380
11788SOL    HW237519   9.260   2.041   4.076  0.1212 -0.3154 -0.7506
11789SOL     OW37520   7.415   8.708   5.789  0.3126  0.0787  0.2965
11789SOL    HW137521   7.322   8.733   5.786  0.8853  2.5119 -2.4804
11789SOL    HW237522   7.415   8.614   5.774 -1.7294  0.1451 -0.4611
11790SOL     OW37523   7.328   7.660   7.463 -0.4807  0.5182 -0.2147
11790SOL    HW137524   7.341   7.684   7.555  1.4831 -1.2133  0.0270
11790SOL    HW237525   7.410   7.684   7.420 -0.5970 -0.5414 -1.0697
11791SOL     OW37526   5.529   6.554   7.697 -0.1484  0.0472  0.1603
11791SOL    HW137527   5.451   6.537   7.749 -1.1705 -0.2588 -1.3847
11791SOL    HW237528   5.503   6.625   7.638  0.5212 -0.4810 -0.7970
11792SOL     OW37529   7.466   1.895   5.082  0.4374  0.6716  0.0922
11792SOL    HW137530   7.509   1.981   5.088 -0.4387  1.1420 -0.2740
11792SOL    HW237531   7.382   1.907   5.127  1.2277 -0.6299  2.0839
11793SOL     OW37532   4.871   4.365   8.404  0.5464 -0.6307 -0.2007
11793SOL    HW137533   4.923   4.389   8.480 -1.4379 -0.6752  1.2515
11793SOL    HW237534   4.880   4.270   8.399 -0.1858 -0.7643  0.6938
11794SOL     OW37535   7.839   8.809   2.730 -0.0561  0.1543 -0.0143
11794SOL    HW137536   7.864   8.840   2.643 -1.0408 -0.0497 -0.3701
11794SOL    HW237537   7.852   8.885   2.786  0.3344  0.3630 -0.3796
11795SOL     OW37538   9.243   5.977   3.835  0.3464 -0.2779  0.2383
11795SOL    HW137539   9.246   6.013   3.923  1.2245 -0.3958  0.2736
11795SOL    HW237540   9.153   5.989   3.806 -0.5896 -2.3086  1.9930
11796SOL     OW37541   6.756   8.705   0.541 -0.1907  0.1065  0.2525
11796SOL    HW137542   6.693   8.740   0.605  0.4486 -0.1900  1.0553
11796SOL    HW237543   6.759   8.611   0.559 -0.7387 -0.1497 -0.8760
11797SOL     OW37544   0.665   8.296   0.727  0.5493 -0.0417  0.2121
11797SOL    HW137545   0.617   8.237   0.668 -1.9129  0.9362  1.1069
11797SOL    HW237546   0.663   8.381   0.683  0.0037  0.3635  0.9876
11798SOL     OW37547   6.938   5.765   9.094 -0.4003  0.5210  1.0528
11798SOL    HW137548   6.979   5.794   9.176  0.7372 -1.5488  1.2665
11798SOL    HW237549   6.884   5.690   9.120  0.7434 -0.7852 -0.2048
11799SOL     OW37550   8.029   1.972   1.738  0.2985 -0.0118  0.2525
11799SOL    HW137551   8.017   1.883   1.705 -0.1415 -0.0841  0.6006
11799SOL    HW237552   8.045   2.025   1.659 -1.9308  0.0233 -0.2436
11800SOL     OW37553   3.160   6.466   5.801  0.2151 -0.3025 -0.1500
11800SOL    HW137554   3.118   6.388   5.836  1.1486 -0.7245  0.0594
11800SOL    HW237555   3.235   6.481   5.858 -0.1879  1.0040  0.0715
11801SOL     OW37556   6.820   3.682   6.763  0.0274 -1.0908 -0.6160
11801SOL    HW137557   6.800   3.640   6.680  1.6602  0.8961 -2.1211
11801SOL    HW237558   6.771   3.764   6.761  0.3716 -0.8549  0.2166
11802SOL     OW37559   6.552   1.477   3.900  0.2292  0.1113  0.1631
11802SOL    HW137560   6.593   1.437   3.978 -0.0400  0.4827  0.4972
11802SOL    HW237561   6.538   1.568   3.925 -1.3688 -0.1486  0.2729
11803SOL     OW37562   8.074   8.073   9.130 -0.0728 -0.4424 -0.7586
11803SOL    HW137563   8.132   8.101   9.200 -1.1254 -1.5400  0.6172
11803SOL    HW237564   8.000   8.133   9.134 -0.3085 -0.7337 -0.6709
11804SOL     OW37565   4.906   8.924   6.213 -0.2169 -0.0096 -0.0858
11804SOL    HW137566   4.964   8.899   6.285  1.3349 -2.2867 -2.0014
11804SOL    HW237567   4.862   8.843   6.188 -2.4006  1.1880 -0.3214
11805SOL     OW37568   0.323   3.250   7.875 -0.0832  0.3459  0.0185
11805SOL    HW137569   0.228   3.244   7.885 -0.0215  0.0935  0.5398
11805SOL    HW237570   0.345   3.182   7.812 -0.2291  0.2499  0.0696
11806SOL     OW37571   6.962   3.475   5.879  0.4189 -0.6670 -0.0782
11806SOL    HW137572   7.020   3.425   5.937  1.5945 -0.7524 -1.2852
11806SOL    HW237573   7.019   3.539   5.837  0.1362 -2.0216 -2.7809
11807SOL     OW37574   0.105   3.345   8.930 -0.3137 -0.2447  0.2065
11807SOL    HW137575   0.014   3.339   8.903  0.2784  1.5141 -2.6106
11807SOL    HW237576   0.117   3.438   8.951  0.5572 -0.6789  1.7242
11808SOL     OW37577   8.087   6.822   5.978  0.0618 -0.1729 -0.2423
11808SOL    HW137578   8.157   6.816   5.913 -1.4369 -1.1153 -1.8543
11808SOL    HW237579   8.034   6.896   5.949 -0.2260 -0.1373  0.3545
11809SOL     OW37580   2.945   7.094   8.592 -0.3449  0.4659 -0.4213
11809SOL    HW137581   3.014   7.056   8.537  2.2589  0.4687  2.5303
11809SOL    HW237582   2.932   7.182   8.557  0.1542 -0.0212 -1.8905
11810SOL     OW37583   8.654   5.751   6.293 -0.8389  0.4827 -0.7963
11810SOL    HW137584   8.570   5.787   6.265 -0.8390  1.0645 -0.0890
11810SOL    HW237585   8.720   5.803   6.247 -0.8609  0.4717 -0.8388
11811SOL     OW37586   5.786   7.812   0.899  0.2820 -0.5323 -0.1572
11811SOL    HW137587   5.871   7.856   0.905 -0.2938  0.8086 -1.2673
11811SOL    HW237588   5.723   7.877   0.932 -0.4398 -1.0994 -0.3931
11812SOL     OW37589   4.860   0.457   7.997  0.7889  0.4479  0.1046
11812SOL    HW137590   4.812   0.497   8.069 -0.8722 -1.4494  0.1391
11812SOL    HW237591   4.796   0.452   7.926  0.8116 -2.2389  0.1807
11813SOL     OW37592   4.929   0.524   0.496  0.2686  0.3562 -0.4245
11813SOL    HW137593   4.920   0.432   0.520 -0.4649  0.8166  1.2684
11813SOL    HW237594   4.894   0.530   0.407 -1.5458 -0.6886  0.1716
11814SOL     OW37595   1.495   9.055   7.966 -0.1340 -0.1627 -0.2104
11814SOL    HW137596   1.524   8.965   7.948 -1.1543 -0.2499 -1.5493
11814SOL    HW237597   1.521   9.104   7.889  0.4401  0.7249  0.5297
11815SOL     OW37598   1.838   3.442   3.574  0.2549 -0.0872 -0.3217
11815SOL    HW137599   1.826   3.401   3.489  1.1652 -0.0332 -0.4841
11815SOL    HW237600   1.932   3.461   3.579  0.2498 -0.2565  0.7685
11816SOL     OW37601   9.427   2.026   5.016 -0.2256 -0.7803 -0.2911
11816SOL    HW137602   9.446   2.116   5.043 -0.4927 -0.8966  0.3128
11816SOL    HW237603   9.443   1.973   5.095 -1.1048 -1.1217 -0.3306
11817SOL     OW37604   3.179   6.734   8.514  0.1611  0.2517 -0.5401
11817SOL    HW137605   3.105   6.675   8.527  1.8405 -2.9751 -3.7464
11817SOL    HW237606   3.139   6.820   8.497 -2.6338 -0.7207  0.6574
11818SOL     OW37607   2.307   7.538   4.117 -0.7151 -0.2632  0.6053
11818SOL    HW137608   2.226   7.572   4.078 -0.8879  0.6030  1.6577
11818SOL    HW237609   2.365   7.614   4.120  0.3922 -1.0206 -0.7076
11819SOL     OW37610   9.303   8.375   6.871 -0.0402 -0.0671  0.1690
11819SOL    HW137611   9.350   8.444   6.824 -0.4713  1.4229  1.7937
11819SOL    HW237612   9.336   8.381   6.961  1.5587 -3.5238 -0.0545
11820SOL     OW37613   6.333   5.206   0.662  0.2200  0.0617  0.1139
11820SOL    HW137614   6.338   5.152   0.741 -1.7218 -2.4009 -1.3158
11820SOL    HW237615   6.262   5.267   0.680  0.0852 -0.1855  0.4413
11821SOL     OW37616   7.884   8.141   1.477  0.9951 -0.2436 -0.6780
11821SOL    HW137617   7.957   8.092   1.441 -0.7549 -2.2963 -1.6652
11821SOL    HW237618   7.808   8.114   1.424 -0.4052  2.2686 -0.1574
11822SOL     OW37619   8.389   1.510   6.369  1.0654  0.5864  0.3114
11822SOL    HW137620   8.330   1.577   6.333  1.0572  1.2178  1.4849
11822SOL    HW237621   8.336   1.430   6.368 -0.4715  1.4497  2.8598
11823SOL     OW37622   0.446   9.403   4.335  0.0959  0.4157  0.1996
11823SOL    HW137623   0.406   9.485   4.308 -1.5702 -1.1429 -2.5005
11823SOL    HW237624   0.502   9.378   4.261 -2.5539 -2.7369 -0.9948
11824SOL     OW37625   0.794   0.942   1.641 -0.1221  0.0724 -0.0006
11824SOL    HW137626   0.834   0.884   1.576 -1.9420 -0.5045 -0.6694
11824SOL    HW237627   0.839   1.026   1.629  0.7458 -0.4833 -0.8137
11825SOL     OW37628   8.007   3.018   9.126 -0.0591  0.5096  0.0016
11825SOL    HW137629   8.098   2.993   9.142 -0.0247 -0.6032 -1.6735
11825SOL    HW237630   7.955   2.948   9.165 -0.0563 -0.6357 -1.9348
11826SOL     OW37631   0.843   9.103   8.109 -0.2613  0.0269  0.3304
11826SOL    HW137632   0.893   9.042   8.163  1.5869  0.6091 -0.6488
11826SOL    HW237633   0.843   9.185   8.159  1.1296  0.4583 -0.3162
11827SOL     OW37634   6.954   1.015   8.515  0.5862 -0.6122  0.7686
11827SOL    HW137635   6.866   1.050   8.498  0.7779 -0.1892  0.6258
11827SOL    HW237636   6.965   1.022   8.610  1.4859  1.8681  0.5466
11828SOL     OW37637   1.747   4.183   1.853  0.0237 -0.2306  0.3683
11828SOL    HW137638   1.829   4.177   1.901  0.0297  1.0000  0.5438
11828SOL    HW237639   1.773   4.188   1.761  0.2534  1.5973  0.4977
11829SOL     OW37640   0.214   8.470   1.401 -0.1030  0.3236 -0.3560
11829SOL    HW137641   0.263   8.392   1.425  0.3226  1.1240  1.5030
11829SOL    HW237642   0.149   8.480   1.470 -1.2911  0.6705 -1.4818
11830SOL     OW37643   7.000   1.710   2.303  0.3292  0.1887  0.3448
11830SOL    HW137644   7.011   1.750   2.390 -0.5088 -2.0937  1.5766
11830SOL    HW237645   7.076   1.652   2.294  0.9624  1.1755 -0.9364
11831SOL     OW37646   6.779   7.658   1.838  0.2982 -0.1727  0.0815
11831SOL    HW137647   6.763   7.657   1.744  1.5299  0.9697 -0.1655
11831SOL    HW237648   6.692   7.667   1.877 -0.1253  0.6505 -0.9977
11832SOL     OW37649   5.804   2.692   3.398 -0.4797  0.0111 -0.1168
11832SOL    HW137650   5.819   2.604   3.365  2.9646 -0.1636  1.4904
11832SOL    HW237651   5.879   2.710   3.454 -1.9318  3.3388  1.0251
11833SOL     OW37652   0.902   0.863   0.409  0.1009  0.3072 -0.1507
11833SOL    HW137653   0.870   0.815   0.486  1.9612  1.9746  1.8174
11833SOL    HW237654   0.994   0.838   0.402 -0.2391 -0.5622 -2.5535
11834SOL     OW37655   7.170   8.101   8.833 -0.0142 -0.4006 -0.2257
11834SOL    HW137656   7.074   8.102   8.836 -0.1323 -1.1085 -2.0434
11834SOL    HW237657   7.190   8.062   8.747  1.9013 -1.1678  0.5150
11835SOL     OW37658   2.556   3.270   6.773 -0.3831 -0.0771  0.2498
11835SOL    HW137659   2.622   3.329   6.735  0.3434 -0.9283  0.1445
11835SOL    HW237660   2.474   3.296   6.732  0.0322  0.4638 -0.2556
11836SOL     OW37661   3.512   9.297   3.275  0.0934 -0.0778  0.0876
11836SOL    HW137662   3.443   9.343   3.229  2.9265  3.2935 -1.2618
11836SOL    HW237663   3.506   9.328   3.365  0.5327  1.2035 -0.3026
11837SOL     OW37664   3.192   7.706   7.825  0.7305  0.3203  0.5975
11837SOL    HW137665   3.145   7.748   7.897  1.1394  1.0098  0.4658
11837SOL    HW237666   3.232   7.778   7.777  0.5047 -0.1286 -0.2963
11838SOL     OW37667   5.970   1.996   2.578  0.0475  0.4391 -0.5759
11838SOL    HW137668   5.886   2.004   2.532 -1.0932  0.7059  1.4348
11838SOL    HW237669   5.957   1.921   2.637  1.6469 -0.2319 -1.0395
11839SOL     OW37670   9.237   3.178   5.965 -0.1357  0.0513 -0.3761
11839SOL    HW137671   9.152   3.214   5.941 -0.5387 -1.0980 -0.7461
11839SOL    HW237672   9.256   3.217   6.050 -1.1479  0.1346 -0.1711
11840SOL     OW37673   3.200   0.400   8.417  0.4437 -0.0514  0.0251
11840SOL    HW137674   3.280   0.353   8.437  0.1002 -0.9237 -0.5860
11840SOL    HW237675   3.132   0.353   8.466  0.0410 -0.4337 -0.8844
11841SOL     OW37676   4.575   9.552   1.805 -0.1044 -0.1581 -0.2876
11841SOL    HW137677   4.485   9.575   1.826 -0.0079 -0.6944  0.7629
11841SOL    HW237678   4.591   9.470   1.851  0.4622 -0.8613 -1.6743
11842SOL     OW37679   0.326   7.060   2.341 -0.3273 -0.6260 -0.2600
11842SOL    HW137680   0.251   7.106   2.304  0.2937  0.8673  0.2644
11842SOL    HW237681   0.402   7.096   2.295  0.2966 -0.0609  1.1591
11843SOL     OW37682   8.333   0.302   9.043 -0.3588 -0.3589  0.2765
11843SOL    HW137683   8.427   0.297   9.058 -0.6944  0.0073  3.0470
11843SOL    HW237684   8.306   0.384   9.085 -2.0103 -0.8672  0.2910
11844SOL     OW37685   6.201   7.699   3.213  0.2131 -0.1594  0.0129
11844SOL    HW137686   6.189   7.684   3.119 -2.0269 -0.4858  0.2920
11844SOL    HW237687   6.287   7.663   3.233  0.5310 -0.5006 -1.8307
11845SOL     OW37688   3.510   6.365   1.247 -0.7684  0.2003  0.4445
11845SOL    HW137689   3.479   6.279   1.276 -0.0535 -0.1289  0.2643
11845SOL    HW237690   3.465   6.380   1.164  0.6162 -0.9316 -0.5454
11846SOL     OW37691   0.465   5.379   1.686 -0.2737  0.2864 -0.2112
11846SOL    HW137692   0.408   5.402   1.612 -0.5141 -1.7577 -0.7362
11846SOL    HW237693   0.452   5.449   1.749  0.2827  2.3600 -2.2733
11847SOL     OW37694   1.860   7.641   1.747  0.1042 -0.2284  0.0069
11847SOL    HW137695   1.936   7.589   1.774  0.9161  1.2152  0.5785
11847SOL    HW237696   1.818   7.666   1.830  0.0699  0.5131 -0.2284
11848SOL     OW37697   7.566   7.228   0.126 -0.2205 -0.4445  0.1012
11848SOL    HW137698   7.500   7.168   0.162  1.1899 -2.3719 -0.3382
11848SOL    HW237699   7.630   7.170   0.084  0.1286  1.5255 -2.2547
11849SOL     OW37700   7.962   2.536   2.283 -0.0408  0.1305  0.3956
11849SOL    HW137701   7.952   2.483   2.204 -0.8202  2.2076 -0.9890
11849SOL    HW237702   7.872   2.551   2.312  0.2568 -1.1195  2.0933
11850SOL     OW37703   7.916   7.609   6.909  0.5431 -0.3271 -0.2138
11850SOL    HW137704   7.870   7.623   6.826 -0.8111  0.7274  0.6803
11850SOL    HW237705   7.983   7.543   6.888  1.0182  0.7515 -2.4159
11851SOL     OW37706   4.893   3.739   4.614  0.0013 -0.7090 -0.5588
11851SOL    HW137707   4.880   3.695   4.530 -0.3804 -2.6637  0.4565
11851SOL    HW237708   4.977   3.707   4.645 -0.0107 -0.2505 -0.0368
11852SOL     OW37709   4.520   5.844   3.927 -0.0679 -0.2512  0.0615
11852SOL    HW137710   4.507   5.936   3.950  0.0637 -0.2136 -0.0144
11852SOL    HW237711   4.479   5.795   3.999 -0.5813 -0.1358 -0.1442
11853SOL     OW37712   8.458   4.907   1.527  0.2367  0.3743  0.4222
11853SOL    HW137713   8.434   4.834   1.583 -0.1255 -0.4777 -0.8124
11853SOL    HW237714   8.377   4.928   1.479  0.6747  0.7237 -0.1743
11854SOL     OW37715   5.309   3.906   1.588  0.1784 -0.5200  0.3122
11854SOL    HW137716   5.248   3.857   1.533  1.7143 -3.2548  0.8350
11854SOL    HW237717   5.380   3.931   1.529 -0.8901  1.8202 -0.0938
11855SOL     OW37718   6.647   3.936   3.518 -0.4103  0.0380  0.1286
11855SOL    HW137719   6.702   3.928   3.440  0.0119 -0.1220  0.4370
11855SOL    HW237720   6.709   3.933   3.591 -0.8959 -1.1008  0.5264
11856SOL     OW37721   7.756   3.510   3.593 -0.1491 -0.0501 -0.4482
11856SOL    HW137722   7.776   3.465   3.675 -1.4303 -0.3539 -0.2950
11856SOL    HW237723   7.667   3.542   3.603  0.1754  1.1763 -1.1766
11857SOL     OW37724   8.554   1.495   8.261  0.6445 -0.4898  0.1603
11857SOL    HW137725   8.646   1.499   8.233  0.1815  0.8294 -1.3349
11857SOL    HW237726   8.548   1.558   8.332  1.0625 -1.2328  0.8753
11858SOL     OW37727   7.318   0.772   6.825  0.4375  0.0188  0.2511
11858SOL    HW137728   7.243   0.778   6.765 -0.7471 -0.9537  1.5773
11858SOL    HW237729   7.334   0.863   6.852 -2.5220  0.0238  2.5339
11859SOL     OW37730   4.923   5.330   7.915  0.1887 -0.6495 -0.2152
11859SOL    HW137731   4.951   5.347   8.004 -1.5515 -1.3623  0.5116
11859SOL    HW237732   4.992   5.369   7.860  0.2054  1.7982  1.3766
11860SOL     OW37733   2.012   2.698   8.901  0.4495  0.2608 -0.0874
11860SOL    HW137734   1.936   2.717   8.846  1.2706  0.7939 -1.0720
11860SOL    HW237735   1.998   2.750   8.980  0.6928  1.8664 -1.0589
11861SOL     OW37736   8.446   9.491   6.242  0.3948 -0.3340  0.2625
11861SOL    HW137737   8.431   9.566   6.184  0.7330 -1.6955 -1.6987
11861SOL    HW237738   8.376   9.429   6.219  1.6782 -1.7013 -0.1112
11862SOL     OW37739   8.950   6.252   1.480 -0.0005  0.0433 -0.2561
11862SOL    HW137740   8.915   6.340   1.463 -0.9007 -0.8321 -3.5740
11862SOL    HW237741   8.995   6.261   1.564 -1.2904  3.2861  0.2618
11863SOL     OW37742   6.902   3.781   2.641 -0.7986  0.4675 -0.6754
11863SOL    HW137743   6.865   3.791   2.553  0.8023 -0.6429 -1.5292
11863SOL    HW237744   6.840   3.723   2.685 -1.1316  0.2539 -1.3926
11864SOL     OW37745   7.744   4.792   4.595 -0.0405  0.4591 -0.0512
11864SOL    HW137746   7.759   4.884   4.573  1.1778  0.4838  0.7885
11864SOL    HW237747   7.654   4.775   4.568  0.6731  1.0002 -3.1988
11865SOL     OW37748   1.791   1.514   9.263 -0.2766 -0.0896  0.3618
11865SOL    HW137749   1.727   1.453   9.300  1.0221 -1.2062  0.8473
11865SOL    HW237750   1.861   1.517   9.328  0.7114  0.1935 -0.6907
11866SOL     OW37751   9.425   1.673   6.687 -0.3301 -0.2711 -0.0130
11866SOL    HW137752   9.422   1.597   6.628  0.4260  1.1623 -2.0051
11866SOL    HW237753   9.336   1.679   6.722 -0.0966 -2.8201  1.2728
11867SOL     OW37754   0.820   5.460   2.689 -0.2558 -0.1592 -0.0821
11867SOL    HW137755   0.863   5.422   2.766  0.1841  0.4460 -0.0270
11867SOL    HW237756   0.753   5.517   2.724  0.1409  0.3492 -0.1337
11868SOL     OW37757   5.943   2.571   0.858 -0.2677 -0.0284  0.3285
11868SOL    HW137758   5.876   2.639   0.859  0.1309  0.3689  0.4679
11868SOL    HW237759   5.943   2.535   0.947 -0.4031 -0.1347  0.2852
11869SOL     OW37760   1.796   2.094   2.170 -0.6404 -0.1674  0.8208
11869SOL    HW137761   1.741   2.016   2.177 -0.2109 -0.5647 -0.0498
11869SOL    HW237762   1.884   2.059   2.156 -0.3704  0.4720  0.9321
11870SOL     OW37763   1.068   0.085   8.839  0.1805  0.3523 -0.1352
11870SOL    HW137764   0.975   0.072   8.855 -0.5634  1.5188 -2.8450
11870SOL    HW237765   1.111   0.062   8.921 -2.3143 -1.9114  0.6610
11871SOL     OW37766   3.499   6.227   1.910 -0.0953 -0.1219  0.7242
11871SOL    HW137767   3.532   6.230   1.820 -0.3087  0.4846  0.6627
11871SOL    HW237768   3.476   6.135   1.924 -0.8896 -0.0695 -0.1394
11872SOL     OW37769   4.291   2.355   5.501  0.5515 -0.5602 -0.2169
11872SOL    HW137770   4.376   2.396   5.520  1.0032 -0.3855 -2.3656
11872SOL    HW237771   4.313   2.282   5.443 -0.7723 -0.4407 -0.8896
11873SOL     OW37772   1.078   5.361   1.304  0.1418 -0.1585 -0.3456
11873SOL    HW137773   1.111   5.370   1.394 -1.2778 -0.9497  0.3046
11873SOL    HW237774   1.005   5.298   1.312  0.8433 -1.3042 -2.2755
11874SOL     OW37775   6.277   7.862   7.453 -0.2311 -0.5824  0.4444
11874SOL    HW137776   6.249   7.770   7.451  0.4346 -0.7837 -1.4830
11874SOL    HW237777   6.239   7.900   7.373 -1.0682  1.0223  1.5490
11875SOL     OW37778   8.525   0.382   0.759 -0.1497  0.4346 -0.0275
11875SOL    HW137779   8.522   0.388   0.854  0.2886 -2.7347  0.2771
11875SOL    HW237780   8.434   0.386   0.731 -0.3651  0.1611  0.6342
11876SOL     OW37781   5.032   0.395   0.094  0.7863  0.2833 -0.3992
11876SOL    HW137782   5.078   0.401   0.178  0.5100 -0.2898 -0.2031
11876SOL    HW237783   5.007   0.485   0.074  1.0010  0.4467  0.0547
11877SOL     OW37784   6.515   3.543   0.013 -0.4738 -0.1355 -0.0493
11877SOL    HW137785   6.473   3.578  -0.066  0.7253 -0.9710 -1.0892
11877SOL    HW237786   6.604   3.577   0.009 -0.4158 -0.1380  0.9947
11878SOL     OW37787   8.264   0.466   7.245 -0.1232  0.6785 -0.0921
11878SOL    HW137788   8.340   0.455   7.302 -0.9885  0.0536  0.9649
11878SOL    HW237789   8.301   0.492   7.161  1.3053 -0.1378  0.2529
11879SOL     OW37790   3.319   6.504   8.452 -0.8499  0.8937 -0.1609
11879SOL    HW137791   3.284   6.592   8.456  1.2117  1.7507  0.3609
11879SOL    HW237792   3.380   6.506   8.378 -0.6245 -0.0316 -0.0185
11880SOL     OW37793   6.541   6.699   2.058 -0.0638 -0.5433  0.0149
11880SOL    HW137794   6.527   6.695   1.964  0.4439  0.0074 -0.0857
11880SOL    HW237795   6.486   6.628   2.093  0.1808 -1.1228 -0.7346
11881SOL     OW37796   2.054   7.396   6.732 -0.5470 -0.0833  0.0022
11881SOL    HW137797   2.137   7.400   6.780 -0.5628  1.5700 -0.0399
11881SOL    HW237798   1.990   7.436   6.791 -1.1302 -0.5192 -0.3261
11882SOL     OW37799   6.421   5.536   6.873  0.2947 -0.2290  0.6871
11882SOL    HW137800   6.414   5.463   6.934  1.3729  0.5864  1.8435
11882SOL    HW237801   6.432   5.495   6.787  1.5665 -1.4529  1.3954
11883SOL     OW37802   7.742   4.046   4.804  0.7169  0.1045 -0.1705
11883SOL    HW137803   7.746   4.140   4.822  0.1750  0.2451 -0.7402
11883SOL    HW237804   7.651   4.030   4.780  0.8510 -0.5341 -0.2784
11884SOL     OW37805   5.623   6.200   6.542 -0.3936 -0.0565 -0.0730
11884SOL    HW137806   5.713   6.170   6.535 -0.6468 -0.7334 -0.4872
11884SOL    HW237807   5.611   6.258   6.466 -0.5840 -0.6956 -0.5330
11885SOL     OW37808   3.573   6.645   4.353 -0.4082 -0.0634  0.0999
11885SOL    HW137809   3.507   6.598   4.301  0.4002  0.0288 -1.0333
11885SOL    HW237810   3.551   6.623   4.443 -2.0495  0.0393 -0.2473
11886SOL     OW37811   8.703   4.769   0.017  0.2270  0.2440 -0.1896
11886SOL    HW137812   8.639   4.699   0.029  0.1486  0.5634  1.6559
11886SOL    HW237813   8.712   4.779  -0.078 -2.4522  0.2039 -0.5057
11887SOL     OW37814   7.015   1.811   3.900  0.3038  0.1618  0.5945
11887SOL    HW137815   7.029   1.722   3.933 -0.5045  0.0882  0.7720
11887SOL    HW237816   7.099   1.837   3.864 -0.0764 -1.6611 -1.8329
11888SOL     OW37817   5.396   5.386   4.471  0.8077  0.5623  0.7240
11888SOL    HW137818   5.424   5.389   4.562 -1.1984 -1.0017  1.4770
11888SOL    HW237819   5.407   5.294   4.446  1.5863  1.0236 -0.7241
11889SOL     OW37820   8.188   4.182   0.216  0.0711  0.2303  0.0111
11889SOL    HW137821   8.250   4.233   0.269  1.4431 -0.9155 -0.4442
11889SOL    HW237822   8.148   4.121   0.278  1.3612 -0.8173 -0.1533
11890SOL     OW37823   8.174   3.752   8.343  0.4715 -0.1920 -0.2558
11890SOL    HW137824   8.180   3.758   8.438 -0.2906  0.5707 -0.2321
11890SOL    HW237825   8.214   3.668   8.321  1.6757  0.1275  0.6263
11891SOL     OW37826   8.595   2.090   8.212  0.7454  0.3567  0.1738
11891SOL    HW137827   8.585   2.051   8.299  3.3442 -0.7175  0.0696
11891SOL    HW237828   8.643   2.171   8.227  1.2652  0.1335 -0.2544
11892SOL     OW37829   3.509   7.183   2.988 -0.0769  0.4952 -0.4815
11892SOL    HW137830   3.599   7.175   3.021  0.3903  2.0149 -1.3006
11892SOL    HW237831   3.458   7.126   3.045  1.1039  1.0645  1.2463
11893SOL     OW37832   0.182   5.466   0.271 -0.3930 -0.2326  0.1284
11893SOL    HW137833   0.101   5.510   0.245 -0.1303  0.0298 -0.2565
11893SOL    HW237834   0.162   5.429   0.357 -0.5528  0.8413  0.5795
11894SOL     OW37835   0.632   8.263   1.260 -0.1054  0.0994 -0.4757
11894SOL    HW137836   0.610   8.173   1.235  0.0725 -1.2096  3.3269
11894SOL    HW237837   0.550   8.311   1.252 -0.1870 -0.3077 -2.6609
11895SOL     OW37838   2.390   2.467   5.993 -0.4028 -0.3048 -0.3653
11895SOL    HW137839   2.404   2.414   6.072 -1.7829  0.5665  0.5071
11895SOL    HW237840   2.340   2.543   6.023 -0.8345  0.1355 -2.0528
11896SOL     OW37841   1.577   4.132   1.313  0.3867 -0.4440 -0.3559
11896SOL    HW137842   1.611   4.069   1.250  1.7961 -0.7419  0.6603
11896SOL    HW237843   1.624   4.213   1.294  0.2432 -0.3163 -0.1742
11897SOL     OW37844   0.174   7.399   0.849 -0.1512 -0.0818  0.4241
11897SOL    HW137845   0.134   7.409   0.936 -0.7310  1.8240  0.0028
11897SOL    HW237846   0.118   7.452   0.792  1.3150  0.2636 -0.7422
11898SOL     OW37847   2.757   3.456   3.916  0.2753  0.2846 -0.0301
11898SOL    HW137848   2.738   3.373   3.959  0.3621  1.1689  1.8478
11898SOL    HW237849   2.852   3.462   3.916  0.2789  0.2699 -0.4258
11899SOL     OW37850   3.921   7.531   5.907  0.0105 -0.6447 -0.0525
11899SOL    HW137851   3.887   7.546   5.995 -2.3421 -2.3813 -0.5512
11899SOL    HW237852   3.955   7.442   5.909 -0.8715 -1.0335 -1.0795
11900SOL     OW37853   7.575   0.984   1.069 -0.3022 -0.1634  0.1734
11900SOL    HW137854   7.574   1.061   1.126 -2.5611  0.7395 -0.9465
11900SOL    HW237855   7.661   0.946   1.082  1.3968  3.1986 -0.0869
11901SOL     OW37856   2.896   7.110   8.874 -0.2447  0.4789  0.2405
11901SOL    HW137857   2.887   7.119   8.779 -0.4614  0.8312  0.2916
11901SOL    HW237858   2.980   7.066   8.886 -0.1440  0.5700 -0.1117
11902SOL     OW37859   5.510   4.049   7.640 -0.9013 -0.4865  0.3386
11902SOL    HW137860   5.587   4.099   7.669  0.9025 -2.7502 -0.2436
11902SOL    HW237861   5.461   4.110   7.586  1.6741  0.4509 -1.0989
11903SOL     OW37862   4.327   0.044   7.649  0.1143  0.2886 -0.4419
11903SOL    HW137863   4.401   0.011   7.699 -1.0581 -1.0723  0.4992
11903SOL    HW237864   4.365   0.100   7.582  1.7976  1.7346  1.5992
11904SOL     OW37865   9.204   1.236   0.709 -0.2587  0.8149 -0.0252
11904SOL    HW137866   9.289   1.239   0.665 -0.2342 -1.6445 -0.2526
11904SOL    HW237867   9.223   1.202   0.796 -0.8792  1.3914  0.3461
11905SOL     OW37868   7.314   3.289   9.285 -0.2116 -0.4179 -0.2586
11905SOL    HW137869   7.219   3.292   9.271 -0.1586  1.4334 -0.3953
11905SOL    HW237870   7.334   3.195   9.287 -2.0696 -0.8538  0.0438
11906SOL     OW37871   5.389   3.333   3.186 -0.0872  0.2268 -0.2521
11906SOL    HW137872   5.428   3.257   3.229 -0.7222  0.2408  0.3735
11906SOL    HW237873   5.463   3.381   3.150  0.2726 -1.0245 -1.2398
11907SOL     OW37874   4.015   0.256   2.843 -0.2586 -0.3058  0.3711
11907SOL    HW137875   4.071   0.249   2.920  0.6256 -1.3401 -0.3304
11907SOL    HW237876   4.069   0.305   2.780 -0.4663 -0.5964 -0.0333
11908SOL     OW37877   1.015   1.701   8.148  0.8372 -0.0784  0.4850
11908SOL    HW137878   1.013   1.757   8.071  1.4712 -1.6089 -0.6851
11908SOL    HW237879   0.923   1.697   8.177  0.7652  1.4838  0.6027
11909SOL     OW37880   6.457   6.772   9.457 -0.0342 -0.1805 -0.0260
11909SOL    HW137881   6.520   6.818   9.513 -0.8824  0.0445  0.7833
11909SOL    HW237882   6.419   6.841   9.403 -0.8754 -0.0015  0.7671
11910SOL     OW37883   1.599   7.102   1.307  0.3089 -0.0185 -0.0134
11910SOL    HW137884   1.651   7.152   1.244 -1.2213  1.2315 -0.3412
11910SOL    HW237885   1.664   7.058   1.362  1.6882 -0.0508 -1.5795
11911SOL     OW37886   8.839   8.375   3.645 -0.1495  0.3114  0.1085
11911SOL    HW137887   8.767   8.359   3.706 -0.4156  0.8306 -0.0622
11911SOL    HW237888   8.797   8.380   3.559  0.2079 -0.3076 -0.1087
11912SOL     OW37889   7.048   5.956   2.413  0.5659  0.0734  0.0727
11912SOL    HW137890   7.140   5.982   2.420  0.3698  0.4537  1.5767
11912SOL    HW237891   7.043   5.912   2.329  2.5501 -1.6373  0.7513
11913SOL     OW37892   5.935   2.883   5.654 -0.0910  0.1347  0.5135
11913SOL    HW137893   5.906   2.840   5.573  1.9487 -1.0241  0.3318
11913SOL    HW237894   5.909   2.823   5.724 -0.0733  0.1486  0.5322
11914SOL     OW37895   3.684   0.392   7.946 -0.2540 -0.2679 -0.0359
11914SOL    HW137896   3.702   0.306   7.910  0.3787 -0.1068 -0.1302
11914SOL    HW237897   3.732   0.394   8.030 -1.1700 -0.4029  0.5012
11915SOL     OW37898   7.102   2.321   7.038  0.1248  0.0568 -0.0852
11915SOL    HW137899   7.178   2.350   7.088 -0.1756  0.0209  0.4003
11915SOL    HW237900   7.053   2.265   7.099  1.4681 -2.7662 -1.4121
11916SOL     OW37901   9.623   3.999   2.044  0.2048 -0.2014  0.0220
11916SOL    HW137902   9.543   4.043   2.072 -0.2179 -0.8660 -0.1129
11916SOL    HW237903   9.686   4.069   2.031 -0.0182  0.2339  1.2234
11917SOL     OW37904   1.770   2.394   7.548  0.3414 -0.8108  0.3230
11917SOL    HW137905   1.857   2.433   7.559 -0.5671  1.3450  0.2762
11917SOL    HW237906   1.768   2.367   7.456  1.1803 -1.5249  0.4946
11918SOL     OW37907   4.645   5.523   1.331  0.4024 -0.2656 -0.0218
11918SOL    HW137908   4.565   5.531   1.383 -0.0587 -1.9256 -0.4138
11918SOL    HW237909   4.624   5.563   1.247  0.2208 -0.0784  0.1117
11919SOL     OW37910   4.132   6.686   2.426  0.5743 -0.4146  0.3036
11919SOL    HW137911   4.155   6.707   2.335  2.3359 -0.9452  0.5775
11919SOL    HW237912   4.080   6.760   2.455  0.8357  0.2462 -0.8383
11920SOL     OW37913   9.592   4.546   0.672  0.5752  0.5653  0.0104
11920SOL    HW137914   9.499   4.562   0.657  0.1582 -1.0422  0.7021
11920SOL    HW237915   9.603   4.550   0.767  0.9074 -0.6579  0.0395
11921SOL     OW37916   7.901   3.119   6.146 -0.0357 -0.3768  0.3816
11921SOL    HW137917   7.915   3.057   6.217  2.1394 -0.6059 -0.1622
11921SOL    HW237918   7.880   3.202   6.189  0.7411 -0.6338  1.2951
11922SOL     OW37919   8.407   9.581   3.304 -0.0377  0.3668  0.7575
11922SOL    HW137920   8.385   9.515   3.238 -1.0066  3.1697 -1.9826
11922SOL    HW237921   8.478   9.542   3.354  0.1851 -2.3067 -1.3766
11923SOL     OW37922   7.338   6.370   5.485  0.0123  0.0574  0.0488
11923SOL    HW137923   7.374   6.338   5.568 -1.1012  2.5157  1.5914
11923SOL    HW237924   7.390   6.448   5.465 -1.2434  0.8261 -0.3080
11924SOL     OW37925   0.186   3.276   3.500  0.3395  0.0922  0.2435
11924SOL    HW137926   0.231   3.286   3.417  2.8798  2.7711  1.7637
11924SOL    HW237927   0.209   3.188   3.530 -0.4999 -0.8524 -1.7380
11925SOL     OW37928   2.976   2.677   6.752  0.2464 -0.0712  0.6344
11925SOL    HW137929   2.984   2.624   6.673  1.3396  1.0846 -0.0654
11925SOL    HW237930   3.037   2.637   6.814  0.6917  0.0563  0.2831
11926SOL     OW37931   3.718   5.430   7.056  0.5688  0.0843 -0.6380
11926SOL    HW137932   3.805   5.455   7.089 -0.3608  0.8389  1.3808
11926SOL    HW237933   3.716   5.335   7.065  1.3317  0.0040 -1.1394
11927SOL     OW37934   1.559   4.445   7.120 -0.5868  0.2068  0.4587
11927SOL    HW137935   1.573   4.520   7.177  0.0039  0.7786 -0.4148
11927SOL    HW237936   1.488   4.472   7.062 -1.6262 -0.6130  1.3110
11928SOL     OW37937   0.368   8.368   5.353  0.0830  0.1241  0.1963
11928SOL    HW137938   0.461   8.368   5.375  0.2308 -0.4095 -0.3954
11928SOL    HW237939   0.323   8.356   5.437  0.5490  0.3430  0.4767
11929SOL     OW37940   9.522   2.776   6.151 -0.8043  0.1717  0.3870
11929SOL    HW137941   9.475   2.773   6.234 -1.6670  0.5321 -0.0786
11929SOL    HW237942   9.475   2.840   6.099 -0.8677 -0.7476 -0.7312
11930SOL     OW37943   1.620   6.478   6.016 -0.5601  0.4249 -0.0879
11930SOL    HW137944   1.554   6.458   5.950  0.5093  0.2878 -1.1420
11930SOL    HW237945   1.697   6.427   5.990 -0.6558 -1.0981  2.2896
11931SOL     OW37946   3.016   2.856   0.857 -0.3226  0.5328  0.2290
11931SOL    HW137947   2.957   2.817   0.792 -0.5154  0.6259  0.3445
11931SOL    HW237948   3.104   2.842   0.822 -0.4631  1.5507 -0.6049
11932SOL     OW37949   4.507   6.756   9.134  0.3975  0.6106 -0.4294
11932SOL    HW137950   4.497   6.823   9.201  1.1053 -1.4272  1.8424
11932SOL    HW237951   4.419   6.720   9.122  0.7078 -1.1971  1.9301
11933SOL     OW37952   0.277   0.530   5.497  0.7331  0.0810 -0.5423
11933SOL    HW137953   0.337   0.484   5.438  1.6080  0.5496 -0.0376
11933SOL    HW237954   0.237   0.460   5.549  1.5683 -0.1745 -0.2203
11934SOL     OW37955   5.837   5.843   3.154 -0.3073  0.1918  0.0949
11934SOL    HW137956   5.813   5.880   3.069 -1.7045  0.8162  0.7229
11934SOL    HW237957   5.894   5.909   3.194  0.2570 -0.0508 -0.2924
11935SOL     OW37958   5.956   2.455   7.503  0.6081 -0.3738  0.3094
11935SOL    HW137959   5.905   2.491   7.575  0.7486  0.8269 -0.1576
11935SOL    HW237960   5.908   2.378   7.475 -0.7733  0.5271  0.1101
11936SOL     OW37961   8.384   1.495   7.448  0.3059 -0.4814 -0.5182
11936SOL    HW137962   8.466   1.524   7.488 -0.5788  0.5130  0.6835
11936SOL    HW237963   8.342   1.441   7.515 -0.9616  0.7709 -0.2462
11937SOL     OW37964   2.077   0.703   0.870 -0.6854 -0.1834  0.0225
11937SOL    HW137965   2.095   0.740   0.784  0.0881  0.7582  0.5741
11937SOL    HW237966   2.155   0.650   0.890 -0.9174 -0.5015  0.0906
11938SOL     OW37967   1.126   9.398   7.316 -0.4543 -0.3276  0.1639
11938SOL    HW137968   1.172   9.432   7.239  0.6497  3.8644  2.3752
11938SOL    HW237969   1.034   9.412   7.297 -0.4118 -1.7448 -1.3106
11939SOL     OW37970   5.270   5.982   1.744 -0.0901 -0.1825  0.3850
11939SOL    HW137971   5.246   5.895   1.710 -0.7586 -0.2319  0.9573
11939SOL    HW237972   5.332   6.016   1.679  1.2435 -1.6323  0.8281
11940SOL     OW37973   6.293   2.381   6.510  0.6980 -0.2470 -0.2486
11940SOL    HW137974   6.305   2.415   6.421  3.1510 -1.4479 -0.4645
11940SOL    HW237975   6.361   2.315   6.519 -0.4410 -1.1904  2.0485
11941SOL     OW37976   5.004   6.774   0.584  0.4453  0.4562 -0.1442
11941SOL    HW137977   4.984   6.833   0.512 -1.0827 -1.1576 -1.1190
11941SOL    HW237978   4.961   6.692   0.561  2.2765 -1.0010  1.2523
11942SOL     OW37979   2.315   9.360   3.038  0.4007 -0.1265 -0.8659
11942SOL    HW137980   2.344   9.312   2.961  0.9047  0.2872 -0.9434
11942SOL    HW237981   2.329   9.452   3.015  0.8787 -0.0167 -0.1590
11943SOL     OW37982   7.918   5.866   5.978  0.1049 -0.0731 -0.6213
11943SOL    HW137983   7.905   5.835   5.889 -1.0908  0.3817 -0.6164
11943SOL    HW237984   7.932   5.961   5.970  1.3899 -0.2165 -0.4261
11944SOL     OW37985   2.041   8.956   0.498 -0.1969 -0.1325  0.1065
11944SOL    HW137986   2.049   8.950   0.593 -1.5301  0.3332  0.2715
11944SOL    HW237987   2.128   8.935   0.465  0.0463 -1.2668  1.3848
11945SOL     OW37988   2.880   5.348   2.002 -0.5586  0.2543  0.0072
11945SOL    HW137989   2.866   5.292   1.925  0.9368 -1.7046  1.0795
11945SOL    HW237990   2.956   5.401   1.978  0.4623 -0.9745  0.3949
11946SOL     OW37991   3.631   5.192   8.736  0.2627 -0.5560 -0.2768
11946SOL    HW137992   3.620   5.241   8.817  0.6500 -1.0390  0.0730
11946SOL    HW237993   3.701   5.130   8.755 -0.7796 -1.8225 -0.4349
11947SOL     OW37994   4.948   0.719   7.303 -0.1020 -0.0311 -0.1319
11947SOL    HW137995   4.902   0.803   7.309  0.9322  0.5533 -0.2258
11947SOL    HW237996   4.961   0.693   7.394 -0.0294  0.1285 -0.0965
11948SOL     OW37997   5.742   2.779   0.331 -0.1383 -0.1119 -0.0309
11948SOL    HW137998   5.671   2.715   0.328  1.1464 -1.5631 -1.1022
11948SOL    HW237999   5.707   2.855   0.284 -0.6560 -1.1817 -1.4630
11949SOL     OW38000   9.090   1.100   8.828 -0.6381 -0.4000  0.6282
11949SOL    HW138001   9.040   1.099   8.910  3.5227 -1.6597  3.4817
11949SOL    HW238002   9.112   1.008   8.813  0.3701  0.0385 -0.7406
11950SOL     OW38003   5.918   3.288   3.692  0.7943  0.6418  0.4720
11950SOL    HW138004   5.954   3.273   3.604 -0.2265 -0.6862  0.2504
11950SOL    HW238005   5.905   3.200   3.728 -1.8706  1.0559  0.6638
11951SOL     OW38006   5.397   3.660   6.646  0.8432  0.0918  0.4301
11951SOL    HW138007   5.407   3.643   6.552  1.7688 -1.2773  0.7377
11951SOL    HW238008   5.472   3.715   6.669  0.5682  0.5003  0.3551
11952SOL     OW38009   0.764   0.428   1.091  0.2207  0.0621 -0.2862
11952SOL    HW138010   0.677   0.416   1.054  0.4502  0.1846 -0.8804
11952SOL    HW238011   0.805   0.342   1.087  0.5283  0.2354 -1.0685
11953SOL     OW38012   5.840   4.049   3.572 -0.9533  0.6021 -0.3473
11953SOL    HW138013   5.749   4.023   3.559 -0.7580  0.0047 -0.5398
11953SOL    HW238014   5.880   3.974   3.616 -1.0442  1.6626  1.6484
11954SOL     OW38015   5.117   8.635   4.400 -0.2844  0.3988  0.5266
11954SOL    HW138016   5.029   8.668   4.384 -0.2975 -0.6481 -1.9665
11954SOL    HW238017   5.104   8.547   4.434 -0.2065  0.4458  0.6786
11955SOL     OW38018   6.835   2.374   4.663 -0.5833 -0.2431 -0.8445
11955SOL    HW138019   6.891   2.367   4.740  0.4060  1.3723 -1.3673
11955SOL    HW238020   6.805   2.285   4.646 -0.5981 -0.6877  1.2205
11956SOL     OW38021   0.860   6.412   7.990  0.7519 -0.0024 -0.5393
11956SOL    HW138022   0.879   6.351   7.918 -0.7564  0.0967 -1.0556
11956SOL    HW238023   0.772   6.444   7.971  0.9275  1.1800  0.5600
11957SOL     OW38024   6.100   5.363   6.829  0.5508 -0.3837  0.3196
11957SOL    HW138025   6.151   5.320   6.898  1.4779 -0.7408 -0.5623
11957SOL    HW238026   6.126   5.318   6.749 -1.4089 -0.7937 -0.1357
11958SOL     OW38027   3.913   3.066   4.324  0.0819  0.6082  0.2345
11958SOL    HW138028   3.844   3.012   4.286 -1.2481  3.2069 -1.3469
11958SOL    HW238029   3.886   3.079   4.415 -0.9705  0.7038 -0.0742
11959SOL     OW38030   3.550   8.319   0.379 -0.1000 -0.0752 -0.0073
11959SOL    HW138031   3.595   8.403   0.377 -0.2348  0.0041  0.3673
11959SOL    HW238032   3.562   8.287   0.468  0.3554 -0.6720 -0.2719
11960SOL     OW38033   1.216   5.224   1.747 -0.5178 -0.5149  0.8929
11960SOL    HW138034   1.172   5.230   1.832 -1.4702  2.5915  0.3107
11960SOL    HW238035   1.145   5.212   1.685 -0.0948 -0.0287  0.3094
11961SOL     OW38036   4.714   8.520   2.059 -0.3328  0.3041 -0.6338
11961SOL    HW138037   4.707   8.581   2.132 -1.0751  1.3849 -1.5814
11961SOL    HW238038   4.780   8.557   2.002  0.1310 -0.4539 -0.6032
11962SOL     OW38039   5.502   4.497   5.750  0.1763  0.1561  0.1091
11962SOL    HW138040   5.503   4.405   5.724  0.8230  0.5816 -1.4925
11962SOL    HW238041   5.474   4.544   5.672  0.8120  1.4118  0.6004
11963SOL     OW38042   0.526   3.256   4.345 -0.1200 -0.3747  0.3149
11963SOL    HW138043   0.598   3.318   4.339 -0.6672  0.7897  3.6490
11963SOL    HW238044   0.470   3.277   4.270  2.0807 -0.2108 -1.4078
11964SOL     OW38045   7.989   8.707   4.856 -0.3433  0.1678 -0.0797
11964SOL    HW138046   7.946   8.639   4.909 -1.3810  0.0374 -1.0632
11964SOL    HW238047   8.083   8.695   4.874 -0.5594 -1.0318  0.3450
11965SOL     OW38048   2.124   7.828   2.691  0.0823  0.3957  0.3016
11965SOL    HW138049   2.032   7.802   2.685  0.0475  0.7863 -1.1239
11965SOL    HW238050   2.173   7.750   2.663  0.1090  0.7460 -0.6450
11966SOL     OW38051   4.716   7.639   2.772  0.0332  0.2867  0.2738
11966SOL    HW138052   4.754   7.718   2.734 -1.1434  1.4661  1.4220
11966SOL    HW238053   4.744   7.641   2.863 -0.2472 -0.4775  0.3807
11967SOL     OW38054   4.402   5.464   1.459  0.4595 -0.2034 -1.0504
11967SOL    HW138055   4.376   5.406   1.387  0.6797 -1.7179  0.0252
11967SOL    HW238056   4.323   5.511   1.483 -0.0651 -1.0378 -1.1177
11968SOL     OW38057   3.723   1.026   6.383 -0.1183  0.1628 -0.2076
11968SOL    HW138058   3.724   1.063   6.472 -1.1520 -2.3033  0.9232
11968SOL    HW238059   3.727   0.932   6.396 -1.1994 -0.3235 -2.7693
11969SOL     OW38060   0.035   4.356   6.887 -0.3210 -0.3587 -0.0406
11969SOL    HW138061   0.084   4.423   6.839 -0.0838  1.3411  2.3667
11969SOL    HW238062   0.016   4.289   6.822  0.4921  1.4730 -2.3218
11970SOL     OW38063   2.759   1.517   9.232  0.4236 -0.0874  0.0756
11970SOL    HW138064   2.677   1.515   9.282 -0.5545  0.7078 -1.4236
11970SOL    HW238065   2.760   1.433   9.186  0.3128  0.0171 -0.1172
11971SOL     OW38066   8.532   2.444   9.163 -0.1637 -0.3600  0.3893
11971SOL    HW138067   8.612   2.445   9.215 -0.1578 -2.1868  0.4910
11971SOL    HW238068   8.467   2.488   9.218  0.6774  0.8897  0.4232
11972SOL     OW38069   7.350   1.835   4.815 -0.2108 -0.4125 -0.1429
11972SOL    HW138070   7.407   1.772   4.769  0.0136  0.8085 -1.6263
11972SOL    HW238071   7.362   1.815   4.907  3.1485  0.1625 -0.3384
11973SOL     OW38072   8.131   8.680   2.893 -0.1906  0.0038  0.7371
11973SOL    HW138073   8.088   8.744   2.949  1.1997  0.4517  1.3330
11973SOL    HW238074   8.196   8.638   2.950 -0.4187 -1.2704  0.1018
11974SOL     OW38075   5.130   2.958   0.872  0.0984  0.2440  0.4356
11974SOL    HW138076   5.180   2.902   0.931  0.5910 -0.3525 -0.5122
11974SOL    HW238077   5.053   2.984   0.922 -0.8143 -2.3205  0.5248
11975SOL     OW38078   0.056   2.951   3.048 -0.0107 -0.5152  0.3634
11975SOL    HW138079   0.119   2.886   3.017  0.9533  0.7470 -0.4169
11975SOL    HW238080   0.000   2.967   2.972  0.2962  0.1822  0.2795
11976SOL     OW38081   9.368   6.869   6.691  0.2592  0.1642 -0.0846
11976SOL    HW138082   9.314   6.805   6.737 -1.4583  1.5184 -0.1047
11976SOL    HW238083   9.345   6.952   6.731  1.8587  0.8683 -0.5825
11977SOL     OW38084   6.419   5.162   3.858  0.0290 -0.3466  0.0415
11977SOL    HW138085   6.402   5.090   3.798 -0.8797 -1.1928  1.2699
11977SOL    HW238086   6.455   5.232   3.802  0.2870 -1.4899 -1.2710
11978SOL     OW38087   7.703   7.607   0.644 -0.2493 -0.3155 -0.2914
11978SOL    HW138088   7.790   7.644   0.660 -0.5136 -0.3694  1.5046
11978SOL    HW238089   7.720   7.529   0.592  0.8387 -0.5402  0.3564
11979SOL     OW38090   1.716   9.041   8.279 -0.4644  0.5608  0.1883
11979SOL    HW138091   1.749   9.079   8.360 -0.5938 -0.2798  0.6465
11979SOL    HW238092   1.780   8.973   8.256 -0.1243  1.1711 -0.7289
11980SOL     OW38093   9.445   6.205   9.441 -0.1917 -0.1665 -0.5605
11980SOL    HW138094   9.533   6.223   9.474  0.0852 -0.2268 -1.2342
11980SOL    HW238095   9.435   6.110   9.451 -1.3798  0.1564  2.3362
11981SOL     OW38096   2.125   7.737   1.980  0.4890 -0.0209 -0.0774
11981SOL    HW138097   2.213   7.772   1.983  0.5874  0.1811 -2.6659
11981SOL    HW238098   2.081   7.788   1.912 -1.9129  0.4488  1.6954
11982SOL     OW38099   6.701   3.075   2.785  0.4101 -0.1107 -0.1637
11982SOL    HW138100   6.693   2.980   2.783  0.4153 -0.2159  2.1420
11982SOL    HW238101   6.612   3.107   2.769  0.1074 -0.5694  0.5337
11983SOL     OW38102   6.237   4.136   1.623 -0.0582  0.0707  0.2940
11983SOL    HW138103   6.162   4.110   1.676  0.0169 -0.9165 -0.0570
11983SOL    HW238104   6.221   4.097   1.538 -0.1414  1.5740 -0.4182
11984SOL     OW38105   2.016   0.749   1.160 -0.0807  0.0557 -0.2843
11984SOL    HW138106   2.014   0.776   1.068  0.4654 -2.7661 -1.2025
11984SOL    HW238107   1.925   0.749   1.187 -0.1041  3.9647  0.2796
11985SOL     OW38108   8.329   1.440   5.873 -0.0441  0.2952  0.0058
11985SOL    HW138109   8.369   1.482   5.949  2.4672 -0.3619 -0.8638
11985SOL    HW238110   8.287   1.512   5.826  1.2988  1.3161  0.2866
11986SOL     OW38111   5.079   6.307   0.847  0.3956  0.1799 -0.3141
11986SOL    HW138112   5.109   6.222   0.817 -1.9278 -0.7599 -0.2342
11986SOL    HW238113   5.104   6.311   0.939 -1.4151 -1.4650  0.3105
11987SOL     OW38114   7.649   8.877   1.451  0.0337  0.0123 -0.7910
11987SOL    HW138115   7.616   8.907   1.536  0.9273  1.3010 -0.8738
11987SOL    HW238116   7.572   8.877   1.394 -0.5148 -0.5721 -0.0619
11988SOL     OW38117   1.686   8.393   8.803 -0.1615 -0.0251  0.2092
11988SOL    HW138118   1.637   8.317   8.771 -1.0476  0.6357 -0.0610
11988SOL    HW238119   1.772   8.359   8.826  0.0404 -0.7901 -1.5496
11989SOL     OW38120   3.562   9.453   1.380 -0.0656 -0.1302  0.4120
11989SOL    HW138121   3.537   9.408   1.300 -1.0681  0.1571  0.5525
11989SOL    HW238122   3.647   9.491   1.361 -0.3869  0.1117 -0.5902
11990SOL     OW38123   1.321   3.548   6.623  0.2220  0.2935  0.1150
11990SOL    HW138124   1.294   3.638   6.645 -0.7477 -0.0109  0.2213
11990SOL    HW238125   1.238   3.502   6.607  0.7704 -0.1700 -1.5783
11991SOL     OW38126   8.097   4.507   9.249 -0.0632  0.1432 -0.0193
11991SOL    HW138127   8.041   4.437   9.217 -1.2945  0.7602  0.6683
11991SOL    HW238128   8.035   4.573   9.282  0.9458 -0.9242  4.7805
11992SOL     OW38129   6.511   8.726   5.078  0.2433  0.4092  0.0487
11992SOL    HW138130   6.476   8.811   5.101  0.2699  1.1445 -2.3370
11992SOL    HW238131   6.545   8.690   5.160  0.1209  2.6202  1.1215
11993SOL     OW38132   9.129   7.988   7.962 -0.7202  0.0143 -0.2627
11993SOL    HW138133   9.173   8.034   8.034 -0.4103 -0.6334 -0.0331
11993SOL    HW238134   9.038   8.017   7.967 -0.5758  0.4269  0.0222
11994SOL     OW38135   3.343   8.248   2.686 -0.0534 -0.0736 -0.4508
11994SOL    HW138136   3.434   8.278   2.684 -0.0829  0.0363 -2.7666
11994SOL    HW238137   3.292   8.328   2.690 -0.0656 -0.0032 -1.7836
11995SOL     OW38138   6.908   8.328   5.040 -0.4750  0.0515  0.4876
11995SOL    HW138139   6.974   8.388   5.005 -1.0144  1.4616  1.7657
11995SOL    HW238140   6.856   8.382   5.099 -1.1337 -1.6383  1.5216
11996SOL     OW38141   1.915   1.335   4.286  0.0922 -0.3632  0.2933
11996SOL    HW138142   1.854   1.408   4.294  0.2728 -0.3132  1.3203
11996SOL    HW238143   1.897   1.298   4.199 -0.3980  0.5342  0.0015
11997SOL     OW38144   7.439   7.559   4.557 -0.0910  0.2879 -0.1676
11997SOL    HW138145   7.450   7.633   4.617  0.4540  1.4025 -1.5894
11997SOL    HW238146   7.528   7.541   4.525 -0.4604  0.1710 -1.1573
11998SOL     OW38147   3.616   8.261   6.217  0.4215 -0.0875  0.4055
11998SOL    HW138148   3.578   8.186   6.170  0.8984  0.9085 -1.7144
11998SOL    HW238149   3.701   8.274   6.175  0.5373  1.3708  1.0381
11999SOL     OW38150   2.637   5.504   9.489 -0.0355 -0.0918  0.6224
11999SOL    HW138151   2.549   5.512   9.452 -0.2922  0.0831  1.2488
11999SOL    HW238152   2.640   5.416   9.526  0.0198 -0.0662  0.6796
12000SOL     OW38153   7.932   2.991   8.745 -0.3232 -0.0335 -0.8927
12000SOL    HW138154   7.878   3.037   8.809 -0.9236  1.1044 -2.1772
12000SOL    HW238155   8.014   2.974   8.791 -0.3937  1.5770 -0.0965
12001SOL     OW38156   5.686   1.776   9.627 -0.2565 -0.6703  0.6123
12001SOL    HW138157   5.595   1.747   9.634 -0.1722 -0.8199  1.1090
12001SOL    HW238158   5.682   1.871   9.634 -0.4011 -0.6534  0.3332
12002SOL     OW38159   6.293   1.847   1.574 -0.2230 -0.5556 -0.0419
12002SOL    HW138160   6.233   1.910   1.534  0.7438 -0.7007 -1.8263
12002SOL    HW238161   6.239   1.799   1.637 -1.3289  1.0433  0.3115
12003SOL     OW38162   5.517   0.915   2.830 -0.1229  0.4471  0.6975
12003SOL    HW138163   5.542   0.942   2.741 -1.0563  1.4056  0.6943
12003SOL    HW238164   5.597   0.878   2.868 -0.2216 -2.0699 -1.2738
12004SOL     OW38165   4.545   3.113   6.411  0.1230  0.1945 -0.6819
12004SOL    HW138166   4.518   3.113   6.319 -0.6496 -0.1353 -0.4676
12004SOL    HW238167   4.577   3.202   6.426  0.6447  0.1357 -1.3736
12005SOL     OW38168   8.098   8.587   3.709  0.2096 -0.0338  0.4207
12005SOL    HW138169   8.165   8.619   3.649 -0.3168 -3.1314 -2.1287
12005SOL    HW238170   8.144   8.526   3.767  0.1218  0.2795  0.8240
12006SOL     OW38171   2.447   0.971   3.376 -0.2979 -0.1576  0.2326
12006SOL    HW138172   2.426   0.878   3.384  1.2303 -0.4116  2.1263
12006SOL    HW238173   2.541   0.976   3.393 -0.1044  1.6150 -1.0635
12007SOL     OW38174   1.602   6.316   7.632 -0.3462  0.0818 -0.1916
12007SOL    HW138175   1.515   6.309   7.673 -0.7525 -0.9150 -1.1668
12007SOL    HW238176   1.649   6.379   7.687 -1.9219  1.2255 -0.0581
12008SOL     OW38177   6.327   9.076   7.010  0.6673 -0.6413  0.1284
12008SOL    HW138178   6.342   9.090   7.104 -1.3439  0.2745  0.3816
12008SOL    HW238179   6.349   8.984   6.996  0.2930 -1.0099  1.6873
12009SOL     OW38180   6.620   0.014   7.599 -0.1893 -0.1547 -0.0811
12009SOL    HW138181   6.549   0.053   7.547  0.3849  1.8966  0.5693
12009SOL    HW238182   6.577  -0.057   7.647 -1.1385 -0.8589 -1.8892
12010SOL     OW38183   0.880   3.039   0.358 -0.2433  0.1003  0.5200
12010SOL    HW138184   0.800   2.987   0.352 -0.4204  0.4329  0.0249
12010SOL    HW238185   0.883   3.067   0.450 -1.2532  0.9647  0.3124
12011SOL     OW38186   3.297   6.181   9.530  0.3336 -0.2748  0.1454
12011SOL    HW138187   3.286   6.229   9.448  3.1874 -0.9865 -0.7578
12011SOL    HW238188   3.318   6.249   9.594 -2.0116  0.2979  0.4142
12012SOL     OW38189   4.541   5.447   2.831 -0.5146  0.4038  0.0932
12012SOL    HW138190   4.463   5.421   2.783 -1.0702 -0.5745  1.4775
12012SOL    HW238191   4.586   5.365   2.851  0.9002  0.9524 -0.7021
12013SOL     OW38192   5.580   4.600   3.308 -0.3493  0.3983 -0.2066
12013SOL    HW138193   5.510   4.629   3.367  1.5505  0.2258  2.3134
12013SOL    HW238194   5.625   4.681   3.283 -0.2820  0.3409 -0.2713
12014SOL     OW38195   5.700   4.960   7.270  0.1119  0.0181 -0.4354
12014SOL    HW138196   5.678   4.888   7.328 -0.8462 -1.0927 -2.0837
12014SOL    HW238197   5.615   4.988   7.234  0.8008 -0.8471 -2.9564
12015SOL     OW38198   9.319   6.211   1.631  0.1318  0.1881 -0.6434
12015SOL    HW138199   9.235   6.239   1.668 -0.1852 -0.7543 -0.6150
12015SOL    HW238200   9.295   6.164   1.551  0.7934  1.8996 -1.8869
12016SOL     OW38201   0.281   5.279   9.321  0.2634 -0.2723 -0.7119
12016SOL    HW138202   0.211   5.221   9.351 -0.6666 -0.2023 -2.6003
12016SOL    HW238203   0.321   5.312   9.401 -2.6999  0.6876  0.4865
12017SOL     OW38204   8.462   7.935   5.838 -0.0681 -0.1618  0.5459
12017SOL    HW138205   8.526   7.985   5.787 -0.0047 -0.5203  0.2648
12017SOL    HW238206   8.493   7.845   5.833  1.0235  0.0341  2.8579
12018SOL     OW38207   3.339   3.042   7.064 -0.2818  0.6322  0.2670
12018SOL    HW138208   3.429   3.069   7.083 -0.2103 -0.1760  1.1688
12018SOL    HW238209   3.326   3.065   6.972  1.4060 -0.6794 -0.3622
12019SOL     OW38210   3.365   5.597   6.700 -0.5493 -0.3066 -0.2954
12019SOL    HW138211   3.384   5.688   6.681  0.1633 -0.4142 -0.1542
12019SOL    HW238212   3.423   5.576   6.774 -1.3596 -0.6166  0.2695
12020SOL     OW38213   6.064   5.505   5.373 -0.1165 -0.4362  0.1456
12020SOL    HW138214   5.982   5.458   5.360  0.4186 -1.0231 -1.2755
12020SOL    HW238215   6.038   5.589   5.410 -1.2448 -1.0801  0.8544
12021SOL     OW38216   0.748   6.921   2.987  0.4693 -0.3673 -0.4231
12021SOL    HW138217   0.782   6.839   2.953  0.5908 -0.2869 -0.4953
12021SOL    HW238218   0.822   6.960   3.034  0.2190 -0.6243  0.1965
12022SOL     OW38219   6.603   2.716   4.385  0.3240  0.0534 -0.2337
12022SOL    HW138220   6.631   2.626   4.369  0.1928 -0.2084  0.8970
12022SOL    HW238221   6.681   2.759   4.421  0.5026  0.5122 -1.1403
12023SOL     OW38222   5.141   1.955   2.878  0.5220 -0.0859 -0.9362
12023SOL    HW138223   5.078   2.019   2.843  0.6344  0.0153 -0.9547
12023SOL    HW238224   5.207   2.009   2.922  0.2962 -0.2193 -0.4288
12024SOL     OW38225   9.053   4.672   0.151 -0.0608 -0.0745 -1.1374
12024SOL    HW138226   8.970   4.709   0.180 -0.6910 -1.6735 -0.7726
12024SOL    HW238227   9.030   4.588   0.112  1.3535 -0.4372 -1.2636
12025SOL     OW38228   1.929   3.884   8.064  0.2099  0.2074 -0.4985
12025SOL    HW138229   1.982   3.844   7.995  0.7904 -0.9692  0.5899
12025SOL    HW238230   1.975   3.864   8.145  0.9228  3.7256  0.1413
12026SOL     OW38231   0.310   3.929   2.989  0.5899  0.0796 -0.0566
12026SOL    HW138232   0.350   4.010   2.956 -0.2334  0.4312 -0.2258
12026SOL    HW238233   0.216   3.942   2.975  0.5023 -1.3111 -0.9997
12027SOL     OW38234   5.223   2.609   2.764 -0.5476 -0.5064 -0.0335
12027SOL    HW138235   5.244   2.519   2.789  0.6573 -0.4530 -0.7738
12027SOL    HW238236   5.238   2.660   2.844 -0.6822 -0.8801  0.2343
12028SOL     OW38237   2.598   8.358   8.260 -0.3349 -0.4289 -0.0037
12028SOL    HW138238   2.640   8.327   8.179 -0.6023  0.7077 -0.6047
12028SOL    HW238239   2.554   8.281   8.295  1.1320 -1.3261 -0.0694
12029SOL     OW38240   5.341   3.924   7.864  0.0799 -0.0973  0.2422
12029SOL    HW138241   5.307   3.939   7.776 -0.5818 -1.9279  0.1547
12029SOL    HW238242   5.325   4.007   7.910 -1.7881  0.0845 -0.6585
12030SOL     OW38243   5.475   5.912   9.391  0.2314 -0.0627 -0.5749
12030SOL    HW138244   5.407   5.857   9.429  1.8840 -0.9506  1.3192
12030SOL    HW238245   5.525   5.854   9.333 -0.8201  0.6889 -2.2952
12031SOL     OW38246   5.216   6.865   6.966  0.7243 -0.5587  0.0136
12031SOL    HW138247   5.185   6.794   6.910 -0.9657  1.5040 -1.8608
12031SOL    HW238248   5.149   6.871   7.035  0.5479 -0.4349 -0.1655
12032SOL     OW38249   5.985   5.018   8.949  0.4598  0.1803 -0.5981
12032SOL    HW138250   5.928   5.076   8.899  2.0794  1.8689 -0.5665
12032SOL    HW238251   6.022   4.958   8.884 -0.0400  0.1695 -0.8756
12033SOL     OW38252   7.710   4.363   6.336  0.3257 -0.1031  0.0041
12033SOL    HW138253   7.634   4.315   6.369  0.7600 -0.2308  0.8412
12033SOL    HW238254   7.747   4.406   6.413  2.3733 -1.7849  0.0667
12034SOL     OW38255   1.474   4.028   7.332  0.3549  0.3751 -0.2319
12034SOL    HW138256   1.516   4.100   7.285  0.1494  0.2248 -0.6560
12034SOL    HW238257   1.547   3.975   7.363  0.4930  0.2094 -0.8183
12035SOL     OW38258   7.667   5.220   5.251  0.2112 -0.3185 -0.3816
12035SOL    HW138259   7.746   5.261   5.286  0.1514  0.4096 -1.0652
12035SOL    HW238260   7.661   5.136   5.296  0.7521  0.1074  0.5090
12036SOL     OW38261   9.450   0.127   5.291 -0.0666  0.6263 -0.4955
12036SOL    HW138262   9.508   0.051   5.292 -0.2661  0.3868  2.5654
12036SOL    HW238263   9.507   0.200   5.264  1.2827  0.1063  0.7921
12037SOL     OW38264   5.013   5.822   9.523  0.2864 -0.0166 -0.1670
12037SOL    HW138265   4.946   5.795   9.586 -0.1625  1.2317 -0.0728
12037SOL    HW238266   4.963   5.854   9.448  0.7841  0.4740 -0.2960
12038SOL     OW38267   7.702   7.532   4.518  0.1701 -0.3030 -0.5109
12038SOL    HW138268   7.724   7.580   4.439  1.6640 -1.8479 -1.1025
12038SOL    HW238269   7.765   7.459   4.521 -0.3710 -0.7817  1.6447
12039SOL     OW38270   0.958   9.383   0.943 -0.5011 -0.2045 -0.2262
12039SOL    HW138271   0.874   9.423   0.964  0.0613  0.0573  1.7199
12039SOL    HW238272   1.019   9.457   0.937 -0.0024 -0.5428  0.5462
12040SOL     OW38273   4.759   1.472   9.565 -0.2544  0.7199 -0.0550
12040SOL    HW138274   4.827   1.526   9.605  0.6404 -0.7575  0.5023
12040SOL    HW238275   4.710   1.533   9.510  1.2865  1.9112 -0.1996
12041SOL     OW38276   0.147   7.814   0.376  0.1169 -0.3574  0.0752
12041SOL    HW138277   0.066   7.861   0.399 -0.9072 -2.0781  0.1453
12041SOL    HW238278   0.158   7.830   0.282  0.7031  1.3351  0.4022
12042SOL     OW38279   8.728   6.298   9.565  0.0909 -0.0228  0.1620
12042SOL    HW138280   8.784   6.346   9.505 -0.2700  0.0658 -0.1083
12042SOL    HW238281   8.654   6.357   9.581 -1.0865 -1.0395 -1.3026
12043SOL     OW38282   2.354   9.485   9.058  0.7574 -0.1397 -0.3052
12043SOL    HW138283   2.358   9.567   9.108  0.6791  0.0954 -0.6742
12043SOL    HW238284   2.440   9.445   9.071  0.6412 -0.2092  0.2293
12044SOL     OW38285   0.269   6.614   2.070  0.8405  0.0967 -0.3310
12044SOL    HW138286   0.284   6.695   2.118  1.5749 -1.2510  1.8877
12044SOL    HW238287   0.356   6.579   2.052  0.8934 -3.0209  4.1280
12045SOL     OW38288   1.458   2.461   9.266 -0.2225 -0.0890 -0.1655
12045SOL    HW138289   1.383   2.520   9.267 -1.8699 -2.0534  1.2593
12045SOL    HW238290   1.526   2.509   9.314 -0.4230  1.8039 -1.6499
12046SOL     OW38291   8.375   9.503   6.977  0.2808  0.0786  0.0018
12046SOL    HW138292   8.325   9.526   7.056  1.0250  0.3617  0.4049
12046SOL    HW238293   8.432   9.578   6.962 -0.5681  0.4789 -1.4282
12047SOL     OW38294   0.712   1.245   1.446 -1.0865 -0.0420 -0.1856
12047SOL    HW138295   0.620   1.219   1.435 -1.5825  0.9813  1.2387
12047SOL    HW238296   0.732   1.225   1.537  0.4867 -1.2758 -0.7470
12048SOL     OW38297   2.123   3.086   9.506 -0.1069 -0.8407  0.0904
12048SOL    HW138298   2.147   2.993   9.510  0.3750 -0.6863  1.0218
12048SOL    HW238299   2.206   3.133   9.515 -0.4148 -0.3168  0.2241
12049SOL     OW38300   1.623   1.298   3.300 -0.6331  0.4541  0.1024
12049SOL    HW138301   1.578   1.279   3.217 -1.6062  0.5089  0.6046
12049SOL    HW238302   1.647   1.390   3.293 -0.7079  0.4594 -0.1107
12050SOL     OW38303   6.186   7.263   6.918  0.0653  0.1351 -0.5823
12050SOL    HW138304   6.104   7.251   6.966 -0.4675  1.8521 -1.0014
12050SOL    HW238305   6.159   7.267   6.826  0.4587  1.7430 -0.6527
12051SOL     OW38306   0.778   9.155   2.036 -0.0124  0.6407 -0.4108
12051SOL    HW138307   0.710   9.223   2.036 -0.5243  0.1468 -1.0329
12051SOL    HW238308   0.760   9.104   1.957  0.3255 -0.2518  0.0786
12052SOL     OW38309   4.951   7.433   6.602 -0.2018 -0.6316  0.6041
12052SOL    HW138310   4.963   7.521   6.566 -0.5285  0.1259  2.2525
12052SOL    HW238311   5.032   7.387   6.578 -0.2886 -0.1100 -0.8189
12053SOL     OW38312   0.808   2.170   3.224 -0.3815  0.2072  0.0989
12053SOL    HW138313   0.799   2.077   3.204 -1.8259  0.3408  0.0135
12053SOL    HW238314   0.880   2.200   3.168  0.3665 -0.9166  0.4159
12054SOL     OW38315   0.034   8.656   2.253 -0.2726 -0.6168 -0.3792
12054SOL    HW138316   0.121   8.674   2.288 -0.3184  0.5557 -0.8265
12054SOL    HW238317   0.049   8.594   2.181  0.4647  1.0958 -1.7691
12055SOL     OW38318   1.911   4.501   7.836  0.3713 -0.1482  0.8356
12055SOL    HW138319   1.986   4.497   7.777 -1.3009 -2.3493 -1.3386
12055SOL    HW238320   1.845   4.550   7.788 -0.5179 -0.6320  1.5358
12056SOL     OW38321   5.069   2.597   8.394  0.0041 -0.1667  0.3327
12056SOL    HW138322   5.112   2.682   8.397 -1.1882  0.4491  0.5462
12056SOL    HW238323   4.976   2.616   8.407 -0.7894 -1.1480 -2.9856
12057SOL     OW38324   2.347   6.901   5.994  0.4448  0.5403  0.1093
12057SOL    HW138325   2.387   6.814   5.995  0.0659  0.3407 -1.0830
12057SOL    HW238326   2.401   6.953   5.935 -0.1294  0.7093 -0.2809
12058SOL     OW38327   7.870   6.564   4.948  0.5011  0.5878 -0.3569
12058SOL    HW138328   7.810   6.511   5.000  0.4062 -0.5687 -1.5814
12058SOL    HW238329   7.953   6.516   4.952  0.9383  1.3531  0.0426
12059SOL     OW38330   4.535   3.291   9.584 -0.0492  0.2243  0.3763
12059SOL    HW138331   4.464   3.247   9.632 -0.2084  1.1117  0.9804
12059SOL    HW238332   4.490   3.337   9.513  0.0755 -0.2564 -0.0212
12060SOL     OW38333   6.249   8.097   1.422  0.0942 -0.1735  0.3969
12060SOL    HW138334   6.224   8.187   1.441  1.8892  0.2201  1.1325
12060SOL    HW238335   6.211   8.079   1.336 -1.5966  0.7250  0.9043
12061SOL     OW38336   7.220   3.381   7.914 -0.2851  0.1718  0.4692
12061SOL    HW138337   7.141   3.417   7.955 -0.7716  0.8077 -0.9869
12061SOL    HW238338   7.217   3.288   7.935 -1.8605  0.0392 -0.2082
12062SOL     OW38339   7.576   2.013   6.472  0.8306 -0.6107 -0.1801
12062SOL    HW138340   7.614   2.041   6.555  1.1812  0.3660 -0.6477
12062SOL    HW238341   7.483   2.033   6.480  0.7363 -1.2218  0.2575
12063SOL     OW38342   9.164   0.003   1.756 -0.2243 -0.4262  0.5205
12063SOL    HW138343   9.100   0.068   1.785 -0.4808 -1.2492  1.9439
12063SOL    HW238344   9.121  -0.043   1.684 -1.2323 -0.9101  1.3962
12064SOL     OW38345   3.970   1.519   5.815  0.4087  0.1859 -0.0325
12064SOL    HW138346   3.929   1.465   5.882  0.7728 -0.7522 -0.5543
12064SOL    HW238347   3.996   1.458   5.746  1.3718  0.9351 -0.3687
12065SOL     OW38348   7.025   8.995   5.293  0.3744  0.4620  0.0196
12065SOL    HW138349   7.067   9.071   5.253  0.8816 -0.4345 -1.2030
12065SOL    HW238350   6.932   9.017   5.293  0.6103  1.5073  0.6477
12066SOL     OW38351   9.390   7.389   6.833  0.4628 -0.8052 -0.1697
12066SOL    HW138352   9.375   7.454   6.901 -0.0282 -0.0777 -0.9554
12066SOL    HW238353   9.411   7.440   6.754  0.0987 -1.5939 -0.7940
12067SOL     OW38354   0.548   8.314   9.574 -0.6612 -0.3059  0.1862
12067SOL    HW138355   0.555   8.312   9.670 -1.3516 -1.5493  0.2340
12067SOL    HW238356   0.453   8.319   9.557 -0.5810 -0.7549 -0.4255
12068SOL     OW38357   2.386   8.231   3.743  0.1738 -0.4333 -0.3802
12068SOL    HW138358   2.347   8.146   3.722  0.2868 -0.4540 -0.5158
12068SOL    HW238359   2.415   8.265   3.658 -0.4940  0.0541 -0.4228
12069SOL     OW38360   0.643   6.085   1.201  0.0681 -0.2578  0.5141
12069SOL    HW138361   0.605   6.150   1.260  2.4096  1.9920 -0.2887
12069SOL    HW238362   0.594   6.096   1.119  0.4286  0.5389  0.3909
12070SOL     OW38363   3.164   6.797   0.033 -0.1334  1.0937  0.4822
12070SOL    HW138364   3.147   6.774  -0.058  1.6732  0.4020  0.2763
12070SOL    HW238365   3.159   6.892   0.036 -0.4689  1.1040 -0.2684
12071SOL     OW38366   0.926   5.286   2.523  0.4946  0.2285  0.2359
12071SOL    HW138367   1.014   5.311   2.496  0.0696 -0.1474 -1.6296
12071SOL    HW238368   0.891   5.364   2.565  0.9356  1.1625 -1.0589
12072SOL     OW38369   4.532   6.908   4.418  0.3247  0.6520 -0.3198
12072SOL    HW138370   4.542   6.932   4.326 -0.8621  0.9506 -0.3836
12072SOL    HW238371   4.538   6.812   4.419  1.8860  0.7298 -0.4874
12073SOL     OW38372   7.105   5.968   1.991 -0.4044 -0.2677 -0.5363
12073SOL    HW138373   7.023   5.931   1.960 -0.3361 -0.9603  0.0778
12073SOL    HW238374   7.140   5.902   2.051  0.7727 -0.1398 -1.0555
12074SOL     OW38375   0.743   3.424   1.699 -0.7570 -0.2246 -0.0018
12074SOL    HW138376   0.708   3.423   1.789  0.9350  0.9318  0.7363
12074SOL    HW238377   0.771   3.334   1.683 -2.8528 -0.8963 -0.1563
12075SOL     OW38378   3.249   5.131   2.153 -0.0576  0.0139  0.1115
12075SOL    HW138379   3.158   5.116   2.130  0.2624  1.2068 -2.2849
12075SOL    HW238380   3.254   5.114   2.247 -2.6613 -0.3222  0.2481
12076SOL     OW38381   3.630   6.233   2.532  0.2760 -0.2765 -0.2531
12076SOL    HW138382   3.702   6.227   2.596  0.9519 -0.5931 -1.0200
12076SOL    HW238383   3.666   6.289   2.463 -1.4500  2.5170  0.9282
12077SOL     OW38384   1.755   9.191   6.433 -0.1428  0.1744  0.0832
12077SOL    HW138385   1.683   9.132   6.458 -0.8512  1.3392  0.9278
12077SOL    HW238386   1.833   9.153   6.473 -0.7122  0.1722  1.2321
12078SOL     OW38387   1.621   1.291   9.367  0.6205  0.4693 -0.4771
12078SOL    HW138388   1.600   1.221   9.429  0.5837 -1.0876 -2.1456
12078SOL    HW238389   1.536   1.325   9.340  0.6514  1.6259  0.7817
12079SOL     OW38390   5.050   4.796   7.276 -0.2261 -0.3828 -0.2917
12079SOL    HW138391   4.995   4.722   7.250 -1.0354  0.8913 -2.5007
12079SOL    HW238392   5.003   4.837   7.349  0.0153 -1.7301  0.6638
12080SOL     OW38393   3.675   6.419   4.706  0.3494  0.1531  0.0201
12080SOL    HW138394   3.677   6.334   4.661 -1.0931  0.8593 -1.4900
12080SOL    HW238395   3.728   6.406   4.784  1.4004 -1.7008 -0.9288
12081SOL     OW38396   7.692   8.468   8.003 -0.0550  0.4986 -0.2178
12081SOL    HW138397   7.688   8.389   8.057  2.2672  1.4381  1.5244
12081SOL    HW238398   7.774   8.459   7.953 -1.4265  0.3323 -2.5561
12082SOL     OW38399   9.174   5.040   0.639  0.1245 -0.2116 -0.0451
12082SOL    HW138400   9.089   5.060   0.598 -0.4271  0.5709  1.4137
12082SOL    HW238401   9.238   5.084   0.583 -0.6730  1.4849  0.3159
12083SOL     OW38402   1.187   6.497   9.136 -0.5346  0.2851  0.1358
12083SOL    HW138403   1.166   6.446   9.058 -0.3020  0.6262 -0.1527
12083SOL    HW238404   1.269   6.461   9.168 -0.0435  0.8895 -0.4310
12084SOL     OW38405   8.214   2.878   4.008  0.1898 -0.7601  0.3344
12084SOL    HW138406   8.147   2.821   3.971  0.1104 -0.8580  0.6258
12084SOL    HW238407   8.210   2.958   3.955  1.0775 -1.4462 -0.8143
12085SOL     OW38408   1.801   5.986   6.303  0.0946 -0.5364  0.2773
12085SOL    HW138409   1.807   5.895   6.275  0.2271 -0.6854  0.7813
12085SOL    HW238410   1.736   5.985   6.374 -0.7483 -0.0529 -0.4666
12086SOL     OW38411   5.320   4.232   4.856  0.1273  0.1521 -0.6098
12086SOL    HW138412   5.368   4.289   4.797  0.2710 -0.1056 -0.7449
12086SOL    HW238413   5.386   4.199   4.917  0.0281  0.2047 -0.4720
12087SOL     OW38414   4.587   5.938   6.847  0.2171  0.4845  0.3057
12087SOL    HW138415   4.599   5.948   6.941 -1.2321 -1.8164  0.8318
12087SOL    HW238416   4.493   5.921   6.837  0.6819 -1.5253 -1.2802
12088SOL     OW38417   3.248   2.789   7.886 -0.1137 -0.0040 -0.2533
12088SOL    HW138418   3.176   2.852   7.893 -1.4195 -1.4023 -0.6326
12088SOL    HW238419   3.227   2.721   7.950  1.3116 -0.0551  0.2042
12089SOL     OW38420   6.709   9.380   4.617 -0.0633  0.3460 -0.3735
12089SOL    HW138421   6.765   9.329   4.675 -2.4071 -2.8103 -0.6327
12089SOL    HW238422   6.680   9.454   4.671 -0.8314 -1.5703  2.0304
12090SOL     OW38423   9.104   5.922   0.272 -0.5168  0.0478 -0.2153
12090SOL    HW138424   9.089   5.854   0.337 -0.3478  1.3273  1.2357
12090SOL    HW238425   9.200   5.924   0.262 -0.6386 -1.2994 -1.8187
12091SOL     OW38426   0.808   2.753   9.528 -0.0116 -0.0024  0.2298
12091SOL    HW138427   0.743   2.694   9.489  2.0785 -1.6737 -0.9419
12091SOL    HW238428   0.832   2.813   9.458  1.0431 -0.6188  0.0376
12092SOL     OW38429   2.988   3.087   1.027 -0.2608 -0.2432  0.2426
12092SOL    HW138430   3.011   3.003   0.985  0.9575 -0.2363  0.8504
12092SOL    HW238431   2.892   3.088   1.028 -0.2940 -1.3878 -0.2596
12093SOL     OW38432   5.725   6.060   1.368 -0.1463 -0.0299 -0.0175
12093SOL    HW138433   5.633   6.052   1.341 -0.1495  1.5950 -0.5878
12093SOL    HW238434   5.740   6.154   1.376  1.1389 -0.3071  1.3199
12094SOL     OW38435   8.328   1.764   1.792 -0.2125  0.3754 -0.5332
12094SOL    HW138436   8.315   1.855   1.821 -1.0043  0.1332 -0.0953
12094SOL    HW238437   8.403   1.769   1.733 -0.6036  1.4087 -0.9727
12095SOL     OW38438   9.185   8.030   3.240  0.6229 -0.1358 -0.0894
12095SOL    HW138439   9.239   8.072   3.172  1.7468 -0.5024  0.5489
12095SOL    HW238440   9.247   8.008   3.309 -0.5297  0.4785  1.1953
12096SOL     OW38441   6.062   1.347   8.247  0.4065  0.3942  0.1303
12096SOL    HW138442   6.111   1.356   8.329  2.7935  0.3590 -1.2285
12096SOL    HW238443   6.003   1.423   8.246 -1.8812 -1.0919  3.1783
12097SOL     OW38444   7.341   3.903   1.187  0.4318  0.1222  0.3815
12097SOL    HW138445   7.377   3.990   1.198  0.4265  0.0020  1.3804
12097SOL    HW238446   7.414   3.850   1.156  0.2497  0.6323 -1.0154
12098SOL     OW38447   6.696   4.098   4.398  0.5475 -0.3846 -0.6089
12098SOL    HW138448   6.778   4.063   4.433 -1.7065 -3.2720  2.3632
12098SOL    HW238449   6.672   4.037   4.328  0.0020 -0.7896 -0.0863
12099SOL     OW38450   8.108   8.343   0.305  0.1828 -0.2645  1.1224
12099SOL    HW138451   8.167   8.418   0.298  0.2526 -0.1034  2.8913
12099SOL    HW238452   8.143   8.279   0.243  0.6271  0.8430  0.2139
12100SOL     OW38453   8.972   9.371   8.740 -0.7906 -0.5899 -0.0598
12100SOL    HW138454   9.056   9.337   8.771 -0.9563 -1.9442 -0.9894
12100SOL    HW238455   8.937   9.420   8.814  1.0130  0.4041  0.1972
12101SOL     OW38456   9.362   4.337   8.304 -0.3437  0.6389 -0.6225
12101SOL    HW138457   9.377   4.321   8.210 -2.5198 -2.0850 -0.6466
12101SOL    HW238458   9.269   4.362   8.309 -0.3033  0.5756  0.8176
12102SOL     OW38459   2.811   7.882   1.986 -0.2356 -0.0483  0.4597
12102SOL    HW138460   2.880   7.863   1.923 -0.9220  0.3648 -0.4416
12102SOL    HW238461   2.770   7.797   2.003  0.5290 -0.3094  1.0647
12103SOL     OW38462   8.823   5.690   1.397 -0.0816 -0.4657  0.6226
12103SOL    HW138463   8.902   5.644   1.424 -0.8447 -2.3497 -0.1177
12103SOL    HW238464   8.764   5.682   1.472  0.5897  1.4340  1.3898
12104SOL     OW38465   7.436   1.107   3.506  0.1970 -0.5298  0.2072
12104SOL    HW138466   7.395   1.154   3.433 -1.0577  0.3324  1.4241
12104SOL    HW238467   7.529   1.102   3.482 -0.4403 -2.0364 -2.3598
12105SOL     OW38468   5.597   8.553   5.285  0.0242  0.1605 -0.0431
12105SOL    HW138469   5.657   8.549   5.359 -0.3556 -1.6964  0.2281
12105SOL    HW238470   5.511   8.567   5.325  0.0297  0.8384 -0.2674
12106SOL     OW38471   3.815   9.382   7.523  0.5298  0.0657  0.6844
12106SOL    HW138472   3.820   9.379   7.428  0.2378  0.1337  0.6654
12106SOL    HW238473   3.829   9.291   7.551 -1.1277 -0.2890  0.4852
12107SOL     OW38474   1.281   6.071   4.292  0.1352 -0.2980  0.2363
12107SOL    HW138475   1.255   6.025   4.212  0.7697  2.2475 -1.5529
12107SOL    HW238476   1.230   6.152   4.290  2.4327  1.2360  0.7342
12108SOL     OW38477   6.987   0.353   5.909 -0.0763  0.4878 -0.1973
12108SOL    HW138478   7.021   0.389   5.827 -0.1463 -0.9896 -0.9010
12108SOL    HW238479   7.066   0.339   5.963  0.2560 -0.8665 -0.9883
12109SOL     OW38480   8.759   1.548   7.946  0.2493  0.1889 -0.2950
12109SOL    HW138481   8.719   1.485   7.886 -0.5718  0.7402 -0.3521
12109SOL    HW238482   8.719   1.529   8.031  0.9167 -0.1632 -0.0588
12110SOL     OW38483   3.261   0.587   6.696 -0.0582  0.3180  0.5832
12110SOL    HW138484   3.298   0.623   6.777 -0.8822  0.9593  0.6976
12110SOL    HW238485   3.284   0.651   6.629 -0.8946  0.7041  0.6491
12111SOL     OW38486   6.045   0.919   1.369  0.1184  0.4712  0.0828
12111SOL    HW138487   6.090   0.877   1.296 -0.7399  0.2434 -0.3396
12111SOL    HW238488   5.975   0.858   1.391  0.2227  0.6567  0.9393
12112SOL     OW38489   0.563   7.026   0.777  0.2331  0.0141 -0.3204
12112SOL    HW138490   0.492   7.090   0.776 -1.5510 -1.7894  1.3627
12112SOL    HW238491   0.521   6.943   0.756  2.0446 -0.9953 -0.1783
12113SOL     OW38492   3.748   3.754   5.604  0.7113  0.0665 -0.3290
12113SOL    HW138493   3.728   3.846   5.591  0.5817 -0.0087 -0.6796
12113SOL    HW238494   3.696   3.709   5.536  0.3865 -0.2995  0.1570
12114SOL     OW38495   0.159   1.013   8.851 -0.1051  0.5408 -0.3610
12114SOL    HW138496   0.213   0.954   8.904  0.4194  1.3177 -0.0200
12114SOL    HW238497   0.114   0.955   8.790 -0.1287 -0.2864  0.4286
12115SOL     OW38498   2.420   9.226   4.401 -0.5482 -0.0674  0.7199
12115SOL    HW138499   2.510   9.257   4.390 -0.6934  0.8961  1.9501
12115SOL    HW238500   2.411   9.213   4.496 -0.8601 -2.8827  0.3843
12116SOL     OW38501   7.816   5.218   3.204 -0.0156  0.2557 -0.5597
12116SOL    HW138502   7.804   5.185   3.293  0.7320  1.5574  0.0504
12116SOL    HW238503   7.806   5.141   3.148  0.8604 -0.8486  0.7412
12117SOL     OW38504   8.926   7.458   1.968  0.7185  0.1114 -0.3433
12117SOL    HW138505   8.858   7.420   2.023  1.5858 -0.0909  0.6040
12117SOL    HW238506   8.929   7.401   1.891  0.8435 -0.7461  0.2906
12118SOL     OW38507   2.877   7.286   0.196 -0.5854  0.1036  0.1147
12118SOL    HW138508   2.862   7.245   0.110 -0.3170  0.2451  0.0001
12118SOL    HW238509   2.839   7.373   0.187  0.7098  0.6326 -0.3299
12119SOL     OW38510   8.051   2.500   7.774 -0.2773  0.5983  0.4685
12119SOL    HW138511   8.093   2.495   7.860  1.0744  2.4144 -0.0207
12119SOL    HW238512   7.963   2.533   7.792 -0.3302  0.0565  1.2325
12120SOL     OW38513   2.050   1.642   5.967 -0.4358  0.2628  0.1119
12120SOL    HW138514   2.045   1.547   5.977 -0.1793  0.3574  1.2989
12120SOL    HW238515   2.031   1.676   6.055  0.5515  1.2591 -0.0446
12121SOL     OW38516   7.298   6.806   3.338  0.3403  0.2684  0.1237
12121SOL    HW138517   7.381   6.782   3.298  0.4567 -0.4123  0.7470
12121SOL    HW238518   7.258   6.868   3.277  2.2186  2.2232  0.7618
12122SOL     OW38519   2.851   0.304   5.103  0.1067 -0.5077 -0.1918
12122SOL    HW138520   2.804   0.252   5.037  0.6448 -1.7090  0.3514
12122SOL    HW238521   2.878   0.240   5.169  0.2662  0.5616  0.8019
12123SOL     OW38522   2.367   9.358   5.788 -0.1515  0.3561  0.9002
12123SOL    HW138523   2.396   9.440   5.827  3.6570 -0.6277  0.5731
12123SOL    HW238524   2.387   9.292   5.855  0.6525 -0.6811 -0.3091
12124SOL     OW38525   4.029   2.281   0.305  0.1118 -0.0824  0.2925
12124SOL    HW138526   4.105   2.340   0.312  0.4990 -0.5723  0.2614
12124SOL    HW238527   4.034   2.246   0.216  0.3905 -0.8364  0.5945
12125SOL     OW38528   0.793   6.347   1.145  0.0420 -0.2648 -0.5461
12125SOL    HW138529   0.837   6.264   1.161 -0.5479 -1.1781 -3.0656
12125SOL    HW238530   0.862   6.403   1.108  0.1436 -0.0692 -0.0647
12126SOL     OW38531   7.954   9.315   9.291 -0.2847  0.1788  0.2527
12126SOL    HW138532   8.016   9.328   9.219  0.1824  1.0389  0.7906
12126SOL    HW238533   7.898   9.243   9.262 -0.7599  1.1564 -1.4236
12127SOL     OW38534   6.792   7.835   2.570  0.2565 -0.1565 -0.4472
12127SOL    HW138535   6.778   7.807   2.480 -0.1355  0.0529 -0.4538
12127SOL    HW238536   6.707   7.821   2.613  0.8114 -1.5871  0.2567
12128SOL     OW38537   5.167   1.292   3.251 -0.3111 -0.3208  0.1527
12128SOL    HW138538   5.099   1.297   3.318  0.2002  1.6010  0.5835
12128SOL    HW238539   5.123   1.319   3.170 -0.6237 -1.4643 -0.0866
12129SOL     OW38540   5.720   4.267   4.202  0.2432  0.6456 -0.3000
12129SOL    HW138541   5.747   4.333   4.138 -0.8601  2.0596  0.6064
12129SOL    HW238542   5.625   4.276   4.207  0.2425  0.1854  1.0959
12130SOL     OW38543   7.414   7.755   3.682 -0.4186 -0.7006  0.3186
12130SOL    HW138544   7.398   7.677   3.735  1.5061 -2.6017 -1.6989
12130SOL    HW238545   7.462   7.723   3.605  1.3231  2.6205 -0.1545
12131SOL     OW38546   0.805   6.516   5.073  0.0873 -0.1040  0.1093
12131SOL    HW138547   0.810   6.562   4.989  1.6072  0.0634  0.2713
12131SOL    HW238548   0.768   6.430   5.050  1.3768 -0.4250 -0.9052
12132SOL     OW38549   7.497   8.057   0.652 -0.1786 -0.5106  0.8245
12132SOL    HW138550   7.520   8.112   0.578  0.9488 -1.9296  0.0755
12132SOL    HW238551   7.524   7.969   0.626 -0.5988 -1.1928  2.5593
12133SOL     OW38552   4.326   2.003   8.494 -0.5626 -0.0238  0.0366
12133SOL    HW138553   4.284   2.058   8.559 -0.7314  1.7051 -1.4703
12133SOL    HW238554   4.341   1.920   8.539 -1.9492  0.6367  1.8153
12134SOL     OW38555   5.132   3.701   9.001 -0.2367 -0.2491  0.4522
12134SOL    HW138556   5.158   3.722   9.090  2.0012 -0.6354 -0.0524
12134SOL    HW238557   5.049   3.748   8.988  1.4960  3.3565  1.3188
12135SOL     OW38558   4.028   3.965   3.525  0.1142 -0.0119  0.4818
12135SOL    HW138559   3.953   3.942   3.581 -1.9504  2.8153 -0.8983
12135SOL    HW238560   3.991   3.970   3.437  1.6714  2.3287 -0.1203
12136SOL     OW38561   0.596   6.908   8.867  0.3589 -0.0112 -0.4420
12136SOL    HW138562   0.566   6.973   8.931  1.0002  0.0821 -0.2267
12136SOL    HW238563   0.692   6.910   8.874  0.4499  0.0916 -1.4989
12137SOL     OW38564   3.122   0.194   0.282  0.2662  0.0627 -0.3503
12137SOL    HW138565   3.174   0.220   0.206  0.0519  1.0548 -0.1748
12137SOL    HW238566   3.059   0.265   0.293 -2.3747 -1.9219 -1.6388
12138SOL     OW38567   7.338   5.851   8.816  0.1984  0.4393 -0.1268
12138SOL    HW138568   7.280   5.782   8.848 -1.4749  0.6201 -2.5145
12138SOL    HW238569   7.410   5.804   8.774 -1.0179  0.0276 -1.8969
12139SOL     OW38570   6.523   4.061   9.309 -0.4891  0.0003 -0.0666
12139SOL    HW138571   6.501   4.101   9.393  1.4156 -1.2002  1.0816
12139SOL    HW238572   6.584   4.122   9.268  0.3966 -0.4591  0.5199
12140SOL     OW38573   8.253   5.482   9.376  0.0194 -0.3800 -0.0662
12140SOL    HW138574   8.262   5.577   9.366  0.9385 -0.5349 -0.8650
12140SOL    HW238575   8.325   5.457   9.433  1.5098 -0.9251 -2.0774
12141SOL     OW38576   4.037   0.978   2.893  0.1443  0.0232 -0.2350
12141SOL    HW138577   4.019   1.034   2.969 -0.2461 -0.2754 -0.1050
12141SOL    HW238578   4.072   0.898   2.931 -0.8188 -0.4443 -0.3086
12142SOL     OW38579   1.037   8.799   8.235  0.5585 -0.5576  0.1548
12142SOL    HW138580   1.027   8.818   8.329  2.1493  0.3090  0.1843
12142SOL    HW238581   0.969   8.735   8.216 -0.5797  0.1604  1.6349
12143SOL     OW38582   8.108   7.308   9.609 -0.0262 -0.0104 -0.1174
12143SOL    HW138583   8.164   7.343   9.678 -0.3277 -0.0129  0.1326
12143SOL    HW238584   8.082   7.221   9.640 -2.2669  0.9800  1.0198
12144SOL     OW38585   0.764   5.868   6.041  0.1480 -0.0388 -0.2358
12144SOL    HW138586   0.704   5.942   6.054 -0.0509  0.0228 -1.4231
12144SOL    HW238587   0.707   5.792   6.038  0.2303 -0.0972 -0.3026
12145SOL     OW38588   9.086   5.741   4.586  0.1366 -0.0655 -0.1806
12145SOL    HW138589   8.993   5.721   4.597 -0.5803  1.0720 -3.1404
12145SOL    HW238590   9.128   5.655   4.587 -1.2065 -0.7726 -0.5478
12146SOL     OW38591   2.928   2.371   8.806 -0.1014  0.4250 -0.4111
12146SOL    HW138592   2.949   2.391   8.898  0.7287  1.2205 -0.7578
12146SOL    HW238593   3.009   2.333   8.771 -0.0760  1.0844 -1.0818
12147SOL     OW38594   6.713   1.130   2.529  0.4250  0.0657  0.2734
12147SOL    HW138595   6.735   1.147   2.437 -1.3681  3.6845  0.3396
12147SOL    HW238596   6.618   1.120   2.530  0.5737 -1.7038  1.5889
12148SOL     OW38597   1.229   2.334   1.453  0.1801  0.1626  0.1435
12148SOL    HW138598   1.203   2.350   1.362  0.4288  0.9105  0.1992
12148SOL    HW238599   1.190   2.407   1.502  0.9621  0.3599  0.4775
12149SOL     OW38600   3.902   4.029   2.918  0.0753  0.3136  0.4305
12149SOL    HW138601   3.902   4.059   2.827 -2.3149  0.5476  0.4322
12149SOL    HW238602   3.971   4.080   2.960  1.6100 -0.2000 -1.3485
12150SOL     OW38603   7.757   7.408   3.418  0.1290 -0.0549  0.4881
12150SOL    HW138604   7.781   7.363   3.499 -1.0797  1.6044  1.8136
12150SOL    HW238605   7.678   7.457   3.439 -0.4620  0.1243 -1.8221
12151SOL     OW38606   6.357   3.251   8.189  0.3040  0.2719  0.2294
12151SOL    HW138607   6.407   3.331   8.168  1.0595 -0.2932 -0.1887
12151SOL    HW238608   6.416   3.180   8.164 -0.2590 -0.4201  0.8611
12152SOL     OW38609   5.292   0.637   6.567  0.3865 -0.4188  0.0694
12152SOL    HW138610   5.351   0.634   6.642  1.0205  1.9403 -0.2440
12152SOL    HW238611   5.239   0.716   6.581 -0.5492 -0.7720 -1.2062
12153SOL     OW38612   3.217   7.868   7.140 -0.3817  0.8481  0.1691
12153SOL    HW138613   3.162   7.922   7.083 -1.4050  0.8256  1.1045
12153SOL    HW238614   3.180   7.880   7.228  1.1826  0.9116  0.8449
12154SOL     OW38615   4.337   1.042   6.443 -0.4345  0.9203 -0.2664
12154SOL    HW138616   4.313   1.133   6.454 -1.0798  0.9530 -1.7344
12154SOL    HW238617   4.316   1.022   6.352 -1.0446 -0.9084  0.2321
12155SOL     OW38618   4.861   9.363   7.274  0.5116  0.3232 -0.5800
12155SOL    HW138619   4.779   9.392   7.315  1.8360  0.7152  2.0268
12155SOL    HW238620   4.882   9.431   7.210 -1.1548  0.2334 -1.2536
12156SOL     OW38621   0.293   5.803   4.444  0.2336 -0.2971  0.3215
12156SOL    HW138622   0.263   5.796   4.354  0.1576  1.0178  0.2312
12156SOL    HW238623   0.317   5.895   4.455  1.0930 -0.6223  1.3770
12157SOL     OW38624   4.508   3.489   3.178  0.5084 -0.2783 -0.4929
12157SOL    HW138625   4.592   3.535   3.176  1.4303 -1.8474  0.1138
12157SOL    HW238626   4.493   3.472   3.271 -0.3972 -0.1843 -0.6162
12158SOL     OW38627   6.333   5.739   5.520  0.5790 -0.2222  0.8583
12158SOL    HW138628   6.413   5.692   5.496  0.5272 -0.1891  0.6187
12158SOL    HW238629   6.319   5.718   5.612  1.3517  0.4598  1.1526
12159SOL     OW38630   2.587   3.664   7.194  0.4002 -0.3417  0.3384
12159SOL    HW138631   2.534   3.600   7.147  0.6534 -0.0492 -0.3570
12159SOL    HW238632   2.548   3.749   7.172  0.7104 -0.1784  0.4066
12160SOL     OW38633   3.175   4.639   1.527 -0.3124  0.2524 -0.3650
12160SOL    HW138634   3.100   4.626   1.470 -0.9503 -1.2425  0.7537
12160SOL    HW238635   3.190   4.733   1.526 -0.8413  0.3550 -2.2752
12161SOL     OW38636   0.238   1.317   5.489 -0.2130 -0.6763 -0.2534
12161SOL    HW138637   0.259   1.325   5.396 -0.5745 -0.2364 -0.3040
12161SOL    HW238638   0.300   1.252   5.522  2.2338  1.5504 -0.0784
12162SOL     OW38639   8.104   8.904   9.178  0.6108 -0.2393 -0.2466
12162SOL    HW138640   8.074   8.813   9.181  0.5481 -0.1861  1.2455
12162SOL    HW238641   8.181   8.906   9.234  1.4069  0.3671 -1.3221
12163SOL     OW38642   4.643   8.843   2.862  0.1194  0.1132 -0.2404
12163SOL    HW138643   4.605   8.859   2.949 -0.7831  0.8077 -0.7394
12163SOL    HW238644   4.612   8.917   2.809 -0.2130 -0.8498 -1.4179
12164SOL     OW38645   2.173   2.030   0.343 -0.6173  0.1668  0.5778
12164SOL    HW138646   2.191   2.061   0.255 -0.5426 -0.6383  0.3024
12164SOL    HW238647   2.209   2.097   0.400 -0.6364  0.6790 -0.0005
12165SOL     OW38648   5.274   8.174   0.011  0.1459 -0.2976  0.3496
12165SOL    HW138649   5.308   8.133   0.091  0.4382 -0.5853  0.0793
12165SOL    HW238650   5.254   8.264   0.037  1.9568  0.1492  0.3041
12166SOL     OW38651   0.666   3.703   0.160  0.5286  0.2807  0.6382
12166SOL    HW138652   0.578   3.666   0.175  0.2280  0.8404  0.2601
12166SOL    HW238653   0.725   3.632   0.184 -0.0264 -0.0925  0.9379
12167SOL     OW38654   1.728   0.042   4.090  0.2007  0.2085  0.5861
12167SOL    HW138655   1.642   0.043   4.047  0.8433 -0.1921 -0.7539
12167SOL    HW238656   1.708   0.040   4.184 -1.3301 -3.3532  0.3075
12168SOL     OW38657   2.099   6.468   6.642  0.2851  0.6614 -0.5639
12168SOL    HW138658   2.161   6.457   6.714  1.4813  0.6607 -1.5595
12168SOL    HW238659   2.025   6.515   6.681  1.1821  1.2245  0.5138
12169SOL     OW38660   1.041   4.505   3.427  0.1391 -0.3133 -0.0513
12169SOL    HW138661   1.112   4.486   3.366  0.4155 -1.2533  0.5305
12169SOL    HW238662   1.011   4.419   3.456 -1.3798  0.0632 -0.4374
12170SOL     OW38663   2.277   4.229   8.750  0.2162 -0.2005 -0.6055
12170SOL    HW138664   2.311   4.184   8.673  1.9792  0.6309 -0.3579
12170SOL    HW238665   2.229   4.161   8.799  1.7527 -1.5039 -0.8418
12171SOL     OW38666   6.378   3.153   2.689 -0.0436 -0.2727 -0.0472
12171SOL    HW138667   6.360   3.206   2.767 -1.6605 -0.1118 -0.5029
12171SOL    HW238668   6.330   3.072   2.704 -0.6215 -0.1197 -1.0118
12172SOL     OW38669   1.792   4.177   2.263 -0.0679  0.2585  0.0896
12172SOL    HW138670   1.863   4.235   2.237  0.4013 -0.8005 -1.1096
12172SOL    HW238671   1.718   4.204   2.209 -0.3228  0.7591  0.6762
12173SOL     OW38672   4.119   4.108   1.964  0.4010 -0.3711  0.1920
12173SOL    HW138673   4.103   4.020   1.999 -2.6180  0.0785  0.1811
12173SOL    HW238674   4.090   4.103   1.872  1.0138  0.4223 -0.0583
12174SOL     OW38675   4.381   9.573   0.403  0.0063  0.0713  0.4805
12174SOL    HW138676   4.291   9.564   0.370 -0.6184  1.1748  1.8054
12174SOL    HW238677   4.398   9.667   0.401  1.4384 -0.1750 -0.4449
12175SOL     OW38678   6.656   5.321   7.828  0.0592 -0.4291  0.0166
12175SOL    HW138679   6.610   5.239   7.812 -0.5651 -0.1072  0.1261
12175SOL    HW238680   6.749   5.300   7.814  0.0303 -1.4532  1.2757
12176SOL     OW38681   8.692   4.036   6.820 -1.5272 -0.0752 -0.0461
12176SOL    HW138682   8.692   3.951   6.864  0.3230  0.5524  1.2582
12176SOL    HW238683   8.687   4.100   6.891  2.9220  1.0168 -0.3983
12177SOL     OW38684   2.290   2.597   2.009 -0.2617  0.3465  0.3740
12177SOL    HW138685   2.332   2.680   2.032 -0.9653  0.4316  1.4702
12177SOL    HW238686   2.207   2.622   1.967 -0.7260  0.2236  1.1884
12178SOL     OW38687   4.433   8.834   5.166 -0.1077  0.7304  0.2155
12178SOL    HW138688   4.383   8.796   5.094  0.0243 -0.7214  0.8670
12178SOL    HW238689   4.521   8.845   5.131 -0.5049  2.0071 -0.4870
12179SOL     OW38690   8.763   3.739   8.160 -0.6489 -0.0669 -0.3275
12179SOL    HW138691   8.738   3.713   8.249 -0.4673 -0.1374 -0.2958
12179SOL    HW238692   8.846   3.693   8.144 -1.4335 -1.2519 -1.1145
12180SOL     OW38693   8.348   0.465   9.456  0.5396  0.2280  0.4921
12180SOL    HW138694   8.348   0.374   9.428 -0.2910 -0.2602  1.9532
12180SOL    HW238695   8.342   0.461   9.552  0.0403  1.8093  0.5620
12181SOL     OW38696   5.783   1.469   6.424  0.0590  0.4699  0.8620
12181SOL    HW138697   5.729   1.548   6.417 -0.5046  0.0241  0.0147
12181SOL    HW238698   5.753   1.413   6.352  0.5033 -0.4832  1.4022
12182SOL     OW38699   3.024   3.157   0.243  0.4129  0.2554 -0.2944
12182SOL    HW138700   3.043   3.210   0.321 -0.5925 -1.1442  0.9771
12182SOL    HW238701   3.032   3.067   0.274  0.6178 -0.3421 -2.0073
12183SOL     OW38702   6.808   2.865   1.718 -0.0921 -0.2071 -0.2098
12183SOL    HW138703   6.783   2.831   1.804  0.5924 -2.5876 -0.9024
12183SOL    HW238704   6.725   2.874   1.672 -0.2809 -1.0345 -0.0391
12184SOL     OW38705   0.147   7.301   1.336 -0.3412  0.0038 -0.0190
12184SOL    HW138706   0.134   7.313   1.430  0.0070 -1.1849  0.1995
12184SOL    HW238707   0.069   7.340   1.296  0.2358  1.9402  0.6459
12185SOL     OW38708   4.217   8.845   3.987 -0.0417  0.2277 -0.3431
12185SOL    HW138709   4.252   8.769   4.034  0.3428  0.3152 -0.4815
12185SOL    HW238710   4.265   8.919   4.024 -1.3916  0.5754  0.7702
12186SOL     OW38711   1.653   4.051   2.831 -0.0995  0.0963 -0.4754
12186SOL    HW138712   1.569   4.036   2.788  0.4491  0.5142 -1.7464
12186SOL    HW238713   1.637   4.029   2.923 -2.2491  2.3482 -0.1745
12187SOL     OW38714   8.376   6.301   9.402 -0.1968 -0.0295 -0.2106
12187SOL    HW138715   8.361   6.261   9.488 -0.3848  1.5283  0.5154
12187SOL    HW238716   8.430   6.237   9.355 -0.3762 -1.0654  0.9354
12188SOL     OW38717   7.295   4.273   0.974  0.2439 -0.1201 -0.4018
12188SOL    HW138718   7.292   4.367   0.956 -2.4982 -0.5184 -2.5833
12188SOL    HW238719   7.304   4.267   1.069  1.0456  2.2988 -0.2602
12189SOL     OW38720   5.763   7.600   8.003 -0.4044 -0.0505  0.1921
12189SOL    HW138721   5.824   7.548   7.951 -1.0369 -0.8250  0.1946
12189SOL    HW238722   5.805   7.685   8.012  1.5997 -1.1285  1.8758
12190SOL     OW38723   1.876   1.618   7.973 -0.1746 -0.1526 -0.4003
12190SOL    HW138724   1.815   1.650   7.907 -1.0468  2.2205  1.4035
12190SOL    HW238725   1.853   1.526   7.985 -3.5552  0.6244  0.2246
12191SOL     OW38726   3.471   6.052   2.427  0.1788  0.3128  0.0130
12191SOL    HW138727   3.434   6.006   2.503 -0.1953  2.3952  1.1584
12191SOL    HW238728   3.513   6.130   2.463  0.1936  1.2618 -1.8981
12192SOL     OW38729   5.925   7.926   5.390 -0.0234  0.0661  0.1552
12192SOL    HW138730   5.908   7.892   5.478  0.3233 -0.4678  0.0247
12192SOL    HW238731   5.967   8.010   5.404  1.2912 -0.6291  0.5329
12193SOL     OW38732   9.609   0.859   6.560 -0.2389 -0.5868  0.6466
12193SOL    HW138733   9.536   0.897   6.510  0.4438 -0.5275 -0.3362
12193SOL    HW238734   9.628   0.776   6.516  1.5305  0.2827 -0.3427
12194SOL     OW38735   2.381   2.525   6.876  0.1388 -0.4149 -0.1912
12194SOL    HW138736   2.334   2.542   6.794 -0.7799  1.3719  0.6449
12194SOL    HW238737   2.314   2.531   6.944  1.3506  1.2402  0.9559
12195SOL     OW38738   4.959   5.503   2.768 -0.1311  0.2185 -0.3820
12195SOL    HW138739   4.924   5.439   2.705 -2.1614  0.9763 -0.1201
12195SOL    HW238740   4.993   5.574   2.713  1.1126 -0.5562 -0.6485
12196SOL     OW38741   7.875   0.073   0.337 -0.4342  0.5229  0.2898
12196SOL    HW138742   7.803   0.120   0.294 -0.7516 -1.0707 -0.9807
12196SOL    HW238743   7.835   0.036   0.416 -1.6006 -1.8925 -1.3047
12197SOL     OW38744   2.565   5.168   3.281  0.0204 -0.4128 -0.2569
12197SOL    HW138745   2.507   5.157   3.206 -1.9535 -0.4829  1.2081
12197SOL    HW238746   2.578   5.079   3.314 -1.7364 -0.1436  1.3150
12198SOL     OW38747   1.521   6.562   6.715  0.4187 -0.0602 -0.6540
12198SOL    HW138748   1.453   6.501   6.686 -1.9535  1.3312  1.5813
12198SOL    HW238749   1.591   6.552   6.650 -0.9187 -3.2244 -1.8120
12199SOL     OW38750   6.024   4.275   0.978  0.3297  0.4076 -0.7587
12199SOL    HW138751   6.045   4.232   0.896  2.0997  0.8602 -0.5763
12199SOL    HW238752   6.096   4.335   0.994 -0.6157  1.2792  0.4842
12200SOL     OW38753   2.812   8.162   2.017 -0.6731 -0.0500 -0.6157
12200SOL    HW138754   2.834   8.070   2.000 -1.1504 -0.5571  1.2813
12200SOL    HW238755   2.721   8.159   2.047 -0.3806  0.9062  0.4212
12201SOL     OW38756   8.282   2.906   5.361 -0.3887 -0.2837 -0.0497
12201SOL    HW138757   8.334   2.826   5.350  0.5548  0.2563  0.3396
12201SOL    HW238758   8.326   2.970   5.305 -1.6129 -0.2415 -0.9806
12202SOL     OW38759   1.150   6.376   2.991 -0.3274 -0.1558  0.3753
12202SOL    HW138760   1.243   6.368   2.969 -0.5937 -0.9328 -0.5744
12202SOL    HW238761   1.128   6.467   2.972  0.5151  0.3761  1.8233
12203SOL     OW38762   5.665   9.294   5.351  0.3852 -0.0915  0.2377
12203SOL    HW138763   5.652   9.357   5.421 -0.5764 -0.9156  0.8276
12203SOL    HW238764   5.578   9.285   5.311  0.1051 -2.2282  1.2114
12204SOL     OW38765   6.181   3.657   4.090  0.4061  0.6726  0.3341
12204SOL    HW138766   6.125   3.609   4.028 -0.0804  0.2377  1.0960
12204SOL    HW238767   6.135   3.739   4.106 -0.4572 -0.0384  1.6061
12205SOL     OW38768   8.539   3.962   9.211 -0.3252  0.6896  0.1305
12205SOL    HW138769   8.608   4.023   9.238 -0.7571  0.9462  0.6736
12205SOL    HW238770   8.476   3.964   9.283 -1.1658  0.8696 -0.5947
12206SOL     OW38771   0.678   8.822   3.936  0.4934  0.1355 -0.2128
12206SOL    HW138772   0.610   8.789   3.877 -0.4543  1.3882  0.1318
12206SOL    HW238773   0.662   8.777   4.019 -1.9629  2.6159  0.8135
12207SOL     OW38774   2.107   0.441   8.728 -0.1901  0.1291 -0.2293
12207SOL    HW138775   2.086   0.490   8.649  1.3286 -0.5619 -1.1031
12207SOL    HW238776   2.193   0.402   8.710 -0.0777 -0.5195  1.5326
12208SOL     OW38777   7.395   8.319   1.257 -0.4151 -0.2512 -0.1473
12208SOL    HW138778   7.440   8.400   1.282 -0.6958 -0.5830  1.5788
12208SOL    HW238779   7.312   8.323   1.304 -0.6349 -1.3117 -0.4249
12209SOL     OW38780   4.233   2.755   6.590  0.8500 -0.2457 -0.5188
12209SOL    HW138781   4.141   2.757   6.616  0.8365 -1.3618 -0.4527
12209SOL    HW238782   4.237   2.691   6.519  1.5620 -0.1208 -0.5964
12210SOL     OW38783   2.104   5.502   1.723  0.1268 -0.5965 -0.7641
12210SOL    HW138784   2.140   5.563   1.788 -0.5335  0.0315 -0.9701
12210SOL    HW238785   2.079   5.425   1.773 -0.1702 -0.2077 -0.3016
12211SOL     OW38786   8.120   8.567   8.041  0.1415 -0.7435  0.1232
12211SOL    HW138787   8.138   8.606   7.955 -2.5582  1.1956  0.2803
12211SOL    HW238788   8.054   8.500   8.023  0.2294 -0.9520  0.5751
12212SOL     OW38789   7.781   8.590   9.206 -0.0566  0.3538 -0.2524
12212SOL    HW138790   7.828   8.578   9.124 -0.2961 -0.0919 -0.3272
12212SOL    HW238791   7.748   8.503   9.228  0.1065  0.4458  0.3796
12213SOL     OW38792   5.384   3.314   8.319  0.3328 -0.1949  0.3239
12213SOL    HW138793   5.355   3.338   8.231  0.5396  0.0089  0.3076
12213SOL    HW238794   5.443   3.385   8.344  1.7357 -1.1729 -0.1126
12214SOL     OW38795   7.053   1.869   8.734 -0.6100  0.5696 -0.4543
12214SOL    HW138796   7.033   1.853   8.826  1.8442 -0.5343 -0.0192
12214SOL    HW238797   7.127   1.929   8.735 -0.3014  0.2497 -1.6699
12215SOL     OW38798   1.028   8.277   6.146 -0.0312  0.4140 -0.0391
12215SOL    HW138799   0.970   8.348   6.173 -0.2513 -0.0528  0.7685
12215SOL    HW238800   1.063   8.242   6.229  1.6356  0.8740 -0.5193
12216SOL     OW38801   1.307   0.017   5.696  0.4476 -0.5552 -0.0016
12216SOL    HW138802   1.275   0.059   5.775 -1.1553 -0.6671 -0.5562
12216SOL    HW238803   1.313  -0.076   5.719  1.2719 -0.4126  0.3772
12217SOL     OW38804   5.210   2.299   3.238 -0.1377  0.5449  0.8006
12217SOL    HW138805   5.165   2.382   3.225  1.8841  1.5996  0.1403
12217SOL    HW238806   5.269   2.314   3.312  0.5585 -0.1434  0.4050
12218SOL     OW38807   8.348   7.073   5.904 -0.4509 -0.2881  0.1123
12218SOL    HW138808   8.280   7.139   5.893  1.1659  1.7323  1.3488
12218SOL    HW238809   8.354   7.060   5.999  0.1959 -1.1600 -0.0348
12219SOL     OW38810   0.733   1.203   3.159  0.6461 -0.1748 -0.0114
12219SOL    HW138811   0.643   1.190   3.128  0.9703  0.4807 -1.2948
12219SOL    HW238812   0.780   1.235   3.082  2.6533 -3.2088 -0.2175
12220SOL     OW38813   2.616   3.116   3.802 -0.1988 -0.0817  0.0573
12220SOL    HW138814   2.551   3.125   3.732  1.2295  1.4889 -1.1488
12220SOL    HW238815   2.699   3.143   3.761  1.7598 -4.0474  0.8239
12221SOL     OW38816   5.887   4.892   7.975  0.0500  0.3174 -0.2050
12221SOL    HW138817   5.810   4.935   7.938 -0.5692 -0.6484 -0.0971
12221SOL    HW238818   5.872   4.799   7.958 -0.5948 -0.2839  2.9428
12222SOL     OW38819   9.232   2.079   6.987 -0.0097  0.0604  0.1539
12222SOL    HW138820   9.172   2.083   7.061 -1.4347 -2.0789 -0.8057
12222SOL    HW238821   9.241   1.986   6.967  2.5861  0.3811 -0.6328
12223SOL     OW38822   0.498   5.724   2.762 -0.4196  0.4872 -0.0128
12223SOL    HW138823   0.516   5.646   2.709 -0.3705  0.6321 -0.2111
12223SOL    HW238824   0.550   5.712   2.841 -1.2374 -0.1891  0.4292
12224SOL     OW38825   1.251   0.137   7.029 -0.4126 -0.2470  0.0136
12224SOL    HW138826   1.204   0.220   7.044 -1.7438 -1.0026  0.1747
12224SOL    HW238827   1.270   0.137   6.935 -0.8701  0.0044 -0.0822
12225SOL     OW38828   2.770   1.879   5.470  0.3709 -0.3468 -0.4669
12225SOL    HW138829   2.861   1.890   5.499 -0.0860  0.8433  0.6172
12225SOL    HW238830   2.768   1.918   5.383  0.5169  1.3618  0.2561
12226SOL     OW38831   4.063   8.073   7.447 -0.3764 -0.0687 -0.1941
12226SOL    HW138832   3.993   8.097   7.386  1.0499  1.6458 -1.2724
12226SOL    HW238833   4.138   8.055   7.391  0.7929  0.8921  0.9961
12227SOL     OW38834   7.501   1.284   8.601 -0.1254  0.0126  0.3969
12227SOL    HW138835   7.413   1.251   8.617 -1.1786  1.3998 -1.9201
12227SOL    HW238836   7.505   1.367   8.648 -0.9319  1.0262 -1.2238
12228SOL     OW38837   0.768   6.791   9.288 -0.3207 -0.4953 -0.3561
12228SOL    HW138838   0.738   6.882   9.283 -3.1638 -1.3452 -1.0609
12228SOL    HW238839   0.847   6.794   9.341  0.5238  2.5487 -1.5720
12229SOL     OW38840   2.378   1.019   5.914 -0.2906  0.3142  1.0338
12229SOL    HW138841   2.391   0.935   5.869 -0.3854  1.5980 -1.5954
12229SOL    HW238842   2.283   1.022   5.930 -0.7853  1.0700 -1.5369
12230SOL     OW38843   2.387   3.536   8.747  0.5285  0.2638 -0.5935
12230SOL    HW138844   2.433   3.492   8.818  0.2381 -2.3627 -1.9317
12230SOL    HW238845   2.305   3.567   8.787 -0.4861 -2.7727 -0.1003
12231SOL     OW38846   5.782   4.799   0.930 -0.1799 -0.1410 -0.3701
12231SOL    HW138847   5.780   4.826   0.839  2.2080 -1.1739 -0.8147
12231SOL    HW238848   5.760   4.878   0.980  1.1140  1.1766 -1.7759
12232SOL     OW38849   9.296   5.473   0.984  0.3098 -0.4581 -0.1677
12232SOL    HW138850   9.318   5.407   1.049  0.7551  2.0542  2.4506
12232SOL    HW238851   9.380   5.512   0.960 -0.0507  0.0336 -0.6605
12233SOL     OW38852   8.520   5.448   5.903  0.1345 -0.0395  0.3623
12233SOL    HW138853   8.504   5.391   5.978 -0.4459  0.7729  0.8709
12233SOL    HW238854   8.550   5.389   5.833 -0.0085 -0.8915  1.0133
12234SOL     OW38855   3.590   8.788   0.204  0.5403 -0.0697  0.5133
12234SOL    HW138856   3.656   8.806   0.271  1.5200  0.5554 -0.5895
12234SOL    HW238857   3.632   8.811   0.121  0.0236 -2.5375 -0.5325
12235SOL     OW38858   6.295   3.894   7.843 -0.3936 -0.2831 -0.0491
12235SOL    HW138859   6.241   3.853   7.776 -1.3451  0.9248 -0.0649
12235SOL    HW238860   6.384   3.891   7.807 -0.6884 -0.8503 -0.7575
12236SOL     OW38861   2.929   0.610   1.273  0.0867 -0.1361  0.5797
12236SOL    HW138862   2.935   0.629   1.367  0.4762  1.8573  0.1886
12236SOL    HW238863   2.989   0.672   1.232  0.3718 -1.3768 -0.9688
12237SOL     OW38864   5.623   1.453   7.602  0.0774  0.2526 -0.3654
12237SOL    HW138865   5.535   1.487   7.616 -0.6911 -1.3139 -1.0224
12237SOL    HW238866   5.660   1.444   7.690 -0.4193  0.8991 -0.0833
12238SOL     OW38867   1.168   8.183   5.917 -0.0877 -0.2822 -0.1019
12238SOL    HW138868   1.227   8.114   5.948 -1.2118 -1.3079 -0.1573
12238SOL    HW238869   1.102   8.190   5.986 -0.9453 -0.4955 -0.8834
12239SOL     OW38870   2.299   3.432   6.742 -0.5394  0.1482 -0.0056
12239SOL    HW138871   2.257   3.509   6.780  1.4227  0.8293  0.8888
12239SOL    HW238872   2.267   3.429   6.652 -3.0131  0.1954  0.7870
12240SOL     OW38873   3.233   4.286   8.312 -0.1126 -0.0545 -0.6886
12240SOL    HW138874   3.188   4.289   8.228  0.1905  0.7753 -0.8328
12240SOL    HW238875   3.325   4.270   8.291 -0.0716 -0.0734 -0.5021
12241SOL     OW38876   4.624   1.121   3.274 -0.0490  0.1214 -0.6392
12241SOL    HW138877   4.627   1.192   3.339  1.7975 -0.6859  0.2131
12241SOL    HW238878   4.585   1.048   3.321  1.0254 -0.3761 -0.4872
12242SOL     OW38879   0.621   6.467   7.647 -0.0484  0.2763 -0.0736
12242SOL    HW138880   0.647   6.386   7.602  1.0320  0.0467  0.9241
12242SOL    HW238881   0.532   6.484   7.616  0.4207 -0.1971 -1.8308
12243SOL     OW38882   0.159   4.160   7.039 -0.5803 -0.9309 -0.3279
12243SOL    HW138883   0.232   4.151   6.977 -0.0872  1.0864 -0.1216
12243SOL    HW238884   0.103   4.227   7.001 -1.4970 -1.3061  0.3181
12244SOL     OW38885   5.204   0.061   7.648  0.7497 -0.2200 -0.2432
12244SOL    HW138886   5.170  -0.016   7.692 -0.2837  0.5497  0.3265
12244SOL    HW238887   5.239   0.027   7.565 -0.1163 -1.2352 -0.2149
12245SOL     OW38888   8.293   1.026   7.511  0.1639 -0.1816 -0.7983
12245SOL    HW138889   8.262   0.989   7.428  1.1017 -1.0640 -0.7745
12245SOL    HW238890   8.364   1.084   7.486  1.6635 -1.8128 -0.5195
12246SOL     OW38891   7.203   6.897   7.644  0.0148 -0.1610 -0.2670
12246SOL    HW138892   7.114   6.930   7.631  0.1031  0.2508  0.1894
12246SOL    HW238893   7.231   6.933   7.727  0.0177 -1.5868  0.3857
12247SOL     OW38894   7.532   1.543   8.710  0.7298 -0.2030  0.0890
12247SOL    HW138895   7.564   1.583   8.791  2.3156 -3.7613  1.4040
12247SOL    HW238896   7.447   1.584   8.696 -0.0321 -0.0195  4.0680
12248SOL     OW38897   2.106   8.857   1.537 -0.8971  0.0570 -0.4258
12248SOL    HW138898   2.053   8.926   1.578 -0.9291 -0.4401  0.4058
12248SOL    HW238899   2.092   8.868   1.443 -0.4824  1.5016 -0.3259
12249SOL     OW38900   8.226   4.088   5.688 -0.1814  0.4400  0.5856
12249SOL    HW138901   8.321   4.088   5.704  0.0503  0.1866 -0.7375
12249SOL    HW238902   8.205   3.996   5.672 -0.7762  0.4073  1.4956
12250SOL     OW38903   7.532   0.545   5.452  0.4780 -0.6991  0.2305
12250SOL    HW138904   7.465   0.586   5.506  1.0935 -0.5082  0.8752
12250SOL    HW238905   7.519   0.451   5.463 -0.2589 -0.6689 -0.3824
12251SOL     OW38906   1.528   9.480   3.295 -0.0730  0.4984 -0.3493
12251SOL    HW138907   1.478   9.554   3.262 -1.2227  0.1395  0.5140
12251SOL    HW238908   1.504   9.473   3.388  2.3436  0.9062  0.3921
12252SOL     OW38909   6.947   1.334   2.094 -0.2876 -0.5060  0.1826
12252SOL    HW138910   6.957   1.289   2.010 -0.0032 -1.7328  0.8627
12252SOL    HW238911   6.873   1.393   2.080  0.4870  0.1870 -1.2890
12253SOL     OW38912   7.492   0.475   1.273 -0.5029 -0.8782 -0.5383
12253SOL    HW138913   7.488   0.380   1.279  0.4465 -0.8632  0.8755
12253SOL    HW238914   7.517   0.493   1.182 -0.1402 -1.9951 -0.6706
12254SOL     OW38915   8.934   5.166   1.886 -0.0645 -0.0052 -0.8478
12254SOL    HW138916   9.019   5.135   1.917  0.3379  0.0578 -1.8715
12254SOL    HW238917   8.930   5.257   1.915 -0.9725 -0.7330  1.5943
12255SOL     OW38918   1.604   7.466   8.493  0.2148 -0.3080 -0.2023
12255SOL    HW138919   1.534   7.402   8.504 -0.5441  0.2620 -1.4708
12255SOL    HW238920   1.617   7.472   8.398  1.4923  0.1289 -0.0260
12256SOL     OW38921   6.224   6.588   8.649  0.3425 -0.0898 -0.3793
12256SOL    HW138922   6.314   6.593   8.616  0.4503 -1.4014 -0.3160
12256SOL    HW238923   6.194   6.679   8.648  1.9493  0.4973  0.4007
12257SOL     OW38924   7.954   3.757   6.518 -0.3099  0.1310 -0.4328
12257SOL    HW138925   7.959   3.784   6.427 -1.1789  0.9554 -0.2533
12257SOL    HW238926   7.949   3.662   6.515 -0.3091  0.1495 -1.2352
12258SOL     OW38927   3.856   7.381   2.584 -0.5399 -0.5095  0.4058
12258SOL    HW138928   3.879   7.362   2.675  2.0157  0.0801 -0.0527
12258SOL    HW238929   3.907   7.318   2.533 -0.1080  0.6791 -0.6889
12259SOL     OW38930   7.543   8.423   2.159 -0.3811 -0.3793  0.2205
12259SOL    HW138931   7.573   8.389   2.243  0.8286  0.3198  0.0901
12259SOL    HW238932   7.598   8.499   2.142 -0.8633 -0.2753 -1.0286
12260SOL     OW38933   4.455   7.676   4.680 -0.1863  0.2477  0.4861
12260SOL    HW138934   4.362   7.673   4.654  0.3568 -2.1895 -1.5634
12260SOL    HW238935   4.468   7.597   4.732  0.8138  0.3969  0.4769
12261SOL     OW38936   8.284   9.051   0.609  0.2277  0.3748 -0.2672
12261SOL    HW138937   8.377   9.071   0.609  0.5368 -0.9426 -0.5213
12261SOL    HW238938   8.271   8.995   0.532 -0.1978 -1.7686  1.2495
12262SOL     OW38939   9.351   1.972   5.503  0.5773 -0.2192 -0.0422
12262SOL    HW138940   9.339   1.911   5.576  0.9251 -1.4139 -0.9664
12262SOL    HW238941   9.264   1.977   5.461  0.3198  0.6400  0.5551
12263SOL     OW38942   1.521   3.377   7.431 -0.3280 -0.2329  0.3646
12263SOL    HW138943   1.430   3.346   7.425 -0.0802 -0.9830  0.3398
12263SOL    HW238944   1.549   3.351   7.518 -0.7229  1.6915  1.1178
12264SOL     OW38945   4.931   0.927   9.479 -0.4176 -0.2843 -0.1212
12264SOL    HW138946   4.982   0.983   9.420 -1.3199  0.5858 -0.1044
12264SOL    HW238947   4.864   0.985   9.515  0.1130 -0.7904  1.7901
12265SOL     OW38948   7.462   4.953   1.203 -0.0176  0.4146 -0.1112
12265SOL    HW138949   7.508   4.885   1.154 -1.3718 -2.1766  1.8995
12265SOL    HW238950   7.512   4.963   1.284 -1.1046  0.0036  0.6391
12266SOL     OW38951   7.386   8.643   7.023  0.1128  0.4573 -0.4911
12266SOL    HW138952   7.311   8.682   7.069  0.5994  0.0592  0.6827
12266SOL    HW238953   7.370   8.662   6.931 -2.4705 -1.3056 -0.5169
12267SOL     OW38954   6.289   4.264   6.018  0.2126  0.4592 -0.2877
12267SOL    HW138955   6.230   4.304   5.954 -0.2932 -0.2333 -0.2714
12267SOL    HW238956   6.241   4.269   6.101  1.1687  2.0288  0.2241
12268SOL     OW38957   6.072   4.257   7.395  0.5330  0.8203  0.6396
12268SOL    HW138958   5.988   4.300   7.379 -1.3165 -1.6696  2.6697
12268SOL    HW238959   6.079   4.192   7.324  2.3481  2.9258 -1.2689
12269SOL     OW38960   0.172   5.998   7.389 -0.5046 -0.4881  0.3585
12269SOL    HW138961   0.228   6.013   7.465  0.4617  2.5138 -0.7731
12269SOL    HW238962   0.085   6.026   7.418 -0.8974 -2.5139  1.2824
12270SOL     OW38963   5.849   7.211   8.667  0.6581  0.3045  0.4175
12270SOL    HW138964   5.836   7.249   8.754 -1.1941 -0.4790  0.5336
12270SOL    HW238965   5.903   7.275   8.621  0.2830  1.5381  1.6151
12271SOL     OW38966   0.964   5.731   6.487 -0.3935 -0.1069  0.3982
12271SOL    HW138967   0.938   5.649   6.529 -0.7173  0.6085  1.6398
12271SOL    HW238968   1.002   5.783   6.558  0.5168  0.5282 -0.5312
12272SOL     OW38969   3.679   5.732   2.455 -0.3852  0.0207  0.6810
12272SOL    HW138970   3.613   5.706   2.391  1.9972 -0.2232 -1.8474
12272SOL    HW238971   3.739   5.657   2.458 -0.3467  0.0562  3.2265
12273SOL     OW38972   5.796   0.601   4.878  0.0266 -0.1695 -0.1061
12273SOL    HW138973   5.868   0.542   4.901  0.8281  0.8883  0.1454
12273SOL    HW238974   5.757   0.562   4.800  2.1680  0.3032 -1.4965
12274SOL     OW38975   5.485   2.317   0.540  0.2844 -0.0684 -0.2734
12274SOL    HW138976   5.572   2.344   0.570  0.3804 -0.1291 -0.5011
12274SOL    HW238977   5.425   2.370   0.592  0.4397 -0.5430  0.4165
12275SOL     OW38978   3.615   9.234   9.335 -0.0046 -0.1978 -0.2961
12275SOL    HW138979   3.532   9.211   9.375 -0.8567  1.3078 -1.1209
12275SOL    HW238980   3.636   9.320   9.370  0.6236 -0.0694 -0.9595
12276SOL     OW38981   1.240   3.040   1.028 -0.3876  0.2260  0.2343
12276SOL    HW138982   1.217   3.133   1.026 -2.2987 -0.2015 -1.6432
12276SOL    HW238983   1.177   2.999   0.969  2.6868 -1.7648 -1.9367
12277SOL     OW38984   5.101   4.887   8.802  0.4107  0.3584 -0.4878
12277SOL    HW138985   5.070   4.797   8.808  0.6952  0.0046 -2.9201
12277SOL    HW238986   5.151   4.902   8.882  0.8207 -1.8453 -0.2908
12278SOL     OW38987   3.180   4.336   2.376 -0.2937 -0.5752  0.5732
12278SOL    HW138988   3.095   4.303   2.405 -0.4174 -0.6959  0.0753
12278SOL    HW238989   3.172   4.432   2.384  0.0335 -0.6326  1.9155
12279SOL     OW38990   8.139   8.807   7.505 -0.3764  0.8633 -0.1994
12279SOL    HW138991   8.055   8.831   7.466 -0.3501 -0.3717 -1.0644
12279SOL    HW238992   8.186   8.762   7.436  0.8125  1.0902  0.4298
12280SOL     OW38993   7.588   2.701   4.334  0.0637 -0.7590 -0.2675
12280SOL    HW138994   7.506   2.653   4.344 -0.5284  0.2874 -0.0504
12280SOL    HW238995   7.641   2.674   4.409 -0.4828 -0.6528  0.1606
12281SOL     OW38996   0.016   0.827   2.113 -0.6422  0.3718 -0.6098
12281SOL    HW138997   0.042   0.752   2.060 -0.0830  0.3324 -0.2893
12281SOL    HW238998  -0.008   0.789   2.198  2.6715  0.7778  0.6414
12282SOL     OW38999   9.281   1.179   5.569  0.1074  0.0453  0.1336
12282SOL    HW139000   9.196   1.154   5.605 -0.9838  0.2528 -2.1150
12282SOL    HW239001   9.335   1.099   5.576 -1.0247 -0.8000 -0.4925
12283SOL     OW39002   0.632   9.328   5.857 -0.7164 -0.0690 -0.2989
12283SOL    HW139003   0.697   9.286   5.801  1.4555  0.9866  1.3055
12283SOL    HW239004   0.668   9.415   5.875 -1.2774 -0.3673  2.7095
12284SOL     OW39005   4.743   5.126   6.813  0.2460 -0.0855 -0.2278
12284SOL    HW139006   4.690   5.083   6.880 -0.2026  1.0253  0.1450
12284SOL    HW239007   4.732   5.071   6.736 -1.3830  0.0663 -0.1391
12285SOL     OW39008   5.812   4.251   9.065  0.6946 -0.3405  0.4314
12285SOL    HW139009   5.764   4.215   9.140  2.3223 -1.8377  0.8116
12285SOL    HW239010   5.767   4.333   9.045 -0.7856 -0.7177  1.9976
12286SOL     OW39011   2.187   3.093   3.128 -0.0469  1.0164 -0.2762
12286SOL    HW139012   2.157   3.183   3.115  0.8102  1.1881 -1.2148
12286SOL    HW239013   2.224   3.092   3.216 -2.1942  0.9427  0.6909
12287SOL     OW39014   0.623   0.918   4.992 -0.3927 -0.0194  0.0513
12287SOL    HW139015   0.656   0.995   4.947 -1.2348  0.3778  0.0947
12287SOL    HW239016   0.591   0.951   5.076 -1.5843 -0.2488 -0.2907
12288SOL     OW39017   0.164   3.804   6.947 -0.5784 -0.0980  0.5576
12288SOL    HW139018   0.228   3.762   7.005 -1.6743 -0.5285  1.4834
12288SOL    HW239019   0.114   3.731   6.910 -0.6773  0.2482 -0.0137
12289SOL     OW39020   9.266   2.383   4.728  0.2896  0.0934  0.3910
12289SOL    HW139021   9.344   2.435   4.743  0.1903  0.2225  0.4649
12289SOL    HW239022   9.256   2.379   4.633 -1.1552  2.4023  0.3636
12290SOL     OW39023   8.034   1.707   6.426 -0.6415 -0.0497  0.4969
12290SOL    HW139024   8.051   1.632   6.484 -0.6458  0.7451  1.5624
12290SOL    HW239025   8.110   1.712   6.369 -0.5175 -0.6971  0.5974
12291SOL     OW39026   2.481   0.665   5.452  0.5637 -0.8962 -0.2645
12291SOL    HW139027   2.473   0.608   5.375 -0.1382  0.2129 -1.0527
12291SOL    HW239028   2.402   0.647   5.503 -0.3671  0.2994 -1.2053
12292SOL     OW39029   0.480   3.395   0.367 -0.2372  0.7555  0.5912
12292SOL    HW139030   0.572   3.370   0.378 -0.5896 -0.2990  1.2897
12292SOL    HW239031   0.432   3.312   0.370 -1.1116  1.1610 -1.0100
12293SOL     OW39032   4.976   1.516   5.673 -0.3800  0.2796 -0.6887
12293SOL    HW139033   4.917   1.585   5.703 -0.3906 -0.6870  1.7892
12293SOL    HW239034   4.936   1.482   5.593 -1.3757  1.8403 -0.8834
12294SOL     OW39035   6.088   6.313   7.716  0.1455  0.0559 -0.1338
12294SOL    HW139036   6.086   6.218   7.710  0.9011  0.0095  0.1237
12294SOL    HW239037   6.179   6.333   7.739 -0.2784  0.7635  1.0323
12295SOL     OW39038   7.084   1.328   6.346 -0.1027 -0.0762  0.6250
12295SOL    HW139039   7.157   1.268   6.331 -1.0326 -1.2669  0.7647
12295SOL    HW239040   7.007   1.282   6.313 -0.8547  1.0022  0.8277
12296SOL     OW39041   5.740   6.753   0.361  0.0267 -0.9664  0.4052
12296SOL    HW139042   5.648   6.769   0.342 -0.0138 -1.4995  0.1310
12296SOL    HW239043   5.782   6.839   0.349 -0.7241 -0.2501  2.4971
12297SOL     OW39044   8.752   3.788   6.985  0.0358 -0.3102 -0.2613
12297SOL    HW139045   8.658   3.780   6.969 -0.4138  0.4930  1.6692
12297SOL    HW239046   8.792   3.774   6.899 -1.9857  2.0266 -1.7519
12298SOL     OW39047   8.789   5.729   3.958 -0.0780  0.1676  0.5262
12298SOL    HW139048   8.859   5.745   3.895  0.5361  1.5017  1.4964
12298SOL    HW239049   8.736   5.809   3.956 -1.6499 -0.8267 -0.2136
12299SOL     OW39050   1.021   9.590   0.700  0.8965 -0.1193  0.4357
12299SOL    HW139051   1.093   9.536   0.668  1.9936  0.6717  1.4914
12299SOL    HW239052   0.979   9.623   0.621  1.2584 -1.1454 -0.2040
12300SOL     OW39053   2.713   0.100   2.262  0.6559 -0.3864  0.5370
12300SOL    HW139054   2.773   0.175   2.257  0.2177 -0.0426  0.3956
12300SOL    HW239055   2.660   0.106   2.183  0.0224 -0.3334  0.9609
12301SOL     OW39056   8.077   5.437   3.893 -0.6163 -0.5462  0.5287
12301SOL    HW139057   8.052   5.498   3.823  0.3996 -2.1099 -1.3056
12301SOL    HW239058   8.065   5.351   3.854  2.0436 -1.4609  1.5113
12302SOL     OW39059   7.513   3.434   5.383 -0.3314 -0.7989 -0.4320
12302SOL    HW139060   7.498   3.525   5.407  0.8225 -0.9804  1.1347
12302SOL    HW239061   7.568   3.438   5.306 -0.7098 -0.1811 -0.6761
12303SOL     OW39062   8.435   1.110   3.023 -0.0340 -0.0590 -0.3127
12303SOL    HW139063   8.437   1.187   3.080 -2.1559  1.5046 -2.1427
12303SOL    HW239064   8.482   1.138   2.944 -1.4953 -0.2793 -1.3131
12304SOL     OW39065   3.031   7.100   6.665  0.1846 -0.1438  0.6537
12304SOL    HW139066   2.990   7.134   6.585  2.4569  0.2643 -0.4207
12304SOL    HW239067   2.978   7.025   6.689 -1.9283  1.0739  0.1134
12305SOL     OW39068   6.784   0.193   5.208 -0.4997 -0.4205 -0.0754
12305SOL    HW139069   6.783   0.275   5.159  0.4697 -0.6018 -0.4266
12305SOL    HW239070   6.864   0.198   5.261 -0.3881 -1.1737 -0.1639
12306SOL     OW39071   3.270   9.197   8.059 -0.1940 -0.1337 -0.7010
12306SOL    HW139072   3.296   9.186   7.968 -0.7080 -0.0659 -0.8595
12306SOL    HW239073   3.175   9.209   8.056 -0.1966  0.0242 -0.1705
12307SOL     OW39074   1.132   8.172   0.602  0.0081  0.5814  0.3493
12307SOL    HW139075   1.219   8.199   0.571  0.9603 -1.2073  1.2700
12307SOL    HW239076   1.141   8.167   0.697 -0.2449 -2.1769  0.3046
12308SOL     OW39077   9.372   7.991   6.037 -0.1091  0.1861  0.1414
12308SOL    HW139078   9.283   7.961   6.055  0.3694 -2.5655 -1.4665
12308SOL    HW239079   9.374   8.006   5.943  1.3089 -0.6145  0.0095
12309SOL     OW39080   2.529   7.012   1.839  0.9699  0.0657  0.0949
12309SOL    HW139081   2.513   7.106   1.844 -1.3870 -0.2620  0.0360
12309SOL    HW239082   2.540   6.984   1.929 -0.2515  0.1601  0.2966
12310SOL     OW39083   8.404   5.781   5.641 -0.1673 -0.1750 -0.2024
12310SOL    HW139084   8.440   5.860   5.681 -1.4246 -0.0941  0.8459
12310SOL    HW239085   8.382   5.808   5.552 -0.6825  0.7048  0.1730
12311SOL     OW39086   9.178   5.891   9.484 -0.0020  0.3451  0.2608
12311SOL    HW139087   9.152   5.806   9.521 -0.1703 -0.1526 -0.9362
12311SOL    HW239088   9.272   5.895   9.496 -0.0424  0.1579  0.6570
12312SOL     OW39089   1.989   1.601   5.181  0.5531 -0.5022 -0.5331
12312SOL    HW139090   2.069   1.636   5.221 -0.3639  0.9053  0.1480
12312SOL    HW239091   1.942   1.559   5.253  0.1154 -0.2479 -0.6627
12313SOL     OW39092   3.571   4.850   7.259  0.5250 -0.3091  0.1605
12313SOL    HW139093   3.537   4.815   7.341 -0.7072  1.0091  0.2548
12313SOL    HW239094   3.560   4.945   7.267  0.4105 -0.1503 -1.5116
12314SOL     OW39095   0.150   6.739   6.350  0.1228 -0.0480 -0.2201
12314SOL    HW139096   0.217   6.799   6.316  0.7008  0.2401  1.3057
12314SOL    HW239097   0.140   6.765   6.442 -4.6305  2.2394 -1.1099
12315SOL     OW39098   8.120   0.904   2.506  0.3657  0.1291 -0.0330
12315SOL    HW139099   8.143   0.905   2.414 -0.1006 -1.0201 -0.1835
12315SOL    HW239100   8.124   0.996   2.533 -2.8009  1.0146 -2.0344
12316SOL     OW39101   6.016   8.024   3.365 -0.0452 -0.1065 -0.1394
12316SOL    HW139102   6.003   8.104   3.314 -0.2485  0.9365  1.4731
12316SOL    HW239103   6.111   8.011   3.365  0.2058  1.3305  1.2368
12317SOL     OW39104   7.344   3.228   4.150 -0.2237  0.2972  0.1501
12317SOL    HW139105   7.301   3.241   4.066 -0.5995  2.0935  0.5628
12317SOL    HW239106   7.273   3.231   4.214  0.3881  3.2229  0.8334
12318SOL     OW39107   3.621   6.984   0.349 -0.2743  0.4037 -0.0742
12318SOL    HW139108   3.717   6.991   0.354 -0.3692  2.4133 -0.3262
12318SOL    HW239109   3.601   6.997   0.257 -0.9109  2.9855  0.3369
12319SOL     OW39110   7.994   4.533   5.619 -0.5111 -0.5404  0.6800
12319SOL    HW139111   7.991   4.610   5.562  1.2217 -0.7496  0.2431
12319SOL    HW239112   7.902   4.514   5.639 -1.2193 -0.3802 -1.9809
12320SOL     OW39113   5.885   0.657   8.262  0.3605 -0.2585  0.5635
12320SOL    HW139114   5.790   0.659   8.244  0.3757  0.4457  0.5325
12320SOL    HW239115   5.907   0.564   8.263 -0.4029 -0.4443  0.9325
12321SOL     OW39116   4.296   3.440   1.735 -0.0949 -0.1546 -0.4037
12321SOL    HW139117   4.232   3.469   1.670 -0.9692 -0.6455  0.2190
12321SOL    HW239118   4.365   3.398   1.684  0.1328  1.0699 -1.1422
12322SOL     OW39119   9.018   8.701   7.580 -0.4074 -0.4994  0.1912
12322SOL    HW139120   8.944   8.743   7.536  0.1995 -1.8978 -2.3566
12322SOL    HW239121   9.017   8.738   7.668 -2.2005  1.9100 -0.7103
12323SOL     OW39122   0.753   2.411   6.290 -0.7375 -0.6114  0.0704
12323SOL    HW139123   0.830   2.433   6.343  0.6542  0.2805 -2.1936
12323SOL    HW239124   0.701   2.492   6.288 -0.5880 -0.5211 -0.2317
12324SOL     OW39125   2.970   5.059   2.123  0.0488 -0.2136  0.3082
12324SOL    HW139126   2.903   5.104   2.175  0.5543 -0.8750  1.5840
12324SOL    HW239127   2.922   5.025   2.047 -0.8200  0.3733  0.5748
12325SOL     OW39128   8.162   4.452   0.031 -0.8497 -0.0983 -0.3638
12325SOL    HW139129   8.086   4.476   0.084  0.2027 -0.7890  1.5324
12325SOL    HW239130   8.237   4.460   0.090  0.4792 -0.1913 -1.9620
12326SOL     OW39131   6.268   2.688   8.538  0.2210  0.0648  1.0792
12326SOL    HW139132   6.327   2.724   8.472  0.7904 -0.1900  1.4415
12326SOL    HW239133   6.318   2.618   8.579 -0.5802 -0.6110  0.9318
12327SOL     OW39134   1.486   5.969   1.470 -0.3901 -0.1892  0.1795
12327SOL    HW139135   1.542   5.932   1.538 -0.0478 -0.9723 -0.5109
12327SOL    HW239136   1.547   6.002   1.404 -0.6907 -2.2354 -1.2135
12328SOL     OW39137   3.266   2.750   7.607  0.5331 -0.1047  0.8918
12328SOL    HW139138   3.342   2.783   7.654 -0.0719 -0.8016  2.4245
12328SOL    HW239139   3.194   2.753   7.671 -0.7603  0.5877 -0.5296
12329SOL     OW39140   5.465   6.391   7.119 -0.2582  0.1679  0.4936
12329SOL    HW139141   5.487   6.360   7.206  0.6203  0.5919  0.4281
12329SOL    HW239142   5.525   6.464   7.103 -0.5058  0.1904 -0.4014
12330SOL     OW39143   9.614   6.334   3.344  0.0544 -0.4573 -0.1656
12330SOL    HW139144   9.616   6.262   3.280  1.4140  0.2670 -0.9824
12330SOL    HW239145   9.671   6.305   3.414  1.0672  0.0397 -0.7654
12331SOL     OW39146   8.657   8.369   2.427 -0.7826 -0.4630 -0.2592
12331SOL    HW139147   8.697   8.306   2.487 -0.9317  0.5229  0.9159
12331SOL    HW239148   8.593   8.416   2.480 -1.9808 -0.5443 -1.5675
12332SOL     OW39149   4.357   2.925   5.928  0.0363  0.0794 -0.2704
12332SOL    HW139150   4.431   2.954   5.982 -1.2582 -0.5083  1.9808
12332SOL    HW239151   4.290   2.993   5.941 -0.5446 -0.4290 -0.5718
12333SOL     OW39152   9.385   8.232   7.608  0.1681  0.0331  0.4838
12333SOL    HW139153   9.291   8.248   7.599 -0.1398 -0.2329  2.7758
12333SOL    HW239154   9.392   8.162   7.672  1.9345  0.0289  0.3331
12334SOL     OW39155   6.430   2.390   7.381  0.2904 -0.4870 -0.7331
12334SOL    HW139156   6.346   2.435   7.389  0.0531 -0.8216 -1.2910
12334SOL    HW239157   6.423   2.340   7.300 -0.2885 -3.2285  0.8528
12335SOL     OW39158   2.971   2.019   1.345  0.7018  0.7141  0.3302
12335SOL    HW139159   3.066   2.030   1.349  0.8354 -0.1548 -0.2445
12335SOL    HW239160   2.937   2.081   1.409  1.7449 -0.0924  1.7231
12336SOL     OW39161   6.447   8.711   4.125 -0.3753  0.4819  0.2450
12336SOL    HW139162   6.473   8.800   4.099 -0.5796  0.9686  1.6175
12336SOL    HW239163   6.490   8.654   4.061  1.3887  1.4470  0.5041
12337SOL     OW39164   4.164   2.935   4.389  0.3430  0.3157 -0.3928
12337SOL    HW139165   4.092   2.970   4.336 -0.3062  0.8305  0.8041
12337SOL    HW239166   4.136   2.949   4.479  2.1261  0.8846  0.0952
12338SOL     OW39167   5.126   7.892   4.784 -0.2483 -0.3252 -0.5092
12338SOL    HW139168   5.062   7.941   4.836  0.6124  0.4987 -0.1895
12338SOL    HW239169   5.187   7.959   4.752  1.8112 -1.2568  1.1315
12339SOL     OW39170   8.836   1.445   5.212 -0.1101  0.1189  0.1210
12339SOL    HW139171   8.851   1.540   5.212  1.3040 -0.0253  2.3561
12339SOL    HW239172   8.752   1.434   5.255  0.6764  0.3137  1.7741
12340SOL     OW39173   8.348   7.893   8.544  0.0901  0.5272  0.2212
12340SOL    HW139174   8.351   7.911   8.450  0.1274 -1.9435 -0.3174
12340SOL    HW239175   8.256   7.902   8.567 -0.0402  0.3761 -0.2271
12341SOL     OW39176   9.630   1.216   6.685 -0.2404 -0.9954 -0.2028
12341SOL    HW139177   9.655   1.284   6.624 -0.0759  0.6880  1.6233
12341SOL    HW239178   9.712   1.189   6.727 -0.5304 -0.8291  0.4992
12342SOL     OW39179   3.002   7.103   5.494 -0.0784 -0.5680 -0.0605
12342SOL    HW139180   3.035   7.025   5.540 -0.5457 -1.2932 -0.9270
12342SOL    HW239181   2.957   7.068   5.417 -0.6129  0.5499 -0.2703
12343SOL     OW39182   7.870   2.837   6.850  0.9471 -0.0791  0.4150
12343SOL    HW139183   7.838   2.874   6.933  0.2134 -0.3230  0.2473
12343SOL    HW239184   7.907   2.752   6.875  1.3522  0.1477  0.5928
12344SOL     OW39185   4.451   6.106   4.031 -0.0829 -0.6653 -0.7017
12344SOL    HW139186   4.521   6.170   4.031 -0.8916  0.2490  0.0261
12344SOL    HW239187   4.456   6.065   4.118 -0.4319 -0.6161 -0.6580
12345SOL     OW39188   5.848   1.170   8.854 -0.4842 -0.0593 -0.0252
12345SOL    HW139189   5.860   1.091   8.800 -1.5148 -0.0393 -0.3152
12345SOL    HW239190   5.790   1.226   8.802 -1.2736  0.0850  0.9718
12346SOL     OW39191   5.036   6.763   2.212 -0.1769  0.1783 -0.1816
12346SOL    HW139192   5.077   6.849   2.209  0.1508  0.0447  0.3622
12346SOL    HW239193   4.947   6.777   2.179  0.1369  0.5682 -0.8730
12347SOL     OW39194   2.576   1.505   7.533 -0.0215 -0.1866  0.4671
12347SOL    HW139195   2.611   1.533   7.449 -0.7690 -0.2001  0.1445
12347SOL    HW239196   2.647   1.521   7.596  1.5626 -2.5740 -0.5346
12348SOL     OW39197   6.490   2.441   5.308 -0.2001 -0.5476 -0.2239
12348SOL    HW139198   6.421   2.450   5.243 -0.0078  0.5741 -0.2963
12348SOL    HW239199   6.498   2.347   5.322  1.1858 -1.0537 -3.3998
12349SOL     OW39200   0.361   4.694   1.978  0.4285 -0.4272 -0.1501
12349SOL    HW139201   0.431   4.759   1.990  0.2203  0.0281 -1.3038
12349SOL    HW239202   0.293   4.720   2.040  0.1336  0.7878 -0.9352
12350SOL     OW39203   2.415   3.720   7.575 -0.4481  0.3357  0.2502
12350SOL    HW139204   2.501   3.678   7.568  0.1706  1.8223 -2.2624
12350SOL    HW239205   2.361   3.673   7.512 -0.2433  2.0405 -1.2617
12351SOL     OW39206   3.299   3.697   9.270  0.1341 -0.7519  0.0810
12351SOL    HW139207   3.367   3.652   9.220  0.1014 -1.0038  0.2598
12351SOL    HW239208   3.244   3.739   9.204  2.3467  2.2920 -0.0122
12352SOL     OW39209   8.853   7.359   9.085 -0.0758  1.0164  0.1491
12352SOL    HW139210   8.849   7.271   9.122  1.0075  1.9751  2.7916
12352SOL    HW239211   8.824   7.348   8.994  1.2684 -2.2747 -0.0330
12353SOL     OW39212   8.509   3.019   5.799  0.1990  0.1443 -0.2564
12353SOL    HW139213   8.535   3.083   5.865  1.0527 -1.6619  1.2674
12353SOL    HW239214   8.544   3.054   5.716  0.8479  1.5031  0.5600
12354SOL     OW39215   6.864   4.637   3.738 -0.4284  0.1021 -0.4627
12354SOL    HW139216   6.773   4.629   3.767 -0.2501  0.9087  0.3833
12354SOL    HW239217   6.863   4.712   3.679 -0.5200 -0.6403 -1.4320
12355SOL     OW39218   6.814   0.792   2.502  0.2092  0.0415 -0.1166
12355SOL    HW139219   6.813   0.847   2.423 -0.6803  0.0039 -0.1465
12355SOL    HW239220   6.722   0.777   2.521  0.3275  1.3644  1.8534
12356SOL     OW39221   6.161   2.533   8.847 -0.4512  0.2672  0.6218
12356SOL    HW139222   6.243   2.557   8.805  1.2299 -1.8123  2.4684
12356SOL    HW239223   6.167   2.438   8.860 -3.3590 -0.0376  0.4514
12357SOL     OW39224   9.127   1.414   2.305 -0.1862  0.0769  0.3272
12357SOL    HW139225   9.062   1.360   2.349  0.2376 -0.3951  0.3818
12357SOL    HW239226   9.211   1.382   2.337  0.1657 -0.6912 -1.2449
12358SOL     OW39227   8.634   2.336   2.157  0.1219  0.4845 -0.4642
12358SOL    HW139228   8.617   2.243   2.143  1.7861  0.1826 -0.8051
12358SOL    HW239229   8.580   2.361   2.232 -0.4397 -0.7172 -0.4607
12359SOL     OW39230   8.288   5.812   7.213  0.3666 -1.0580 -0.4232
12359SOL    HW139231   8.262   5.830   7.123  0.5242 -0.0258 -0.2708
12359SOL    HW239232   8.211   5.773   7.253  0.7719 -3.0114 -1.4079
12360SOL     OW39233   4.833   7.870   9.228 -0.3806  0.5942 -0.5906
12360SOL    HW139234   4.766   7.936   9.251  0.7595  1.5504  0.1174
12360SOL    HW239235   4.915   7.909   9.257  0.4105 -0.8870 -0.7583
12361SOL     OW39236   9.406   4.280   3.368  0.2154  0.2899 -0.5557
12361SOL    HW139237   9.499   4.263   3.381 -0.1829 -0.3400  2.2385
12361SOL    HW239238   9.362   4.213   3.421 -1.8864  0.0495 -2.4383
12362SOL     OW39239   0.663   0.241   4.597 -0.4694  0.0592 -0.3044
12362SOL    HW139240   0.723   0.171   4.621 -0.6764  0.2168  0.7081
12362SOL    HW239241   0.577   0.201   4.599 -0.5693  0.2899  0.0784
12363SOL     OW39242   4.880   1.855   0.754  0.0630 -0.1715  0.3709
12363SOL    HW139243   4.851   1.932   0.705  0.3444 -0.1499  0.2345
12363SOL    HW239244   4.837   1.862   0.839 -1.0392 -0.6101 -0.1354
12364SOL     OW39245   4.875   5.081   8.491 -0.3448 -0.1640  0.4032
12364SOL    HW139246   4.958   5.036   8.482 -0.0004  0.3615  0.8768
12364SOL    HW239247   4.878   5.121   8.578 -1.2523 -0.4574  0.5879
12365SOL     OW39248   6.027   0.627   7.001 -0.0515 -0.1601  0.1605
12365SOL    HW139249   5.961   0.619   6.932 -0.0415 -0.4765  0.1852
12365SOL    HW239250   5.986   0.681   7.068 -0.0854  0.0955 -0.0675
12366SOL     OW39251   7.452   4.599   2.878  0.0728 -0.1925  0.2446
12366SOL    HW139252   7.431   4.506   2.892 -0.1421 -0.2329 -0.3528
12366SOL    HW239253   7.494   4.626   2.960  1.7421 -1.2808 -0.1916
12367SOL     OW39254   4.004   3.911   1.671 -0.9809  0.1157 -0.0575
12367SOL    HW139255   3.996   3.886   1.579 -1.9428 -1.4307  0.4003
12367SOL    HW239256   3.976   4.002   1.674  0.1006  0.5243 -1.4397
12368SOL     OW39257   9.179   2.830   2.340  0.4020  0.2993  0.3009
12368SOL    HW139258   9.086   2.831   2.364 -0.1710 -2.7025 -1.3452
12368SOL    HW239259   9.184   2.882   2.260 -0.8322 -2.8569 -2.0575
12369SOL     OW39260   1.390   5.432   2.988 -0.3717  0.2336 -0.1028
12369SOL    HW139261   1.312   5.382   3.011 -0.1941 -0.0294 -0.0701
12369SOL    HW239262   1.357   5.519   2.967 -1.0013 -0.5214 -2.5538
12370SOL     OW39263   1.153   1.599   2.546 -0.7731 -0.4629 -0.7196
12370SOL    HW139264   1.194   1.683   2.526 -0.3820 -0.0388  1.5622
12370SOL    HW239265   1.059   1.616   2.537 -0.7280  0.4211  0.2924
12371SOL     OW39266   0.978   0.047   4.409 -0.3871  0.0577 -0.2716
12371SOL    HW139267   0.993   0.083   4.321 -0.7717  1.0992  0.0748
12371SOL    HW239268   1.032   0.102   4.466 -0.1378 -0.6162  0.1507
12372SOL     OW39269   5.196   6.823   6.192 -0.3476 -0.1035 -0.1613
12372SOL    HW139270   5.253   6.849   6.265 -1.0007  1.6865 -0.2488
12372SOL    HW239271   5.196   6.727   6.195  1.6489 -0.1300  0.6175
12373SOL     OW39272   5.338   4.302   1.851 -0.1658  0.1499  0.4635
12373SOL    HW139273   5.313   4.245   1.778  3.0074  0.5880 -1.1578
12373SOL    HW239274   5.391   4.245   1.908 -0.8064  0.3807  1.3176
12374SOL     OW39275   6.492   4.761   7.526 -0.8413 -0.1000 -0.8029
12374SOL    HW139276   6.426   4.831   7.521 -1.2410 -0.4159 -0.0609
12374SOL    HW239277   6.574   4.808   7.542 -1.0858  0.2262 -0.4563
12375SOL     OW39278   1.967   6.842   1.571  0.1021  0.3358 -0.3048
12375SOL    HW139279   1.926   6.908   1.516  0.1592  2.3062  1.8400
12375SOL    HW239280   2.015   6.892   1.637 -0.3363 -1.8024  1.8184
12376SOL     OW39281   4.914   0.830   9.012  0.1706  0.3694  0.0564
12376SOL    HW139282   5.009   0.841   9.018  0.7121 -2.9638 -0.6045
12376SOL    HW239283   4.888   0.798   9.099  0.0873 -1.0526 -0.4707
12377SOL     OW39284   7.495   2.954   5.277  1.0349 -0.3860  0.3818
12377SOL    HW139285   7.589   2.948   5.262  1.2206 -0.1848  1.3830
12377SOL    HW239286   7.471   3.043   5.251  1.7075  0.6408  2.9220
12378SOL     OW39287   6.070   9.108   6.877  0.3757 -0.1964  1.0645
12378SOL    HW139288   6.091   9.128   6.786 -0.7231  3.5216  1.4720
12378SOL    HW239289   6.152   9.122   6.924  0.2554  0.8161  0.9868
12379SOL     OW39290   6.520   3.841   6.540  0.4711 -0.2660  0.5797
12379SOL    HW139291   6.553   3.778   6.475 -0.1926  1.0707 -1.1174
12379SOL    HW239292   6.430   3.858   6.514  0.8008  1.8135  0.6065
12380SOL     OW39293   1.677   8.751   7.541  0.1883  0.3051 -0.3291
12380SOL    HW139294   1.722   8.834   7.524 -0.4085  0.8010  0.4212
12380SOL    HW239295   1.588   8.777   7.564 -0.1622 -0.5903 -0.6459
12381SOL     OW39296   0.262   2.268   4.438  0.1626 -0.0755  0.1668
12381SOL    HW139297   0.346   2.300   4.473  0.2927  0.3647 -0.5361
12381SOL    HW239298   0.196   2.306   4.496  0.3754  0.6858 -0.0815
12382SOL     OW39299   3.144   6.489   0.824  0.5369  0.2399 -0.0115
12382SOL    HW139300   3.179   6.459   0.741  2.8578  0.2122  0.9116
12382SOL    HW239301   3.058   6.526   0.802  0.5345 -0.9195 -2.1835
12383SOL     OW39302   4.589   4.040   6.116  0.9404  0.1569 -0.3975
12383SOL    HW139303   4.649   3.985   6.066  0.7421  1.8559 -2.6966
12383SOL    HW239304   4.507   4.037   6.067  0.5070  1.3518  0.2053
12384SOL     OW39305   6.533   1.126   3.864 -0.7536 -0.1208 -0.0363
12384SOL    HW139306   6.561   1.170   3.944  0.4553 -0.2434 -0.3643
12384SOL    HW239307   6.491   1.194   3.812  2.2390  1.0786 -1.1071
12385SOL     OW39308   2.800   8.939   9.350  0.2907 -0.2450 -0.2479
12385SOL    HW139309   2.795   8.918   9.256 -0.6061  0.3577 -0.3456
12385SOL    HW239310   2.732   8.885   9.390 -0.5696  0.8229 -0.2108
12386SOL     OW39311   9.193   2.625   3.376 -0.1036  0.4526  0.0484
12386SOL    HW139312   9.171   2.549   3.430  1.4189  0.9992  1.5355
12386SOL    HW239313   9.231   2.688   3.438  0.5948  1.5996 -1.4827
12387SOL     OW39314   2.502   8.370   6.367  0.2421  0.2753 -0.1313
12387SOL    HW139315   2.414   8.374   6.404 -0.0184  1.0322 -0.8081
12387SOL    HW239316   2.553   8.433   6.417  0.2737  0.1916 -0.0593
12388SOL     OW39317   0.468   9.252   2.693  0.2116 -0.4815 -0.0415
12388SOL    HW139318   0.415   9.222   2.620  1.4650  0.0573 -1.1967
12388SOL    HW239319   0.540   9.190   2.699  0.1287 -0.5193  0.7492
12389SOL     OW39320   6.999   2.511   8.843 -0.0972 -0.5489 -0.0738
12389SOL    HW139321   6.924   2.538   8.789  0.3021  1.0416  0.1111
12389SOL    HW239322   7.054   2.589   8.849  1.9307 -1.8474 -0.7354
12390SOL     OW39323   9.116   6.059   9.252 -0.3858  0.0393  0.4677
12390SOL    HW139324   9.166   6.134   9.220  0.5897 -0.5505  0.5716
12390SOL    HW239325   9.164   6.028   9.328 -0.6612 -0.8202  0.3008
12391SOL     OW39326   3.402   0.762   7.708 -0.1039  0.1280  0.2158
12391SOL    HW139327   3.423   0.692   7.770  0.4975 -0.1966 -0.3323
12391SOL    HW239328   3.482   0.772   7.656 -0.9562 -0.4107 -1.2633
12392SOL     OW39329   6.699   4.160   0.018 -0.1233 -0.6612 -0.1431
12392SOL    HW139330   6.687   4.190  -0.072 -0.2891 -1.4158 -0.3817
12392SOL    HW239331   6.790   4.181   0.038 -0.6235  1.3629  0.2455
12393SOL     OW39332   2.169   2.485   7.835 -0.1000  0.0004  0.0578
12393SOL    HW139333   2.216   2.434   7.901  0.7377  0.1115 -0.4427
12393SOL    HW239334   2.087   2.510   7.878  0.2450 -0.2845  0.9025
12394SOL     OW39335   5.847   5.583   3.142  0.0355 -0.4983  0.2819
12394SOL    HW139336   5.869   5.677   3.139 -1.1535 -0.2005  0.5183
12394SOL    HW239337   5.910   5.546   3.203  2.1845 -0.3461 -1.6637
12395SOL     OW39338   8.372   8.345   4.542  0.1639 -0.1178  0.0937
12395SOL    HW139339   8.304   8.341   4.609  0.1923 -1.3595  0.0818
12395SOL    HW239340   8.339   8.407   4.477 -0.3465  0.2938  0.7402
12396SOL     OW39341   5.642   1.251   8.098 -0.2870  0.4273 -0.5847
12396SOL    HW139342   5.669   1.312   8.029  1.3412 -0.3744 -0.6935
12396SOL    HW239343   5.623   1.169   8.052  1.2280 -0.2366 -0.0630
12397SOL     OW39344   3.576   8.657   1.304 -0.1943  0.0712  0.1763
12397SOL    HW139345   3.492   8.637   1.262  0.5094 -1.0981 -0.7144
12397SOL    HW239346   3.565   8.625   1.394 -1.3477  1.6644  0.6463
12398SOL     OW39347   2.016   9.324   1.917  0.2356  0.9331  0.2174
12398SOL    HW139348   1.993   9.374   1.996 -1.8839  0.1384  0.1612
12398SOL    HW239349   2.026   9.234   1.948  2.6792  1.0925  0.0773
12399SOL     OW39350   7.465   3.397   9.047  0.1553 -0.3969 -0.2717
12399SOL    HW139351   7.405   3.351   9.106  0.1564 -0.6350 -0.4563
12399SOL    HW239352   7.447   3.361   8.960 -2.9380  2.9345 -1.2523
12400SOL     OW39353   1.208   4.359   9.454  0.4027  0.2886 -0.2687
12400SOL    HW139354   1.256   4.431   9.412  2.6511  0.8080  2.7721
12400SOL    HW239355   1.273   4.288   9.460 -1.1620 -1.3118 -1.3769
12401SOL     OW39356   1.048   2.136   2.752 -1.0026 -0.3278  0.1734
12401SOL    HW139357   1.044   2.173   2.840 -2.1124  0.2475 -0.0985
12401SOL    HW239358   1.054   2.212   2.694 -0.8701 -0.6786 -0.2788
12402SOL     OW39359   8.257   1.372   5.166  0.4388  0.6347  0.4064
12402SOL    HW139360   8.265   1.415   5.251 -1.6809  1.5833  0.2029
12402SOL    HW239361   8.344   1.377   5.128  1.0886  1.4869  1.9206
12403SOL     OW39362   1.660   4.970   3.489 -0.0593  0.0794 -0.1653
12403SOL    HW139363   1.688   5.060   3.473 -1.6787  0.2518 -2.5855
12403SOL    HW239364   1.727   4.916   3.448  0.1330  0.2274 -0.0471
12404SOL     OW39365   5.261   4.172   7.983  0.3999 -0.0714  0.2365
12404SOL    HW139366   5.327   4.239   7.965  1.1440 -0.1723  2.3143
12404SOL    HW239367   5.237   4.186   8.075 -0.6544 -1.6199  0.2353
12405SOL     OW39368   5.576   6.356   5.687 -0.3643 -0.4498 -0.2521
12405SOL    HW139369   5.535   6.287   5.739 -1.6194 -0.2342 -0.9407
12405SOL    HW239370   5.598   6.424   5.752 -2.1479 -0.0688  0.0107
12406SOL     OW39371   5.697   2.164   0.761 -0.1661 -0.1760 -0.2511
12406SOL    HW139372   5.779   2.154   0.809 -0.2277 -5.1841 -0.6263
12406SOL    HW239373   5.724   2.191   0.673  0.7883  0.5304  0.2438
12407SOL     OW39374   8.466   3.022   2.102  0.2505  0.2384  0.2904
12407SOL    HW139375   8.466   3.038   2.197  0.1760 -2.3939  0.8152
12407SOL    HW239376   8.408   3.090   2.067 -1.2168  0.1775  2.3696
12408SOL     OW39377   1.746   4.988   4.389  0.1813  0.5643 -0.4423
12408SOL    HW139378   1.818   4.946   4.435 -0.8405 -0.5319  0.1937
12408SOL    HW239379   1.718   4.924   4.323 -1.4670  0.1285  0.6170
12409SOL     OW39380   3.792   2.511   6.384 -0.1171  0.0164 -0.2295
12409SOL    HW139381   3.716   2.513   6.442 -0.8358 -1.7173 -1.0210
12409SOL    HW239382   3.840   2.591   6.403 -0.6772 -0.1799  2.2647
12410SOL     OW39383   6.066   1.051   6.078 -0.0496 -0.6191  0.1085
12410SOL    HW139384   6.125   1.005   6.019  0.1704  0.2174 -0.3369
12410SOL    HW239385   5.981   1.050   6.033  0.5471  1.7978 -1.2579
12411SOL     OW39386   4.502   9.025   3.494 -0.0722 -0.3045  0.3325
12411SOL    HW139387   4.568   9.029   3.563  0.8330 -0.0151 -0.5245
12411SOL    HW239388   4.443   9.099   3.513  0.0093 -0.3930  0.9406
12412SOL     OW39389   4.126   6.225   1.673 -0.6880 -0.2351 -0.0591
12412SOL    HW139390   4.208   6.199   1.716 -1.0132 -0.4022  0.4606
12412SOL    HW239391   4.134   6.320   1.663  0.4111 -0.4628 -1.7825
12413SOL     OW39392   1.814   4.557   2.482  0.2464 -0.1105 -0.1649
12413SOL    HW139393   1.752   4.485   2.496  2.2313 -1.9411 -0.3426
12413SOL    HW239394   1.800   4.582   2.391 -1.3982  0.7200  0.2681
12414SOL     OW39395   6.937   5.712   4.976 -0.2406  0.2487  0.1368
12414SOL    HW139396   6.899   5.626   4.955 -1.4458  0.6600  0.5679
12414SOL    HW239397   7.001   5.728   4.906  1.1336 -1.6558  0.8538
12415SOL     OW39398   1.555   8.603   1.184  0.0914 -0.6590  0.2142
12415SOL    HW139399   1.632   8.572   1.136 -0.5166 -1.1209 -0.4808
12415SOL    HW239400   1.482   8.555   1.145 -0.6275  0.2255  0.4572
12416SOL     OW39401   1.413   8.590   2.889  0.2541 -0.4789 -0.4209
12416SOL    HW139402   1.327   8.596   2.929 -1.1644  0.3091 -3.3293
12416SOL    HW239403   1.473   8.621   2.957 -1.4797 -2.4714  2.2032
12417SOL     OW39404   2.151   8.935   7.670 -0.1042  0.5072 -0.3855
12417SOL    HW139405   2.119   8.847   7.649  0.9360 -0.0267  0.1629
12417SOL    HW239406   2.247   8.927   7.667  0.0420  2.1891 -2.5792
12418SOL     OW39407   8.795   6.909   2.723 -0.1504  0.1119  0.1804
12418SOL    HW139408   8.805   6.982   2.785 -0.4579 -0.7611  1.2892
12418SOL    HW239409   8.708   6.923   2.684  0.6726  1.5453 -1.2809
12419SOL     OW39410   8.931   9.567   2.177  0.2083  0.1243 -0.3286
12419SOL    HW139411   8.843   9.596   2.197 -0.0752 -0.0021 -1.3339
12419SOL    HW239412   8.923   9.472   2.166 -0.2424  0.4244 -3.6459
12420SOL     OW39413   3.101   0.946   9.103 -0.9712 -0.8068  0.3625
12420SOL    HW139414   3.115   0.890   9.026  0.0674 -0.4486  0.2738
12420SOL    HW239415   3.035   1.009   9.074 -1.2322 -1.2117  0.0542
12421SOL     OW39416   4.114   4.235   3.000  0.1010 -0.2913 -0.1276
12421SOL    HW139417   4.182   4.170   2.984 -0.2584 -0.6425 -0.2672
12421SOL    HW239418   4.134   4.306   2.940 -0.7652 -1.2412 -1.6171
12422SOL     OW39419   1.468   1.827   1.315  0.1097  0.3592 -0.1820
12422SOL    HW139420   1.425   1.911   1.335 -0.8384 -0.1893  0.1730
12422SOL    HW239421   1.398   1.773   1.278  0.0924 -1.0512  1.7419
12423SOL     OW39422   7.111   6.274   2.548  0.2177 -0.2766 -0.2121
12423SOL    HW139423   7.172   6.231   2.488  1.6272 -2.8684  2.7752
12423SOL    HW239424   7.152   6.358   2.568 -0.2085  0.5685 -2.5955
12424SOL     OW39425   6.366   6.164   3.751 -0.3149 -0.5275  0.3911
12424SOL    HW139426   6.350   6.141   3.843 -0.4061  2.0832  1.1159
12424SOL    HW239427   6.328   6.251   3.742  3.7812  1.3747 -0.7776
12425SOL     OW39428   0.338   0.068   4.406 -0.1793  0.2757  0.0171
12425SOL    HW139429   0.387   0.018   4.471  0.6509  0.7423 -0.2419
12425SOL    HW239430   0.333   0.157   4.442 -0.2734  0.3812 -0.2506
12426SOL     OW39431   7.490   3.069   2.224 -0.0042 -0.0326  0.0063
12426SOL    HW139432   7.561   3.123   2.189  0.3472 -0.8471 -0.5556
12426SOL    HW239433   7.431   3.056   2.150 -0.4469  0.1379  0.3201
12427SOL     OW39434   6.710   5.584   6.484 -0.2380  0.3264  0.2384
12427SOL    HW139435   6.803   5.606   6.481 -0.2179  0.3825  1.0755
12427SOL    HW239436   6.673   5.623   6.404  0.3056  0.9845  0.3063
12428SOL     OW39437   6.469   2.276   2.755  0.6046 -0.1221 -0.4382
12428SOL    HW139438   6.407   2.207   2.732  1.7579 -1.1565 -0.5560
12428SOL    HW239439   6.437   2.310   2.839  0.7120 -1.6756  0.2614
12429SOL     OW39440   4.554   0.441   5.360  0.0498 -0.0749  0.1813
12429SOL    HW139441   4.542   0.433   5.266 -0.3452 -0.2469  0.2401
12429SOL    HW239442   4.494   0.375   5.397  0.6630 -0.4461  0.5292
12430SOL     OW39443   0.021   0.970   7.676  0.0918  0.2781  0.4478
12430SOL    HW139444   0.014   1.023   7.755  0.8661 -0.6913  1.1905
12430SOL    HW239445   0.066   0.890   7.704 -0.9070 -0.7111 -0.6667
12431SOL     OW39446   4.101   7.210   9.243 -0.2803 -0.6135 -0.3861
12431SOL    HW139447   4.042   7.135   9.236  0.4995 -1.2900  0.0855
12431SOL    HW239448   4.071   7.271   9.175 -2.0497 -0.5573  0.4092
12432SOL     OW39449   1.731   0.903   0.365  0.0642  0.6353  0.2807
12432SOL    HW139450   1.657   0.959   0.391 -2.7151 -2.4627 -0.3073
12432SOL    HW239451   1.731   0.907   0.269 -0.4570 -0.6044  0.2100
12433SOL     OW39452   9.278   5.640   3.466 -0.0126  0.3738 -0.2083
12433SOL    HW139453   9.227   5.559   3.464  1.7940 -0.9026  1.8046
12433SOL    HW239454   9.226   5.699   3.521 -0.3305 -0.1662  0.0759
12434SOL     OW39455   8.141   2.996   3.752  0.2863 -0.9107 -0.1719
12434SOL    HW139456   8.126   2.926   3.688  0.7519 -1.0377 -0.1477
12434SOL    HW239457   8.055   3.035   3.765  0.4032 -0.0214 -1.8515
12435SOL     OW39458   7.076   1.330   1.630  0.6774 -0.0855 -0.2229
12435SOL    HW139459   7.106   1.420   1.615 -0.0500 -0.0993 -2.0673
12435SOL    HW239460   7.147   1.275   1.597  1.2987 -0.2354  1.2750
12436SOL     OW39461   4.070   0.235   5.251 -0.4342  0.4094 -0.3507
12436SOL    HW139462   4.024   0.182   5.316  0.0120  0.8034  0.3036
12436SOL    HW239463   4.154   0.192   5.240 -0.4908  0.3688 -0.6444
12437SOL     OW39464   6.593   3.020   5.419 -0.0186 -0.3265  0.0955
12437SOL    HW139465   6.680   3.012   5.381 -0.2863 -0.4426 -0.5056
12437SOL    HW239466   6.542   2.950   5.377 -0.7448  0.5647 -0.5519
12438SOL     OW39467   0.770   1.209   0.871 -0.5963  0.1541  0.0993
12438SOL    HW139468   0.781   1.226   0.965  0.4318 -0.8694  0.1851
12438SOL    HW239469   0.853   1.237   0.832 -1.1841  0.9966 -0.5863
12439SOL     OW39470   2.841   0.255   2.857 -0.3526  0.7838 -0.2477
12439SOL    HW139471   2.813   0.338   2.896 -0.7382  0.3188  0.4952
12439SOL    HW239472   2.770   0.230   2.799 -0.8099  0.3785  0.4605
12440SOL     OW39473   9.308   6.341   1.926  0.4225 -0.4345 -0.3247
12440SOL    HW139474   9.376   6.307   1.984  1.2584 -0.6059 -1.3759
12440SOL    HW239475   9.233   6.284   1.940  0.7232 -0.6818  0.3234
12441SOL     OW39476   4.702   8.519   5.993  0.0650 -0.3920  0.2231
12441SOL    HW139477   4.749   8.538   5.911  2.0147 -0.3743  1.2817
12441SOL    HW239478   4.704   8.423   6.000 -0.5099 -0.4236  0.0532
12442SOL     OW39479   7.221   9.028   8.996  0.2928  0.1244 -0.3388
12442SOL    HW139480   7.304   9.003   9.036  0.4410  0.4022 -0.4673
12442SOL    HW239481   7.206   8.962   8.928  0.4507  0.1210 -0.3705
12443SOL     OW39482   8.870   7.243   9.614 -0.1005  0.2187  0.1744
12443SOL    HW139483   8.924   7.174   9.576 -1.3144 -0.3145 -0.6292
12443SOL    HW239484   8.895   7.244   9.707 -0.9825 -2.2429  0.5101
12444SOL     OW39485   8.828   5.156   2.552 -0.6453  0.1337 -0.0159
12444SOL    HW139486   8.860   5.074   2.590 -2.7582 -0.3034  1.0062
12444SOL    HW239487   8.900   5.188   2.499  1.2790 -0.9101  1.8344
12445SOL     OW39488   1.583   0.482   2.992 -0.2030  0.1532  0.3658
12445SOL    HW139489   1.583   0.567   2.947 -0.9819 -0.5256 -0.9707
12445SOL    HW239490   1.561   0.418   2.924 -0.4562 -1.0354  1.5139
12446SOL     OW39491   2.941   1.562   2.233  0.0418  0.4472 -0.5889
12446SOL    HW139492   3.003   1.568   2.306  0.8393  0.5871 -1.2604
12446SOL    HW239493   2.937   1.650   2.198 -0.8450  0.5179 -0.3163
12447SOL     OW39494   1.347   6.885   1.475 -0.3703 -0.2979  0.0880
12447SOL    HW139495   1.341   6.980   1.486 -1.2365 -0.3198 -0.1572
12447SOL    HW239496   1.257   6.855   1.474 -0.1652 -0.9479 -1.2834
12448SOL     OW39497   8.234   1.275   3.763 -0.2310  0.8252  0.4971
12448SOL    HW139498   8.329   1.264   3.774 -0.3085 -0.5449 -0.0014
12448SOL    HW239499   8.221   1.278   3.669 -0.5737  2.3753  0.5668
12449SOL     OW39500   6.908   3.820   0.716 -0.2484  0.3830 -0.0912
12449SOL    HW139501   6.999   3.795   0.701  0.0078  1.6652 -0.8618
12449SOL    HW239502   6.858   3.739   0.709  0.8751 -0.4107  0.7941
12450SOL     OW39503   1.712   6.987   4.060  0.4555 -0.4001 -0.0348
12450SOL    HW139504   1.756   7.068   4.035  1.9960 -1.8031 -2.3161
12450SOL    HW239505   1.782   6.921   4.056 -0.8969 -1.9571  1.0260
12451SOL     OW39506   1.466   8.120   8.487 -0.3926  0.2571 -0.0446
12451SOL    HW139507   1.547   8.171   8.482 -0.6158  0.7945  1.4783
12451SOL    HW239508   1.409   8.158   8.420  0.4808  0.0662 -0.9284
12452SOL     OW39509   5.077   5.000   8.224 -0.1991  0.7399  0.0458
12452SOL    HW139510   5.160   5.042   8.199  1.0013 -0.5277  1.6333
12452SOL    HW239511   5.088   4.980   8.317 -2.3009  0.4773  0.2860
12453SOL     OW39512   4.213   3.138   8.974 -0.1105  0.4699 -0.6176
12453SOL    HW139513   4.176   3.226   8.968  0.3942  0.7821  0.5474
12453SOL    HW239514   4.136   3.081   8.984 -0.3694  0.9453  0.2112
12454SOL     OW39515   6.846   3.593   5.637  0.0465 -0.4003 -0.1433
12454SOL    HW139516   6.865   3.499   5.637  0.8643 -0.2581  1.3068
12454SOL    HW239517   6.840   3.616   5.729  2.5941  1.4982 -0.3613
12455SOL     OW39518   2.536   7.117   7.547  0.9502 -0.2482  0.1939
12455SOL    HW139519   2.601   7.060   7.589  0.1901 -1.2204  0.0984
12455SOL    HW239520   2.475   7.139   7.618  0.6139 -0.4867 -0.0197
12456SOL     OW39521   4.523   5.793   3.661 -0.1175 -0.2918  0.4339
12456SOL    HW139522   4.508   5.797   3.755 -0.7588 -0.1785  0.3292
12456SOL    HW239523   4.473   5.867   3.625  2.0059  1.1623  0.2294
12457SOL     OW39524   0.305   9.535   8.647 -0.2847 -0.5423  0.0308
12457SOL    HW139525   0.231   9.596   8.648 -0.7119 -1.0406  1.2113
12457SOL    HW239526   0.264   9.448   8.647  0.3107 -0.8309 -0.2768
12458SOL     OW39527   5.158   1.424   2.472 -0.6471 -0.3177  0.1207
12458SOL    HW139528   5.172   1.447   2.381  0.3244  1.3407  0.6522
12458SOL    HW239529   5.215   1.347   2.486  0.8838  0.7236 -0.1510
12459SOL     OW39530   3.367   5.131   2.893  0.3858 -0.4183  0.2499
12459SOL    HW139531   3.313   5.113   2.970  0.8942 -0.9425  0.4883
12459SOL    HW239532   3.357   5.225   2.878  0.0842 -0.3607  0.8052
12460SOL     OW39533   8.672   1.472   4.649  0.5491 -0.3811  0.2164
12460SOL    HW139534   8.705   1.481   4.559  0.7436 -0.8193  0.2393
12460SOL    HW239535   8.750   1.449   4.700  1.0827  2.9081  1.0794
12461SOL     OW39536   9.067   8.025   0.191  0.1996 -0.3260 -0.4357
12461SOL    HW139537   9.092   8.111   0.224 -0.3819 -0.4258  0.3040
12461SOL    HW239538   8.977   8.036   0.162  0.2423 -0.5978 -0.6742
12462SOL     OW39539   3.477   3.266   0.194  0.2386  0.3063  0.4892
12462SOL    HW139540   3.540   3.201   0.164 -0.9566 -1.1766  1.0658
12462SOL    HW239541   3.448   3.310   0.113 -0.0461 -0.9322 -0.1036
12463SOL     OW39542   6.831   1.764   6.501  0.3214 -0.4941  0.0064
12463SOL    HW139543   6.746   1.724   6.519  0.2350  0.4959  2.0861
12463SOL    HW239544   6.891   1.689   6.492 -0.5681 -1.1689 -0.5082
12464SOL     OW39545   8.043   6.431   9.604 -0.3682 -0.1339 -0.5369
12464SOL    HW139546   8.104   6.444   9.677 -1.5887  0.9175  0.3378
12464SOL    HW239547   8.001   6.347   9.624 -0.1683 -0.2078 -0.4245
12465SOL     OW39548   6.405   0.940   5.187  0.5853 -0.0950 -0.0373
12465SOL    HW139549   6.359   0.858   5.204  0.2561  0.2942  1.0326
12465SOL    HW239550   6.403   0.986   5.271  1.4998  0.6425 -0.4050
12466SOL     OW39551   6.928   5.688   6.825  0.2568  0.0317  0.0182
12466SOL    HW139552   6.863   5.618   6.826  0.4832 -0.1751  0.8513
12466SOL    HW239553   7.000   5.654   6.772  1.1464 -1.1179  1.8566
12467SOL     OW39554   2.701   8.478   5.468  0.1311 -1.1109  0.3293
12467SOL    HW139555   2.786   8.495   5.425  0.1424 -3.0668 -0.5555
12467SOL    HW239556   2.637   8.494   5.399 -0.1422 -0.7149  0.6760
12468SOL     OW39557   4.349   2.610   2.372  0.1606  0.3281  0.6033
12468SOL    HW139558   4.327   2.697   2.403 -0.9019 -0.1665  1.3066
12468SOL    HW239559   4.292   2.597   2.296  0.7300  0.4612  0.1506
12469SOL     OW39560   0.169   1.341   6.263  0.0115 -0.5066  0.4556
12469SOL    HW139561   0.254   1.384   6.274  0.2160 -1.0742  1.1472
12469SOL    HW239562   0.132   1.338   6.351  0.1146 -1.9576  0.4805
12470SOL     OW39563   4.782   6.018   1.640  0.0686  0.1381 -0.2514
12470SOL    HW139564   4.744   5.950   1.585  1.0012  0.4442 -1.3094
12470SOL    HW239565   4.821   6.080   1.578  1.7034  0.1727  0.7447
12471SOL     OW39566   5.940   3.506   2.170 -0.4586  0.6754 -0.3428
12471SOL    HW139567   5.905   3.562   2.239  0.5024  1.1843 -0.2456
12471SOL    HW239568   5.959   3.565   2.097  0.9551  0.5882 -0.0914
12472SOL     OW39569   9.498   3.062   7.018  0.3375  0.2472  0.0244
12472SOL    HW139570   9.407   3.084   7.038  0.0171  0.1127 -1.2463
12472SOL    HW239571   9.503   3.061   6.923  1.6700  0.2311  0.0692
12473SOL     OW39572   8.866   8.246   2.578  0.0946 -0.5869 -0.1445
12473SOL    HW139573   8.882   8.187   2.505  1.3526 -0.3899 -0.0494
12473SOL    HW239574   8.878   8.192   2.656 -2.3580 -1.0817 -0.0454
12474SOL     OW39575   1.015   8.057   7.406 -0.0801 -0.3102  0.0899
12474SOL    HW139576   1.074   8.112   7.356 -1.0118 -0.7820 -1.5923
12474SOL    HW239577   0.962   8.119   7.457  1.4761  0.1270  1.2324
12475SOL     OW39578   4.037   4.131   3.736 -0.1578 -0.4069 -0.0295
12475SOL    HW139579   4.061   4.092   3.652  0.1724 -2.1900  0.8480
12475SOL    HW239580   4.101   4.201   3.749  0.5237 -0.8743 -0.7452
12476SOL     OW39581   7.470   8.193   9.256 -0.0652  0.2988  0.3088
12476SOL    HW139582   7.390   8.153   9.289 -0.3996  0.7368  0.0500
12476SOL    HW239583   7.501   8.134   9.188 -0.5638  0.4832 -0.0837
12477SOL     OW39584   8.364   0.920   6.977  0.2195 -0.4263 -0.5025
12477SOL    HW139585   8.394   1.011   6.970  1.1578 -0.6590  0.2423
12477SOL    HW239586   8.426   0.879   7.038 -1.3740 -1.0616  0.7668
12478SOL     OW39587   2.787   5.732   9.352  0.1465  0.6708  0.3202
12478SOL    HW139588   2.768   5.647   9.391 -0.3356 -0.2641 -1.8210
12478SOL    HW239589   2.714   5.748   9.292  1.2337  1.6426 -0.8151
12479SOL     OW39590   1.275   1.527   5.213  0.0094 -0.1424 -0.1983
12479SOL    HW139591   1.359   1.563   5.241  1.6987 -3.0953 -1.0694
12479SOL    HW239592   1.294   1.483   5.130 -2.5122 -0.5705 -0.6339
12480SOL     OW39593   1.516   6.769   3.691 -0.0727  0.1785  0.3967
12480SOL    HW139594   1.437   6.748   3.641  1.2571 -1.0906 -1.3045
12480SOL    HW239595   1.527   6.863   3.679 -1.6408  0.5185  1.2310
12481SOL     OW39596   9.521   2.459   3.352  0.6823 -0.4095  0.1927
12481SOL    HW139597   9.616   2.450   3.361  0.8310 -0.4098 -1.0740
12481SOL    HW239598   9.509   2.540   3.302 -0.0473  0.1221  1.1981
12482SOL     OW39599   7.807   7.249   3.677 -0.5632  0.1855 -0.8229
12482SOL    HW139600   7.752   7.239   3.755  0.5716 -0.4395 -0.0817
12482SOL    HW239601   7.818   7.160   3.645  0.8353  0.1794 -0.3729
12483SOL     OW39602   6.171   8.263   2.371 -1.2382 -0.2251 -0.4438
12483SOL    HW139603   6.254   8.308   2.389 -0.9976 -1.1002  0.7252
12483SOL    HW239604   6.149   8.220   2.453 -2.6725 -0.3207 -0.8536
12484SOL     OW39605   9.178   8.782   3.779 -0.7053 -0.0472  0.2835
12484SOL    HW139606   9.183   8.759   3.871 -0.6566 -1.6018 -0.0759
12484SOL    HW239607   9.096   8.742   3.748 -0.0381 -0.7435 -0.6436
12485SOL     OW39608   6.162   5.434   0.740  0.4157 -0.5655  0.2423
12485SOL    HW139609   6.119   5.516   0.715  0.7343 -0.0002  1.4694
12485SOL    HW239610   6.128   5.415   0.827  0.5195 -1.6274  0.0607
12486SOL     OW39611   9.058   8.485   1.910 -0.0730  0.0057 -0.3349
12486SOL    HW139612   8.991   8.420   1.891  0.1929 -0.3226 -0.1551
12486SOL    HW239613   9.066   8.485   2.005  0.8573 -0.6573 -0.3935
12487SOL     OW39614   6.149   2.537   0.586  0.6185  0.3182  0.7180
12487SOL    HW139615   6.077   2.584   0.628 -0.1185 -0.3104  0.1692
12487SOL    HW239616   6.136   2.550   0.492  0.8518 -0.3272  0.5895
12488SOL     OW39617   8.027   1.981   2.516  0.0636 -0.0323  0.4109
12488SOL    HW139618   8.045   2.073   2.496  1.5182 -0.1746  0.9553
12488SOL    HW239619   7.996   1.982   2.607  1.5937 -0.2087  0.9607
12489SOL     OW39620   7.294   0.031   5.537  0.0608 -0.2192  0.0578
12489SOL    HW139621   7.259  -0.059   5.534  1.5186 -0.8037 -0.1645
12489SOL    HW239622   7.277   0.066   5.450 -0.0988 -0.4412 -0.0018
12490SOL     OW39623   7.853   7.747   8.291 -0.0643 -0.0659  0.3195
12490SOL    HW139624   7.863   7.733   8.386 -0.5302  0.3918  0.4440
12490SOL    HW239625   7.838   7.842   8.283  1.0751  0.0668 -0.3134
12491SOL     OW39626   8.485   4.072   5.769 -0.1823  0.2448 -0.3115
12491SOL    HW139627   8.498   3.977   5.767 -1.3281  0.0800 -0.7083
12491SOL    HW239628   8.550   4.107   5.708  2.5054  0.0561  2.1668
12492SOL     OW39629   1.349   8.267   0.495  0.2574 -0.4218  0.0667
12492SOL    HW139630   1.289   8.320   0.443 -0.0884  0.6401  1.4847
12492SOL    HW239631   1.426   8.322   0.508  0.4015 -0.7266  0.5489
12493SOL     OW39632   7.338   2.424   8.699  0.2873  0.5056  0.2566
12493SOL    HW139633   7.270   2.484   8.730 -0.7768  0.4644 -1.8601
12493SOL    HW239634   7.324   2.344   8.750  0.4423  1.3392  1.6706
12494SOL     OW39635   1.850   7.754   2.341  0.3056 -0.7699 -0.0232
12494SOL    HW139636   1.803   7.808   2.278  1.3105  0.3079  0.1302
12494SOL    HW239637   1.816   7.665   2.327 -1.5648 -0.0814 -0.0893
12495SOL     OW39638   1.825   0.927   6.610  0.0307 -0.4682 -0.0731
12495SOL    HW139639   1.814   0.839   6.574  1.6065 -0.7084 -0.0618
12495SOL    HW239640   1.799   0.919   6.702 -2.2460 -0.2901 -0.6567
12496SOL     OW39641   2.530   5.928   7.147  0.0770  0.1302 -0.7660
12496SOL    HW139642   2.553   5.949   7.057 -0.4414  1.2084 -0.6589
12496SOL    HW239643   2.596   5.975   7.200 -2.4464  3.7363 -0.4276
12497SOL     OW39644   4.950   5.066   7.950  0.2636  0.1806 -0.4312
12497SOL    HW139645   4.937   5.159   7.936  0.0116  0.2768  0.4299
12497SOL    HW239646   4.929   5.051   8.042  0.6412 -0.6634 -0.4659
12498SOL     OW39647   7.877   1.776   8.995 -0.0342 -0.1071  0.0029
12498SOL    HW139648   7.912   1.723   9.067  2.1671  0.2760 -0.6952
12498SOL    HW239649   7.865   1.863   9.032 -1.1566 -0.4549  0.4827
12499SOL     OW39650   8.721   4.711   1.401  0.8187  0.4501  0.0608
12499SOL    HW139651   8.787   4.773   1.431  1.2793  0.1430 -0.3024
12499SOL    HW239652   8.706   4.654   1.477 -0.1833  1.4755  0.6505
12500SOL     OW39653   0.555   7.251   4.169  0.7576 -0.4067  0.7563
12500SOL    HW139654   0.602   7.270   4.088  0.7463 -0.8683  0.6358
12500SOL    HW239655   0.463   7.264   4.148  0.8346  0.7555  1.0650
12501SOL     OW39656   1.263   5.486   6.222 -0.5875  0.3293  0.4636
12501SOL    HW139657   1.205   5.559   6.243  0.6985  1.5090  0.0651
12501SOL    HW239658   1.231   5.413   6.276 -1.4611  1.3828  1.4101
12502SOL     OW39659   0.647   1.400   7.916 -0.0287  1.0220 -0.3040
12502SOL    HW139660   0.728   1.356   7.945 -0.1209 -0.1182 -1.6403
12502SOL    HW239661   0.581   1.371   7.978  0.1674  0.2127 -0.4542
12503SOL     OW39662   2.946   6.640   5.747 -0.0684 -0.4748  0.5410
12503SOL    HW139663   2.998   6.719   5.736 -1.3784  0.2280 -0.9838
12503SOL    HW239664   3.003   6.580   5.795  1.7371  0.6128 -0.1747
12504SOL     OW39665   9.612   0.564   6.810  0.4676  0.4908 -0.4618
12504SOL    HW139666   9.665   0.521   6.743  1.4433  2.2142 -0.8770
12504SOL    HW239667   9.542   0.606   6.760  0.0646  0.1629 -0.1739
12505SOL     OW39668   4.012   5.011   4.785 -0.2496  0.0355  0.7421
12505SOL    HW139669   4.050   4.924   4.801 -0.0398  0.0829  0.5142
12505SOL    HW239670   3.918   4.997   4.791 -0.4198 -0.8895 -2.3757
12506SOL     OW39671   9.528   4.280   9.583 -0.4173 -0.3584 -0.2453
12506SOL    HW139672   9.458   4.325   9.631 -0.3552 -0.8488  0.3215
12506SOL    HW239673   9.499   4.280   9.492 -0.3928  0.8731 -0.2736
12507SOL     OW39674   2.326   7.609   1.431 -0.5220 -0.2948 -0.0201
12507SOL    HW139675   2.248   7.655   1.462  0.0967  0.7480  0.0212
12507SOL    HW239676   2.298   7.565   1.351 -1.4848 -1.0030  0.6870
12508SOL     OW39677   9.178   9.170   0.165 -0.4149  0.1957  0.3076
12508SOL    HW139678   9.192   9.102   0.099 -4.2487  1.3803 -2.1223
12508SOL    HW239679   9.178   9.123   0.248  0.9996 -2.0343 -0.8428
12509SOL     OW39680   5.479   0.742   0.601  0.5069  0.4474 -0.2659
12509SOL    HW139681   5.561   0.790   0.611  0.2366  0.7197  0.8001
12509SOL    HW239682   5.436   0.749   0.687  1.4880 -3.6366  0.7713
12510SOL     OW39683   6.757   3.102   7.330  0.5625 -0.1729 -0.1862
12510SOL    HW139684   6.730   3.185   7.291 -2.8122 -0.8101  0.4924
12510SOL    HW239685   6.819   3.066   7.267 -1.8372  0.5104 -3.2222
12511SOL     OW39686   2.848   7.997   2.568  0.7811  0.0121 -0.4396
12511SOL    HW139687   2.780   7.943   2.609 -0.0571  2.4145  1.6564
12511SOL    HW239688   2.825   7.999   2.476 -0.2706 -1.5797 -0.2543
12512SOL     OW39689   1.902   0.766   6.143  0.2342 -0.1441  0.0804
12512SOL    HW139690   1.836   0.818   6.190  1.3863  0.3634  1.1761
12512SOL    HW239691   1.954   0.831   6.095 -1.3659 -0.6865 -2.6133
12513SOL     OW39692   7.127   5.892   8.647 -0.8188  0.0689 -0.2541
12513SOL    HW139693   7.144   5.974   8.600 -1.1047  0.4454  0.2856
12513SOL    HW239694   7.209   5.873   8.693  0.1340 -1.3210 -2.3597
12514SOL     OW39695   5.146   5.695   5.935 -0.3395  0.2996  0.4858
12514SOL    HW139696   5.211   5.758   5.968 -0.7992  2.1973 -1.9053
12514SOL    HW239697   5.198   5.621   5.903  0.6721  1.5399 -0.8722
12515SOL     OW39698   8.087   8.307   6.594  0.0658 -0.4520 -0.6386
12515SOL    HW139699   8.021   8.251   6.552 -1.6423  0.2589  0.9455
12515SOL    HW239700   8.116   8.366   6.524 -0.7620 -0.9796 -1.4516
12516SOL     OW39701   9.576   2.089   6.481 -0.6040  0.3467  0.0932
12516SOL    HW139702   9.657   2.072   6.529 -1.1828  0.7313  1.2332
12516SOL    HW239703   9.605   2.124   6.397  0.4226 -0.0437  0.2663
12517SOL     OW39704   9.022   2.253   5.585 -0.6395 -0.1571 -0.1741
12517SOL    HW139705   8.985   2.171   5.552  0.1291 -0.9323  0.7967
12517SOL    HW239706   9.008   2.249   5.679 -1.2586  1.2026 -0.1882
12518SOL     OW39707   4.537   3.369   2.905  0.0645  0.1519 -0.0260
12518SOL    HW139708   4.535   3.380   3.000  1.8309 -1.2373  0.2268
12518SOL    HW239709   4.476   3.297   2.889 -0.5821  0.6905 -0.0068
12519SOL     OW39710   9.315   5.868   0.486 -0.2635  0.0871  0.4649
12519SOL    HW139711   9.359   5.952   0.501 -1.3239  0.8336 -0.4123
12519SOL    HW239712   9.343   5.841   0.399 -0.1624 -0.3267  0.6238
12520SOL     OW39713   1.616   0.860   8.458 -0.4071 -0.1962 -0.2543
12520SOL    HW139714   1.533   0.816   8.439 -1.2082  1.1819 -0.0949
12520SOL    HW239715   1.639   0.830   8.546  0.6671 -2.6186 -1.2762
12521SOL     OW39716   3.872   5.137   0.297  0.4844  0.1991 -0.5854
12521SOL    HW139717   3.849   5.214   0.349 -0.7180  0.1738 -1.0419
12521SOL    HW239718   3.958   5.158   0.260 -0.4637  2.0146 -1.9417
12522SOL     OW39719   2.997   4.899   2.768  0.0261 -0.0743 -0.7160
12522SOL    HW139720   2.954   4.856   2.841  3.9418 -0.5299  1.6258
12522SOL    HW239721   2.992   4.837   2.696 -2.3578 -0.3862 -0.3523
12523SOL     OW39722   6.264   7.848   8.498  0.2027 -0.4532  0.0946
12523SOL    HW139723   6.260   7.870   8.404 -1.2634 -1.0113 -0.0041
12523SOL    HW239724   6.354   7.821   8.512  0.0176 -2.1884 -1.6074
12524SOL     OW39725   1.507   0.633   2.704 -0.3863 -0.8037 -0.1744
12524SOL    HW139726   1.426   0.622   2.753 -1.4994  1.4957 -1.2951
12524SOL    HW239727   1.561   0.689   2.760  0.8105 -2.9399  0.9007
12525SOL     OW39728   6.137   8.226   6.465  0.3419  0.0587  0.3651
12525SOL    HW139729   6.212   8.264   6.511  0.0387 -0.6780  1.5031
12525SOL    HW239730   6.072   8.297   6.463  1.6481  1.3078 -2.2122
12526SOL     OW39731   3.536   4.188   0.225 -0.1676  0.0979 -1.1353
12526SOL    HW139732   3.480   4.221   0.155 -1.3353  0.3021 -0.1402
12526SOL    HW239733   3.602   4.256   0.237 -0.0134  0.1068 -1.9494
12527SOL     OW39734   3.905   1.816   8.484 -1.4710  0.4899 -0.3391
12527SOL    HW139735   3.964   1.776   8.421 -2.5367 -2.9953  0.6690
12527SOL    HW239736   3.941   1.792   8.570 -4.4101 -2.1326  0.3138
12528SOL     OW39737   1.972   5.855   2.924  0.3751 -0.1405 -0.7544
12528SOL    HW139738   1.882   5.826   2.907  0.5541 -1.1939 -0.0497
12528SOL    HW239739   2.008   5.874   2.838  0.2050 -2.0519 -1.3022
12529SOL     OW39740   9.477   7.914   4.627 -0.5011 -0.1238  0.5206
12529SOL    HW139741   9.447   7.963   4.703 -0.6379 -0.5164  0.7216
12529SOL    HW239742   9.432   7.955   4.553  0.9343  1.3749  0.4156
12530SOL     OW39743   3.850   4.233   8.559 -0.2857  0.4042 -0.4353
12530SOL    HW139744   3.942   4.220   8.538 -0.9942 -0.9218 -3.3371
12530SOL    HW239745   3.818   4.291   8.489 -1.8830 -0.1849 -0.2399
12531SOL     OW39746   7.878   7.609   3.292 -0.2190  0.1067 -0.2925
12531SOL    HW139747   7.853   7.609   3.200  0.6888 -0.6406 -0.5502
12531SOL    HW239748   7.828   7.537   3.331  0.5715 -0.5912 -0.5455
12532SOL     OW39749   5.439   8.448   7.831 -0.6915 -0.4589 -0.6606
12532SOL    HW139750   5.414   8.463   7.922  1.2107 -4.2531  0.6898
12532SOL    HW239751   5.508   8.513   7.814 -1.3642  0.5760  0.4448
12533SOL     OW39752   2.478   1.290   5.034  0.0948  0.1656  0.6464
12533SOL    HW139753   2.570   1.288   5.008  0.2174  0.1577  1.0614
12533SOL    HW239754   2.480   1.322   5.125 -0.3968  1.2485  0.2902
12534SOL     OW39755   4.985   8.833   2.097  0.3479  0.0357 -0.5240
12534SOL    HW139756   5.065   8.788   2.122  0.6484  1.3037  1.0061
12534SOL    HW239757   4.959   8.794   2.014  1.4227 -1.8133 -0.0341
12535SOL     OW39758   6.241   8.289   6.925  0.4623  0.1756 -0.6330
12535SOL    HW139759   6.147   8.304   6.936  0.0725 -0.8009 -2.2647
12535SOL    HW239760   6.253   8.196   6.946  1.7570  1.0289  3.1478
12536SOL     OW39761   5.869   5.037   5.945  0.4277  0.6569  0.5635
12536SOL    HW139762   5.815   5.106   5.907  0.5250  0.2806 -0.2749
12536SOL    HW239763   5.957   5.054   5.913  0.5020  0.3049  0.5720
12537SOL     OW39764   9.617   1.363   5.515  0.0555 -0.2197 -0.1220
12537SOL    HW139765   9.601   1.323   5.601 -0.9704  2.0762  0.8553
12537SOL    HW239766   9.712   1.378   5.514 -0.1248  1.4179  1.4956
12538SOL     OW39767   3.315   3.366   1.216  0.3959 -0.9204  0.7029
12538SOL    HW139768   3.362   3.418   1.281  1.2805 -1.4731  0.5212
12538SOL    HW239769   3.383   3.324   1.164 -0.2906 -1.7369  0.4242
12539SOL     OW39770   9.051   3.691   8.039 -0.4591  0.3632 -0.1046
12539SOL    HW139771   9.086   3.602   8.035 -0.6225  0.3322 -1.1459
12539SOL    HW239772   9.096   3.731   8.113  0.4074 -0.2545 -0.2778
12540SOL     OW39773   7.133   8.230   6.623  0.1355 -0.5818  0.1263
12540SOL    HW139774   7.058   8.184   6.584  0.8881  0.2053 -2.4586
12540SOL    HW239775   7.103   8.321   6.630  0.6343 -0.3732 -0.3822
12541SOL     OW39776   4.022   0.717   1.974 -0.4345  0.3833  0.6037
12541SOL    HW139777   4.014   0.750   2.064 -3.4785 -0.6554  0.8318
12541SOL    HW239778   3.996   0.791   1.919  0.6822  0.7834  0.5940
12542SOL     OW39779   1.133   6.471   8.591  0.0733  0.0069  0.1345
12542SOL    HW139780   1.085   6.389   8.598  0.1921 -0.1075 -0.3626
12542SOL    HW239781   1.089   6.530   8.653  0.2011 -0.5240  0.7426
12543SOL     OW39782   6.227   6.734   1.703 -0.2119  0.2488  0.2159
12543SOL    HW139783   6.148   6.703   1.660  0.2885 -0.3571 -0.2821
12543SOL    HW239784   6.230   6.685   1.785  1.2508 -2.0728 -1.1298
12544SOL     OW39785   6.878   2.407   2.223  0.1205  0.5409  0.3790
12544SOL    HW139786   6.867   2.347   2.297  1.8023  0.3694  0.5325
12544SOL    HW239787   6.849   2.356   2.147 -0.2313  0.1983  0.7370
12545SOL     OW39788   1.736   3.024   0.291 -0.3506  0.3468  0.6654
12545SOL    HW139789   1.732   2.966   0.366  0.4368 -1.1225 -0.3827
12545SOL    HW239790   1.814   3.078   0.306 -0.7677  0.7733  1.3663
12546SOL     OW39791   8.372   7.596   4.049  0.0977 -0.3716 -0.0398
12546SOL    HW139792   8.457   7.604   4.092 -1.3903  1.6262  2.8613
12546SOL    HW239793   8.370   7.669   3.987 -0.6617  1.8369  2.3877
12547SOL     OW39794   5.708   8.644   9.483 -0.1768 -0.0600  0.8655
12547SOL    HW139795   5.772   8.684   9.425 -1.7457  0.2438 -0.7503
12547SOL    HW239796   5.624   8.655   9.438 -1.1703 -1.8503  2.1355
12548SOL     OW39797   3.730   4.360   8.351  0.1457 -0.3404 -0.4230
12548SOL    HW139798   3.739   4.295   8.281  0.1404 -0.4754 -0.2985
12548SOL    HW239799   3.697   4.438   8.307 -1.5384 -0.9490 -0.3038
12549SOL     OW39800   8.150   6.560   6.783  0.3096  0.6223 -0.1955
12549SOL    HW139801   8.091   6.485   6.786  1.7357 -0.6242 -1.5239
12549SOL    HW239802   8.126   6.613   6.859 -1.0913 -0.9041  0.4787
12550SOL     OW39803   9.518   9.629   3.184  0.0132  0.3731  0.0444
12550SOL    HW139804   9.557   9.651   3.268  0.0067 -0.1793  0.1955
12550SOL    HW239805   9.567   9.553   3.153 -0.1990  0.3684 -0.2932
12551SOL     OW39806   2.055   5.530   3.598 -0.1125  0.1036  0.0098
12551SOL    HW139807   2.094   5.478   3.529  1.9227 -1.3148  2.0718
12551SOL    HW239808   1.969   5.555   3.564  0.7711 -0.4968 -2.9649
12552SOL     OW39809   5.459   5.039   0.672 -0.1164 -0.0187  0.3647
12552SOL    HW139810   5.530   5.083   0.720 -0.2198  0.1538  0.3611
12552SOL    HW239811   5.403   5.111   0.642  0.1997 -0.0892 -0.4119
12553SOL     OW39812   2.831   6.552   5.117 -0.3613  0.0395 -0.1464
12553SOL    HW139813   2.782   6.605   5.055 -0.1202  2.2470  1.4096
12553SOL    HW239814   2.911   6.602   5.133  0.5666 -1.5225  0.3445
12554SOL     OW39815   6.137   8.504   8.425 -0.6158 -0.4737  0.8110
12554SOL    HW139816   6.086   8.544   8.355  1.5913  2.3399  0.5855
12554SOL    HW239817   6.202   8.450   8.380  0.3615  0.7848  0.6460
12555SOL     OW39818   3.851   5.987   4.908 -0.3287  0.2836  0.2993
12555SOL    HW139819   3.790   6.017   4.976 -2.5804 -0.5555 -1.2440
12555SOL    HW239820   3.916   5.934   4.956 -1.2130  0.6024  1.9242
12556SOL     OW39821   4.824   8.038   4.084 -0.3711  0.4924 -0.2116
12556SOL    HW139822   4.904   8.039   4.137 -1.1914  2.1329  1.1114
12556SOL    HW239823   4.835   7.964   4.025  1.9097  0.3801  0.2522
12557SOL     OW39824   0.709   7.167   2.404 -0.0874  0.1417  0.4525
12557SOL    HW139825   0.771   7.199   2.470 -0.9755  0.7661  1.0281
12557SOL    HW239826   0.641   7.122   2.455 -0.0232 -0.6855 -0.1754
12558SOL     OW39827   9.506   0.333   1.912  0.0562 -0.2997 -0.1698
12558SOL    HW139828   9.601   0.328   1.922 -0.0714 -1.0538  0.7935
12558SOL    HW239829   9.471   0.291   1.990 -1.0768 -0.9045 -0.9704
12559SOL     OW39830   0.243   0.001   1.826 -0.2908  0.5916  0.4165
12559SOL    HW139831   0.321   0.055   1.840 -1.5982  2.5115  0.6659
12559SOL    HW239832   0.181   0.030   1.893 -0.8616 -1.7259  1.0101
12560SOL     OW39833   1.837   7.162   9.321  0.6943 -0.5636 -0.3759
12560SOL    HW139834   1.858   7.224   9.391  1.5205  0.3076 -1.3676
12560SOL    HW239835   1.920   7.121   9.299  0.2632 -1.5761 -0.1821
12561SOL     OW39836   6.629   6.136   5.559  0.2337 -0.2303  0.4383
12561SOL    HW139837   6.537   6.119   5.581  0.1218  0.9207  0.9672
12561SOL    HW239838   6.678   6.089   5.627  0.0099 -0.1823  0.6381
12562SOL     OW39839   1.522   0.310   1.966  0.5527 -0.5246  0.1339
12562SOL    HW139840   1.513   0.236   2.026  1.2889  0.3569  1.3981
12562SOL    HW239841   1.535   0.271   1.880  0.6765 -1.8568  0.7335
12563SOL     OW39842   2.912   3.459   6.467  0.3552 -0.2293  0.0206
12563SOL    HW139843   2.879   3.440   6.554  1.0885 -0.9522  0.1536
12563SOL    HW239844   2.991   3.406   6.459 -0.5607 -1.4368 -1.6918
12564SOL     OW39845   8.313   0.477   3.635 -0.1813  0.2756 -0.2385
12564SOL    HW139846   8.217   0.479   3.640 -0.2492 -1.9248  0.1726
12564SOL    HW239847   8.333   0.404   3.576  1.2570 -0.5845  1.2416
12565SOL     OW39848   2.090   8.835   4.877 -0.1525  0.5749  0.0082
12565SOL    HW139849   2.087   8.810   4.970  0.6889  0.3607 -0.0165
12565SOL    HW239850   2.172   8.798   4.845 -0.9465 -0.2845 -1.1030
12566SOL     OW39851   5.547   1.721   7.878 -0.0962 -0.3898 -0.1465
12566SOL    HW139852   5.544   1.685   7.967 -2.8268 -1.3622 -0.5238
12566SOL    HW239853   5.526   1.646   7.822 -0.3890  0.6259 -1.4332
12567SOL     OW39854   0.830   7.350   9.482  0.6948  0.3293 -0.6664
12567SOL    HW139855   0.894   7.367   9.412  2.1903 -3.1649 -0.3596
12567SOL    HW239856   0.879   7.369   9.563 -0.1181  1.6441 -0.4483
12568SOL     OW39857   4.821   6.171   9.509  0.6340  0.6728  0.0269
12568SOL    HW139858   4.765   6.248   9.501 -0.3570 -0.0737 -0.4935
12568SOL    HW239859   4.783   6.122   9.582 -0.5279 -0.7104 -1.4330
12569SOL     OW39860   8.662   0.845   6.579 -0.1037  0.3840 -0.3807
12569SOL    HW139861   8.745   0.811   6.548  0.2001 -0.5942  1.3649
12569SOL    HW239862   8.606   0.847   6.502  2.2067  3.5341 -2.2271
12570SOL     OW39863   3.163   5.922   3.360 -0.6247 -0.4266  0.7121
12570SOL    HW139864   3.123   5.877   3.286 -2.7258  2.2704  0.0702
12570SOL    HW239865   3.218   5.990   3.321  2.0918 -1.8759  1.6693
12571SOL     OW39866   0.257   2.754   3.075  0.0307  0.2348  0.3010
12571SOL    HW139867   0.226   2.727   3.162 -0.5379  0.5207  0.1944
12571SOL    HW239868   0.308   2.679   3.044 -1.1326 -0.5484  0.2003
12572SOL     OW39869   0.404   9.453   6.299  0.5104  0.1942 -0.2188
12572SOL    HW139870   0.361   9.372   6.327  0.1450  0.9659  1.6377
12572SOL    HW239871   0.437   9.434   6.212 -0.0723 -1.7608 -0.0632
12573SOL     OW39872   6.004   0.375   4.466  0.7734  0.0055 -1.0645
12573SOL    HW139873   5.912   0.390   4.442  1.0199  2.0465 -0.8779
12573SOL    HW239874   6.041   0.462   4.475  2.0836 -0.7303  1.4551
12574SOL     OW39875   5.022   1.716   0.553  0.3615 -0.8801 -0.0621
12574SOL    HW139876   4.961   1.773   0.600 -0.3675 -0.8946 -0.9600
12574SOL    HW239877   5.108   1.738   0.589  0.5126  2.8240 -2.2370
12575SOL     OW39878   8.544   4.649   4.999 -0.6320 -0.1543  0.7915
12575SOL    HW139879   8.614   4.714   4.990  0.0040 -0.6377  2.0898
12575SOL    HW239880   8.534   4.613   4.911 -1.0710  1.7496 -0.0060
12576SOL     OW39881   4.593   4.223   0.225 -0.1766  0.1923  0.2144
12576SOL    HW139882   4.641   4.182   0.297  1.5881  1.8216  0.0575
12576SOL    HW239883   4.501   4.207   0.245  0.3269 -0.8694  1.9066
12577SOL     OW39884   3.934   1.714   5.638  0.3311 -0.4710 -0.1155
12577SOL    HW139885   3.845   1.714   5.603  0.0854  0.6127  0.4463
12577SOL    HW239886   3.927   1.668   5.721  0.1576  0.1251  0.2093
12578SOL     OW39887   2.612   8.815   2.086 -0.1759 -0.9106  0.0996
12578SOL    HW139888   2.574   8.734   2.051 -2.1367 -0.9075  1.9668
12578SOL    HW239889   2.560   8.834   2.165  0.0193  2.2984 -0.3797
12579SOL     OW39890   6.501   5.148   5.618  0.1423  0.1760  0.0230
12579SOL    HW139891   6.460   5.062   5.623  1.2197 -0.3525  0.1320
12579SOL    HW239892   6.594   5.129   5.602  0.0590  1.3618 -2.2424
12580SOL     OW39893   8.919   9.417   1.926  0.6585 -0.1752  0.2086
12580SOL    HW139894   9.011   9.435   1.947  0.3603 -0.4715  1.8700
12580SOL    HW239895   8.899   9.336   1.973 -0.3304 -0.3766 -0.5290
12581SOL     OW39896   0.012   4.109   5.488 -0.2869 -0.2961  0.2778
12581SOL    HW139897   0.107   4.114   5.501  0.0725  0.6276 -2.1240
12581SOL    HW239898  -0.022   4.189   5.529  0.2584  0.4422 -0.6692
12582SOL     OW39899   2.278   8.373   1.414  0.0408  0.0820  0.0810
12582SOL    HW139900   2.336   8.448   1.411  1.0931 -0.5122  2.7804
12582SOL    HW239901   2.333   8.300   1.442 -1.4538 -1.1555 -0.0132
12583SOL     OW39902   2.982   2.183   2.337 -0.0466 -0.2457 -0.0346
12583SOL    HW139903   2.897   2.164   2.298  0.2340  0.7394 -1.1680
12583SOL    HW239904   3.040   2.116   2.302  0.2714  0.8106 -1.6186
12584SOL     OW39905   2.236   0.349   1.599  0.4947  0.1911  0.9189
12584SOL    HW139906   2.317   0.394   1.621  0.2001  0.9136  0.5330
12584SOL    HW239907   2.235   0.344   1.504  0.7031 -0.9788  0.9565
12585SOL     OW39908   8.592   3.445   8.678  0.0605  0.0570  0.6609
12585SOL    HW139909   8.665   3.474   8.733  0.5534 -1.2990  0.7650
12585SOL    HW239910   8.631   3.382   8.617 -1.1779 -1.5267  1.4203
12586SOL     OW39911   1.354   6.037   1.736 -0.2420  0.0907  0.4477
12586SOL    HW139912   1.306   6.108   1.693 -0.0183 -0.8143 -1.4016
12586SOL    HW239913   1.408   5.999   1.667 -1.6952 -3.0793  0.8415
12587SOL     OW39914   2.092   7.796   1.424  0.0505  0.0828  0.1970
12587SOL    HW139915   2.006   7.803   1.464  0.3691 -2.5448  1.5480
12587SOL    HW239916   2.079   7.737   1.350  0.4653  0.6688 -0.3482
12588SOL     OW39917   6.291   2.789   0.649  0.3693 -0.2381 -0.3373
12588SOL    HW139918   6.242   2.715   0.615  0.9285 -0.2173 -1.2036
12588SOL    HW239919   6.287   2.779   0.744 -0.3261 -0.8706 -0.4325
12589SOL     OW39920   1.522   0.137   3.955 -0.0291  0.1429 -0.0019
12589SOL    HW139921   1.431   0.107   3.955 -0.2444  0.7954  0.3565
12589SOL    HW239922   1.553   0.119   3.866 -0.5439  0.0396 -0.1604
12590SOL     OW39923   7.645   4.382   8.143 -0.4926 -0.1074 -0.4666
12590SOL    HW139924   7.676   4.459   8.096 -0.8398 -0.0486 -0.6043
12590SOL    HW239925   7.636   4.315   8.075  1.7476 -0.8897 -0.0519
12591SOL     OW39926   8.520   7.299   4.213  0.0213  0.4517  0.6967
12591SOL    HW139927   8.579   7.360   4.256 -0.7037  1.3290  0.4810
12591SOL    HW239928   8.453   7.280   4.279  0.2200 -0.0829  0.7486
12592SOL     OW39929   9.078   8.250   1.187  0.3618 -1.0046  0.0496
12592SOL    HW139930   9.174   8.246   1.187  0.3651 -0.9459 -0.4668
12592SOL    HW239931   9.058   8.331   1.235  0.6819  0.9564 -2.8308
12593SOL     OW39932   5.639   7.814   9.139  0.1490  0.7586  0.3201
12593SOL    HW139933   5.607   7.760   9.211  0.6663 -0.7751 -0.5505
12593SOL    HW239934   5.564   7.869   9.115 -1.1038 -1.0317 -0.0775
12594SOL     OW39935   8.710   1.669   6.055 -0.4094  0.0143  0.5452
12594SOL    HW139936   8.703   1.675   5.959  1.7807 -0.3130  0.3184
12594SOL    HW239937   8.710   1.760   6.085  0.4777  0.1805  0.0721
12595SOL     OW39938   0.758   9.570   8.160  0.3015  0.1096  0.0898
12595SOL    HW139939   0.815   9.645   8.175  1.5165 -0.6824 -0.4769
12595SOL    HW239940   0.673   9.609   8.139  0.2636  1.3013  2.1399
12596SOL     OW39941   4.439   7.699   9.419  0.8235  0.0558  0.3337
12596SOL    HW139942   4.503   7.736   9.480  2.5609 -2.0933 -0.0912
12596SOL    HW239943   4.491   7.660   9.349 -0.8645 -2.5071  0.3671
12597SOL     OW39944   0.624   1.922   6.233  0.8089 -0.0928 -0.3529
12597SOL    HW139945   0.606   2.010   6.265  0.6907  0.1793 -1.1487
12597SOL    HW239946   0.719   1.912   6.238  0.9925  0.6744 -1.7238
12598SOL     OW39947   0.223   9.494   2.785 -0.4775  0.2770  0.1518
12598SOL    HW139948   0.309   9.457   2.807  0.5735  1.7752 -1.1531
12598SOL    HW239949   0.198   9.545   2.862  1.1731  2.0764 -0.4162
12599SOL     OW39950   6.261   0.810   9.490  0.1602  0.6681  0.3578
12599SOL    HW139951   6.200   0.825   9.562 -0.6594  0.4965 -0.2814
12599SOL    HW239952   6.283   0.717   9.496 -0.3024  0.5377  0.0965
12600SOL     OW39953   9.501   5.730   3.012  0.1065 -0.1837 -0.0001
12600SOL    HW139954   9.423   5.711   3.063 -0.2421  0.3212 -0.3329
12600SOL    HW239955   9.484   5.690   2.927  0.7390 -1.1318  0.3041
12601SOL     OW39956   9.252   7.863   8.706 -0.0874 -0.7780 -0.6868
12601SOL    HW139957   9.176   7.908   8.670 -0.1292 -0.1103  0.2097
12601SOL    HW239958   9.325   7.921   8.689 -0.0764 -0.5528  0.1103
12602SOL     OW39959   4.724   1.921   8.050 -0.2536 -0.0623  0.1008
12602SOL    HW139960   4.796   1.861   8.067  0.2595  0.8121  1.1256
12602SOL    HW239961   4.645   1.868   8.060  0.2135 -0.8517 -0.2878
12603SOL     OW39962   7.489   9.251   3.690  0.1574  0.1071 -0.5161
12603SOL    HW139963   7.558   9.202   3.646  0.3487  1.2975 -1.5913
12603SOL    HW239964   7.449   9.187   3.749  2.3107 -0.5581  0.3204
12604SOL     OW39965   4.899   8.767   3.329  0.3254 -0.4766  0.2757
12604SOL    HW139966   4.840   8.842   3.320  0.6465 -0.1242  1.0179
12604SOL    HW239967   4.984   8.806   3.346  0.7637 -0.9926 -0.6774
12605SOL     OW39968   5.015   3.389   6.668  0.2057  0.1148  0.1764
12605SOL    HW139969   5.078   3.397   6.739 -1.8149  0.3404  2.0688
12605SOL    HW239970   4.975   3.303   6.681 -0.2666  0.1889 -0.6579
12606SOL     OW39971   4.469   9.632   7.307 -0.2210 -0.4614  0.2811
12606SOL    HW139972   4.386   9.606   7.267  0.4907 -2.4603 -0.0012
12606SOL    HW239973   4.452   9.718   7.345 -2.4596 -0.9132  0.3852
12607SOL     OW39974   2.800   5.945   2.616  0.1218  0.3629 -0.0549
12607SOL    HW139975   2.785   5.891   2.539  1.3354 -1.0837  0.6759
12607SOL    HW239976   2.863   6.011   2.588  0.0988  0.2163 -0.4555
12608SOL     OW39977   4.057   1.327   0.174 -0.0478 -0.2169  0.0861
12608SOL    HW139978   4.068   1.406   0.122  0.3365  0.1417  0.6983
12608SOL    HW239979   3.964   1.305   0.165  0.0384 -0.2406 -0.8419
12609SOL     OW39980   0.724   7.497   0.317  0.1877 -0.1591 -0.6032
12609SOL    HW139981   0.778   7.520   0.241  1.5567 -0.4755  0.2523
12609SOL    HW239982   0.704   7.404   0.305  0.0975 -0.1212 -0.7519
12610SOL     OW39983   5.985   5.670   4.134  0.0309 -0.2392 -0.3585
12610SOL    HW139984   5.954   5.760   4.119 -1.9100 -0.9755 -1.1345
12610SOL    HW239985   5.957   5.622   4.056  0.5698 -1.6482  0.2758
12611SOL     OW39986   3.779   0.921   8.788  0.2393  0.1196 -1.5299
12611SOL    HW139987   3.757   0.929   8.696  1.2143 -1.0527 -1.8851
12611SOL    HW239988   3.801   1.011   8.815  0.5803  0.3687 -2.5990
12612SOL     OW39989   0.049   6.145   4.282  0.5698 -0.2194 -0.2549
12612SOL    HW139990   0.089   6.144   4.369  1.5077  0.5968 -0.6507
12612SOL    HW239991   0.066   6.233   4.249  1.0525 -0.8034 -1.6317
12613SOL     OW39992   9.546   4.078   0.276  0.4610 -0.0437 -0.0995
12613SOL    HW139993   9.613   4.063   0.210  0.1934 -1.9049  0.0021
12613SOL    HW239994   9.581   4.040   0.356 -1.2702 -2.5344 -0.3959
12614SOL     OW39995   0.291   9.275   5.801  0.3008 -0.2400 -0.3328
12614SOL    HW139996   0.363   9.238   5.750  0.9019  0.6534 -0.1457
12614SOL    HW239997   0.260   9.202   5.855  0.2242 -0.9643 -1.3315
12615SOL     OW39998   5.227   2.050   6.668 -0.4725  0.0675  0.5182
12615SOL    HW139999   5.142   2.083   6.638 -0.1028  0.0837 -0.5360
12615SOL    HW240000   5.282   2.127   6.676 -0.4902  0.0329  0.9952
12616SOL     OW40001   1.080   9.578   2.525 -0.0128 -0.2973  0.2396
12616SOL    HW140002   1.069   9.485   2.507 -0.8911 -0.1078 -0.2830
12616SOL    HW240003   1.137   9.582   2.602 -0.2817 -1.2696  0.4972
12617SOL     OW40004   2.412   5.063   3.514  0.3376  0.3325  0.2762
12617SOL    HW140005   2.429   5.154   3.489  2.7039 -0.2470 -0.4714
12617SOL    HW240006   2.435   5.012   3.437 -0.4975 -0.9536  0.8488
12618SOL     OW40007   0.926   5.655   9.421  0.1931 -0.3705  0.4261
12618SOL    HW140008   0.980   5.679   9.495  0.0015  1.6810 -0.0361
12618SOL    HW240009   0.918   5.735   9.370  2.1460 -2.1270 -3.0397
12619SOL     OW40010   5.925   2.009   2.029 -0.1234  0.1317 -0.1431
12619SOL    HW140011   5.864   2.070   1.988  0.7370  1.7509  0.8752
12619SOL    HW240012   5.997   2.064   2.059 -0.6627 -0.8698  3.5315
12620SOL     OW40013   1.892   6.197   7.147 -0.4901 -0.5119 -0.6179
12620SOL    HW140014   1.918   6.130   7.084  3.2521  0.4999 -0.3807
12620SOL    HW240015   1.936   6.173   7.228 -0.0363  1.5371 -0.2036
12621SOL     OW40016   2.388   2.358   8.466 -0.2046  0.7953 -0.1839
12621SOL    HW140017   2.297   2.345   8.492 -0.0955 -0.2819 -0.2998
12621SOL    HW240018   2.390   2.333   8.374 -0.2401  2.9734 -0.8459
12622SOL     OW40019   6.892   7.275   4.823 -0.2459 -0.2179 -0.2145
12622SOL    HW140020   6.842   7.355   4.806  1.8142  1.3895  0.7023
12622SOL    HW240021   6.872   7.253   4.914  0.2863  0.1192 -0.0120
12623SOL     OW40022   3.763   0.958   7.400  0.3479 -0.1956  0.3804
12623SOL    HW140023   3.751   0.895   7.471 -0.8398 -3.8950 -2.7507
12623SOL    HW240024   3.857   0.976   7.400  0.8945 -2.5950  1.0372
12624SOL     OW40025   2.644   7.961   3.578  0.1677  0.1666  0.3119
12624SOL    HW140026   2.706   8.014   3.529  1.2634 -1.7345 -0.4718
12624SOL    HW240027   2.568   7.953   3.520  0.5624 -0.2621 -0.1490
12625SOL     OW40028   7.121   4.211   5.959 -0.4141  0.0483 -0.4364
12625SOL    HW140029   7.201   4.164   5.982  0.6099  2.0048  0.2206
12625SOL    HW240030   7.141   4.254   5.876 -0.1877  1.7859  0.4784
12626SOL     OW40031   5.783   5.131   8.797 -0.3358  0.0915  0.1800
12626SOL    HW140032   5.755   5.220   8.821  0.9607  0.4097  0.6140
12626SOL    HW240033   5.725   5.107   8.725 -0.6657  1.3295 -0.0036
12627SOL     OW40034   6.575   7.290   1.102  0.3487  0.3360  0.0545
12627SOL    HW140035   6.553   7.212   1.154  0.2671  0.1485 -0.2581
12627SOL    HW240036   6.521   7.360   1.140 -0.4436 -0.0153 -0.4039
12628SOL     OW40037   8.374   2.492   8.826  0.1175 -0.4880  0.7396
12628SOL    HW140038   8.422   2.418   8.861  0.8808 -0.7898 -0.8502
12628SOL    HW240039   8.425   2.520   8.750 -0.8881  0.7965  0.4989
12629SOL     OW40040   8.719   1.562   3.927 -0.1549  0.5095 -0.3879
12629SOL    HW140041   8.810   1.584   3.947 -0.1639 -0.9381  1.6772
12629SOL    HW240042   8.668   1.621   3.982 -0.3256 -0.7079  0.8187
12630SOL     OW40043   1.926   4.390   2.170  0.2070  0.5826 -0.5679
12630SOL    HW140044   1.961   4.417   2.085  0.4045 -0.0997 -0.7157
12630SOL    HW240045   1.853   4.450   2.187  0.9209  1.4856 -0.6507
12631SOL     OW40046   4.475   0.427   0.392 -0.1718  0.0167 -0.1361
12631SOL    HW140047   4.380   0.420   0.397 -0.2605  0.9876 -0.3106
12631SOL    HW240048   4.495   0.410   0.300 -0.1631 -0.3004 -0.0766
12632SOL     OW40049   1.185   3.292   6.555 -0.3338  0.1555 -0.0763
12632SOL    HW140050   1.261   3.294   6.497  0.2885 -3.2010  0.4663
12632SOL    HW240051   1.113   3.261   6.499 -0.3951 -0.3365  0.2688
12633SOL     OW40052   6.776   1.764   4.292 -0.4543 -0.2911 -0.4658
12633SOL    HW140053   6.843   1.814   4.246 -0.6866 -0.9363 -1.5676
12633SOL    HW240054   6.696   1.816   4.282 -0.5964 -0.6371 -1.1971
12634SOL     OW40055   1.603   8.793   3.364 -0.8079 -0.3125  0.1824
12634SOL    HW140056   1.598   8.721   3.427  0.4850 -0.1797  0.4846
12634SOL    HW240057   1.697   8.812   3.358 -0.6770 -1.3427 -2.9634
12635SOL     OW40058   1.169   3.672   2.643 -0.1873  0.2076 -0.4291
12635SOL    HW140059   1.179   3.666   2.547  1.1762  0.1493 -0.3111
12635SOL    HW240060   1.259   3.679   2.675 -0.5851 -0.4441  0.8954
12636SOL     OW40061   1.012   4.894   8.979  0.0846  0.1970  0.4089
12636SOL    HW140062   0.985   4.837   8.907  2.8920 -1.7947  0.7549
12636SOL    HW240063   1.003   4.840   9.057  1.5896  0.6307  0.9152
12637SOL     OW40064   0.392   7.130   0.259  1.0205 -0.4654 -0.6909
12637SOL    HW140065   0.347   7.172   0.332 -0.4228  1.5802 -2.6100
12637SOL    HW240066   0.469   7.089   0.298 -0.4222 -0.7030  2.1490
12638SOL     OW40067   5.170   1.573   3.622 -0.1731 -0.4665 -0.3117
12638SOL    HW140068   5.115   1.500   3.593 -2.4355  0.8642  0.4276
12638SOL    HW240069   5.194   1.618   3.541 -2.1503  0.2657 -0.5288
12639SOL     OW40070   4.500   1.292   3.810 -0.2842  0.4985  0.4843
12639SOL    HW140071   4.577   1.315   3.758 -1.7463 -0.0387 -2.0825
12639SOL    HW240072   4.438   1.363   3.794 -0.9305  0.1204  1.2152
12640SOL     OW40073   3.225   1.274   3.991 -0.0433  0.2801 -0.2533
12640SOL    HW140074   3.137   1.247   4.019 -0.0253 -1.3764 -1.6799
12640SOL    HW240075   3.276   1.273   4.072 -1.5868  2.6793  0.8890
12641SOL     OW40076   5.403   1.323   6.530  0.3540 -0.2207 -0.1737
12641SOL    HW140077   5.342   1.303   6.459  1.0554  1.4445 -1.3197
12641SOL    HW240078   5.410   1.242   6.579 -0.4310 -1.3367 -1.8114
12642SOL     OW40079   5.797   6.973   9.277 -0.5372 -0.1696 -0.8176
12642SOL    HW140080   5.874   6.968   9.334  2.0279  1.4898 -3.8272
12642SOL    HW240081   5.801   6.893   9.224 -0.2305  0.4332 -1.7170
12643SOL     OW40082   0.366   8.965   0.910 -0.0101 -0.1014 -0.4433
12643SOL    HW140083   0.333   8.879   0.939 -1.7366  0.1367 -1.5754
12643SOL    HW240084   0.297   8.999   0.853  3.1940 -0.6255 -5.1456
12644SOL     OW40085   1.852   8.597   5.951 -0.1613 -0.1902  0.5677
12644SOL    HW140086   1.896   8.674   5.916 -1.1580  0.7271  1.2390
12644SOL    HW240087   1.793   8.569   5.881  0.3257 -0.4429  0.2605
12645SOL     OW40088   1.328   5.313   6.934 -0.0531 -0.3015  0.0930
12645SOL    HW140089   1.417   5.312   6.969 -0.0826 -2.0151  0.1817
12645SOL    HW240090   1.274   5.340   7.008  0.5196  3.1381 -0.5239
12646SOL     OW40091   0.104   1.888   5.607  0.8112 -0.0108  0.2910
12646SOL    HW140092   0.049   1.954   5.566  0.6744  0.1684  0.7570
12646SOL    HW240093   0.089   1.899   5.701  2.0785  0.4291  0.4634
12647SOL     OW40094   8.433   1.597   6.867 -0.0885  0.4737 -0.3041
12647SOL    HW140095   8.482   1.522   6.833  0.2253  0.8735 -0.7509
12647SOL    HW240096   8.445   1.592   6.962  0.5215  0.3559 -0.3822
12648SOL     OW40097   4.714   6.248   2.477  0.3197 -0.5664 -0.1104
12648SOL    HW140098   4.663   6.322   2.446  0.2635 -0.7708 -0.5070
12648SOL    HW240099   4.750   6.277   2.561 -0.5217 -0.4528  0.2243
12649SOL     OW40100   9.284   5.266   4.807 -0.5805  0.1451 -0.7451
12649SOL    HW140101   9.241   5.227   4.883 -1.3062 -4.3705 -3.0883
12649SOL    HW240102   9.215   5.315   4.763 -0.9506  0.2605 -0.0469
12650SOL     OW40103   6.445   1.633   4.944  0.5858  0.9932 -0.0855
12650SOL    HW140104   6.370   1.576   4.954  0.1415  1.8433  1.9863
12650SOL    HW240105   6.469   1.627   4.851 -1.5470  0.1281 -0.6189
12651SOL     OW40106   3.811   7.782   4.029 -0.1158 -0.0314  0.2995
12651SOL    HW140107   3.750   7.743   4.092 -0.7973  0.3011 -0.1391
12651SOL    HW240108   3.758   7.797   3.951  1.2530 -2.7247 -1.3050
12652SOL     OW40109   6.292   1.234   1.185 -0.4121 -0.5483 -0.0847
12652SOL    HW140110   6.291   1.289   1.107  0.0402 -0.5406 -0.0829
12652SOL    HW240111   6.199   1.220   1.205 -0.5281 -0.3069 -0.4489
12653SOL     OW40112   1.789   8.442   0.569  0.4699  0.0429  0.5999
12653SOL    HW140113   1.824   8.418   0.655 -1.6964 -0.0527  1.5221
12653SOL    HW240114   1.825   8.529   0.552  0.1385  0.5244  2.1341
12654SOL     OW40115   7.944   5.380   5.953 -0.1045 -0.1823  0.2872
12654SOL    HW140116   7.878   5.424   6.008 -1.2529 -1.2502 -0.1885
12654SOL    HW240117   8.016   5.361   6.013  0.2300  1.8838  0.6124
12655SOL     OW40118   2.995   9.141   8.104  0.0169  0.0757  0.6617
12655SOL    HW140119   2.905   9.126   8.132 -0.0352 -1.6144 -0.2499
12655SOL    HW240120   3.048   9.117   8.180 -0.2320 -1.6060  0.3538
12656SOL     OW40121   3.793   4.860   3.473  0.6694 -0.3031  0.6039
12656SOL    HW140122   3.774   4.950   3.501  0.7690  0.4223 -1.4588
12656SOL    HW240123   3.711   4.813   3.486 -0.5165  1.0013 -1.5433
12657SOL     OW40124   2.427   6.218   3.051 -0.1374 -0.1775 -0.5192
12657SOL    HW140125   2.439   6.239   3.144 -0.9188  1.9707 -0.8409
12657SOL    HW240126   2.364   6.146   3.051 -0.4977  0.1013  0.6266
12658SOL     OW40127   6.656   6.979   2.378 -0.3530 -0.0616 -0.9024
12658SOL    HW140128   6.733   6.927   2.355  0.1189  0.5657 -0.7616
12658SOL    HW240129   6.586   6.914   2.390  0.0139 -0.5927 -1.5668
12659SOL     OW40130   5.233   9.394   8.319 -0.4293  0.0621  0.2078
12659SOL    HW140131   5.188   9.462   8.269  0.1301  0.2297 -0.0845
12659SOL    HW240132   5.272   9.441   8.393  0.2530  0.1249 -0.1859
12660SOL     OW40133   2.703   6.058   7.331  0.2155  0.7483  0.0851
12660SOL    HW140134   2.641   6.082   7.400 -0.0636 -0.4212  0.2591
12660SOL    HW240135   2.783   6.032   7.378  0.9407  2.4277 -0.1423
12661SOL     OW40136   4.295   2.933   2.837 -0.2837 -0.3893 -0.9752
12661SOL    HW140137   4.214   2.883   2.822 -0.7430 -0.4305  1.3688
12661SOL    HW240138   4.316   2.919   2.929  2.2053 -0.0380 -1.4259
12662SOL     OW40139   2.218   3.446   2.420 -0.0589  0.1787  0.2972
12662SOL    HW140140   2.279   3.519   2.425 -0.9004  0.8770  0.6604
12662SOL    HW240141   2.241   3.390   2.494  1.2433 -0.4694 -0.5615
12663SOL     OW40142   4.272   5.903   7.742 -0.0637 -0.1975  0.2568
12663SOL    HW140143   4.190   5.947   7.721 -0.5490 -0.0019  2.3174
12663SOL    HW240144   4.287   5.842   7.669 -1.0714  1.0369 -1.0307
12664SOL     OW40145   8.530   7.431   1.328 -0.5668  0.5880  0.6536
12664SOL    HW140146   8.577   7.396   1.253  0.3955  0.4014  1.3289
12664SOL    HW240147   8.460   7.484   1.290 -2.3368 -2.2989 -0.4380
12665SOL     OW40148   4.916   2.205   0.237  0.0551  0.6690  0.2195
12665SOL    HW140149   4.889   2.244   0.153 -0.6218 -0.7907 -0.2755
12665SOL    HW240150   4.836   2.205   0.290 -0.9096 -2.9013 -0.9533
12666SOL     OW40151   5.997   2.602   0.102 -0.1965 -0.3505  0.0711
12666SOL    HW140152   5.965   2.512   0.098 -0.8010 -0.1526  0.3552
12666SOL    HW240153   6.091   2.594   0.086 -0.0756 -1.1320  1.0448
12667SOL     OW40154   7.116   0.289   6.701 -0.2646 -0.2919  0.1115
12667SOL    HW140155   7.109   0.204   6.659  1.5413 -1.0596  1.2337
12667SOL    HW240156   7.111   0.353   6.629 -1.5030 -1.3084 -0.7518
12668SOL     OW40157   0.072   3.118   8.025  0.3284  0.0334 -0.3422
12668SOL    HW140158   0.030   3.096   8.108 -0.0216 -0.8006 -0.7260
12668SOL    HW240159   0.086   3.034   7.982  2.0261  0.3229 -0.4117
12669SOL     OW40160   4.810   0.826   1.833  0.3101  0.0302  0.1053
12669SOL    HW140161   4.726   0.871   1.826  0.9803  1.0896 -1.6017
12669SOL    HW240162   4.874   0.896   1.838  1.1382 -0.7724  1.0168
12670SOL     OW40163   1.666   7.052   3.632 -0.2632  0.1225 -0.1650
12670SOL    HW140164   1.737   7.012   3.582  1.7500  1.1705  1.6963
12670SOL    HW240165   1.603   7.080   3.566  1.9386  0.8537 -2.0866
12671SOL     OW40166   4.138   2.379   0.016 -0.0895  0.7401 -0.0443
12671SOL    HW140167   4.203   2.310   0.007  0.1545  1.0484 -0.6709
12671SOL    HW240168   4.185   2.452   0.056 -0.2837  0.6403  0.3751
12672SOL     OW40169   8.583   5.047   5.573  0.1027  0.3854  0.6115
12672SOL    HW140170   8.605   5.060   5.480  0.3342  0.1586  0.6332
12672SOL    HW240171   8.627   4.965   5.596  2.0437  1.6007  1.5471
12673SOL     OW40172   0.895   9.321   8.262 -0.3180  0.8949 -0.0884
12673SOL    HW140173   0.859   9.403   8.228  0.1758  0.5027 -1.6510
12673SOL    HW240174   0.985   9.320   8.229 -0.3350 -0.2948 -0.1232
12674SOL     OW40175   2.256   9.448   2.254  0.2101  0.4228 -0.4850
12674SOL    HW140176   2.326   9.514   2.257  1.2343 -0.6471  0.2138
12674SOL    HW240177   2.302   9.366   2.242 -1.0724 -0.1507 -1.7245
12675SOL     OW40178   1.965   2.319   4.128  0.2391  0.2909  0.2828
12675SOL    HW140179   1.877   2.291   4.150  0.2313  0.5915  0.6401
12675SOL    HW240180   2.000   2.248   4.073 -0.6983  0.7988 -1.0225
12676SOL     OW40181   8.162   1.702   3.276 -0.4254  0.6972  0.2099
12676SOL    HW140182   8.094   1.765   3.298  0.8012  1.6683  1.3642
12676SOL    HW240183   8.223   1.751   3.221 -0.1011  0.1531  0.0787
12677SOL     OW40184   7.375   5.505   5.578 -0.0687  0.4392 -0.4858
12677SOL    HW140185   7.433   5.566   5.625  0.9860 -2.3546  2.1639
12677SOL    HW240186   7.427   5.476   5.503  1.2699 -0.4818  0.7298
12678SOL     OW40187   3.175   7.825   0.749 -0.0641 -0.2370 -0.0650
12678SOL    HW140188   3.255   7.847   0.797  0.4004 -1.9579  0.0167
12678SOL    HW240189   3.203   7.817   0.658 -0.5731  1.1630 -0.3637
12679SOL     OW40190   7.271   8.849   5.246 -0.6420 -0.3590  0.4456
12679SOL    HW140191   7.200   8.909   5.270 -0.3667  0.3148 -0.3451
12679SOL    HW240192   7.350   8.892   5.279 -0.4720 -0.4168  0.1196
12680SOL     OW40193   4.547   4.223   1.429  0.1872  0.2286 -0.3667
12680SOL    HW140194   4.580   4.307   1.397  0.8663  0.6589  1.4034
12680SOL    HW240195   4.625   4.171   1.446 -0.2122 -1.4976 -3.0984
12681SOL     OW40196   4.782   6.893   3.027 -0.1312  0.2727 -0.3144
12681SOL    HW140197   4.780   6.988   3.039 -0.0678  0.2302  0.0437
12681SOL    HW240198   4.692   6.869   3.007  0.1518  0.6343 -2.2413
12682SOL     OW40199   8.638   4.120   4.428  0.2410 -0.0990 -0.3720
12682SOL    HW140200   8.641   4.124   4.523  0.8283  0.5928 -0.4085
12682SOL    HW240201   8.626   4.211   4.401 -0.0573 -0.3093 -0.9509
12683SOL     OW40202   6.752   6.862   4.622  0.1220  0.0096  0.1859
12683SOL    HW140203   6.700   6.926   4.573  1.0715 -0.4413 -1.5031
12683SOL    HW240204   6.834   6.907   4.641  0.0786 -0.0976  0.6337
12684SOL     OW40205   2.181   1.766   8.933 -0.0257 -0.2563  0.4375
12684SOL    HW140206   2.183   1.670   8.937  0.3133 -0.5161 -3.0031
12684SOL    HW240207   2.090   1.789   8.948 -0.3983 -1.2547 -0.1974
12685SOL     OW40208   2.497   4.718   0.926 -0.1164  0.1623 -0.0472
12685SOL    HW140209   2.470   4.634   0.889  0.9260 -0.7710  1.1938
12685SOL    HW240210   2.417   4.771   0.926 -0.4965 -0.3091 -2.1142
12686SOL     OW40211   0.588   1.668   1.601 -0.2072 -0.1037  0.0873
12686SOL    HW140212   0.593   1.623   1.686 -0.0886  0.6272  0.4785
12686SOL    HW240213   0.679   1.684   1.577 -0.2333 -0.5411 -0.3072
12687SOL     OW40214   0.351   0.971   0.432  0.2323 -0.3031  0.7467
12687SOL    HW140215   0.317   0.973   0.343  2.0803 -3.8433 -0.1969
12687SOL    HW240216   0.430   1.026   0.429  0.5872 -0.8475  0.0527
12688SOL     OW40217   9.244   7.326   0.017  0.2735 -0.6973 -0.0521
12688SOL    HW140218   9.285   7.382  -0.049  1.0533 -0.4770  0.6141
12688SOL    HW240219   9.214   7.250  -0.032 -2.3695  1.0129 -1.3051
12689SOL     OW40220   4.800   5.673   9.603  0.3105 -0.3764  0.2209
12689SOL    HW140221   4.765   5.650   9.688  0.3848  1.2930  0.7361
12689SOL    HW240222   4.732   5.648   9.541  1.4827 -4.6441  0.3109
12690SOL     OW40223   6.133   3.242   8.996 -0.0243 -0.3538 -0.1008
12690SOL    HW140224   6.079   3.216   9.070  0.6988  1.4924  1.1216
12690SOL    HW240225   6.079   3.303   8.946 -0.4546 -1.4773 -1.0672
12691SOL     OW40226   4.447   5.921   4.229 -0.0005  0.7293 -0.3450
12691SOL    HW140227   4.537   5.925   4.262 -1.0926 -0.4793  3.2915
12691SOL    HW240228   4.415   5.835   4.257 -2.1454  0.8403 -2.1316
12692SOL     OW40229   0.413   2.188   1.998  0.9910  0.0077  0.0609
12692SOL    HW140230   0.367   2.108   2.022  2.5613 -0.6300  1.0713
12692SOL    HW240231   0.470   2.207   2.072  2.1879  0.8878 -1.0374
12693SOL     OW40232   4.573   4.526   4.238 -0.2383  0.0394 -0.1665
12693SOL    HW140233   4.543   4.551   4.326  1.7136  0.2989  0.4614
12693SOL    HW240234   4.557   4.604   4.185  1.5398  1.0551  0.7264
12694SOL     OW40235   1.330   2.997   8.301 -0.3443 -0.0486 -0.1802
12694SOL    HW140236   1.327   3.082   8.256 -0.2476  0.1434  0.1705
12694SOL    HW240237   1.405   2.952   8.262 -0.1427  0.1941 -0.0749
12695SOL     OW40238   1.768   9.570   1.462  0.3377 -0.5496 -0.1561
12695SOL    HW140239   1.784   9.662   1.442  1.4452 -1.1407 -2.3416
12695SOL    HW240240   1.673   9.565   1.478  0.0959  0.8024 -1.0174
12696SOL     OW40241   9.343   9.404   6.119  0.2324 -0.1356  0.2210
12696SOL    HW140242   9.418   9.350   6.096  1.0476  1.3654 -0.7831
12696SOL    HW240243   9.373   9.494   6.107 -1.5798  0.5176  0.2549
12697SOL     OW40244   9.090   0.211   0.216 -0.3591  0.3483 -0.6826
12697SOL    HW140245   9.164   0.164   0.254  0.8940  1.8932 -1.1230
12697SOL    HW240246   9.028   0.141   0.191  1.0964 -1.0142 -0.6525
12698SOL     OW40247   9.157   1.615   2.506 -0.0465  0.0513 -0.0293
12698SOL    HW140248   9.155   1.558   2.430  1.6678  0.3213 -0.3314
12698SOL    HW240249   9.160   1.555   2.581  0.3102 -0.2483 -0.2770
12699SOL     OW40250   2.783   7.610   2.107  0.3526  0.3390 -0.0204
12699SOL    HW140251   2.862   7.630   2.158 -0.5187  2.0500  0.7383
12699SOL    HW240252   2.716   7.592   2.173 -0.1178 -0.2379 -0.6419
12700SOL     OW40253   0.850   0.325   5.496 -0.1281 -0.2624  0.3917
12700SOL    HW140254   0.850   0.379   5.575 -3.8839 -0.5514  0.7892
12700SOL    HW240255   0.861   0.387   5.424  1.3419  0.2532  1.0351
12701SOL     OW40256   7.183   0.911   3.299 -0.0584  0.1030  0.2711
12701SOL    HW140257   7.171   0.906   3.394 -0.0714  0.2519  0.2772
12701SOL    HW240258   7.100   0.880   3.263 -0.1133  0.2044  0.3094
12702SOL     OW40259   6.575   5.325   7.341 -0.1641  0.2145  0.3473
12702SOL    HW140260   6.645   5.371   7.388 -0.6298 -1.2020  2.5841
12702SOL    HW240261   6.598   5.335   7.249  2.5241  0.5302  0.9513
12703SOL     OW40262   5.700   0.462   4.666  0.4291 -0.0045  0.8871
12703SOL    HW140263   5.612   0.496   4.654  0.3998 -0.1106  0.7987
12703SOL    HW240264   5.728   0.435   4.579  0.6389  0.2467  0.8764
12704SOL     OW40265   4.530   4.574   0.882 -0.6425  0.0483 -0.9509
12704SOL    HW140266   4.482   4.633   0.940 -0.9272 -0.7760 -0.3246
12704SOL    HW240267   4.464   4.510   0.854  0.4753 -2.5682  1.8274
12705SOL     OW40268   3.961   2.618   9.224  0.1957 -0.3011 -0.3212
12705SOL    HW140269   3.883   2.673   9.230  0.1004 -0.3267 -1.1963
12705SOL    HW240270   3.983   2.597   9.315 -0.2076  0.5570 -0.0213
12706SOL     OW40271   0.404   8.899   7.883  0.6104 -0.0755 -0.3317
12706SOL    HW140272   0.322   8.904   7.834  0.0544 -1.7775  0.3695
12706SOL    HW240273   0.421   8.989   7.910 -0.9249  0.3327 -0.6350
12707SOL     OW40274   4.565   7.697   7.191 -0.0145 -0.6702  0.1492
12707SOL    HW140275   4.485   7.750   7.192  0.5357  0.1782  0.3056
12707SOL    HW240276   4.573   7.668   7.101  0.7675  1.2585 -0.4572
12708SOL     OW40277   7.639   6.238   8.644  0.2822  0.7292 -0.0324
12708SOL    HW140278   7.568   6.183   8.613  0.5089  0.6466 -0.4153
12708SOL    HW240279   7.608   6.328   8.630 -0.2261  0.7098  0.9123
12709SOL     OW40280   8.381   1.995   0.719  0.0032  0.2013 -0.4415
12709SOL    HW140281   8.335   1.922   0.759 -2.7981  1.5552 -0.9413
12709SOL    HW240282   8.351   1.995   0.628  0.4846  1.5396 -0.6222
12710SOL     OW40283   5.185   9.487   0.081  0.2175  0.3600  0.5587
12710SOL    HW140284   5.135   9.488   0.163 -0.9707  0.9374 -0.1423
12710SOL    HW240285   5.123   9.453   0.016  1.2011 -0.2470 -0.0744
12711SOL     OW40286   0.741   7.671   9.589  0.2996  0.2432 -0.0977
12711SOL    HW140287   0.647   7.688   9.580  0.1832 -0.9201 -1.4809
12711SOL    HW240288   0.779   7.707   9.509  0.6971 -1.3016 -0.6395
12712SOL     OW40289   6.138   9.410   8.313  0.6714 -0.3080  0.2318
12712SOL    HW140290   6.064   9.436   8.368 -0.1803 -2.1362  0.0124
12712SOL    HW240291   6.132   9.467   8.236 -1.2986 -1.2428 -0.3713
12713SOL     OW40292   6.569   4.443   8.182  0.1233 -0.1910  0.3383
12713SOL    HW140293   6.512   4.410   8.253 -1.0220  2.2002  0.6364
12713SOL    HW240294   6.511   4.447   8.106  0.6768 -0.3621 -0.0942
12714SOL     OW40295   4.974   1.092   6.283  0.1169 -0.4526  0.3011
12714SOL    HW140296   4.998   1.172   6.237  0.2709 -0.2446  0.7416
12714SOL    HW240297   4.881   1.079   6.262  0.2587 -0.5329 -0.3155
12715SOL     OW40298   4.749   8.819   6.784  0.4728 -0.0268 -0.0880
12715SOL    HW140299   4.840   8.825   6.812  0.3952 -1.4618  0.5618
12715SOL    HW240300   4.702   8.785   6.860 -0.3315 -0.8198 -0.9081
12716SOL     OW40301   9.469   4.655   4.447  0.0875  0.1529 -0.3691
12716SOL    HW140302   9.384   4.616   4.425  0.4674 -1.8297  1.4419
12716SOL    HW240303   9.501   4.689   4.363 -1.9019 -0.1854 -1.3444
12717SOL     OW40304   2.883   8.511   3.639  0.0024 -0.3077  0.3015
12717SOL    HW140305   2.800   8.536   3.680 -1.2642 -0.7959 -1.7672
12717SOL    HW240306   2.880   8.415   3.636  0.4625 -0.3109 -0.0970
12718SOL     OW40307   6.749   1.140   0.440  0.3348  0.1905 -0.0425
12718SOL    HW140308   6.749   1.054   0.483  1.9079 -0.0173 -0.4029
12718SOL    HW240309   6.659   1.171   0.449  0.4766 -0.0422  2.9669
12719SOL     OW40310   1.084   7.548   3.999  0.0235  0.4283  0.2783
12719SOL    HW140311   1.139   7.621   3.969  0.1816  0.7770  1.3666
12719SOL    HW240312   1.144   7.475   4.008 -0.3251 -0.2205 -1.9393
12720SOL     OW40313   8.789   2.202   9.170  0.5107 -0.1341 -0.3901
12720SOL    HW140314   8.805   2.278   9.115  1.0618 -0.8626 -1.2763
12720SOL    HW240315   8.829   2.223   9.254 -0.3334  0.9914 -0.2421
12721SOL     OW40316   2.786   8.650   2.319  0.1696 -0.1300 -0.2333
12721SOL    HW140317   2.691   8.640   2.312  0.2294 -0.9758 -0.0519
12721SOL    HW240318   2.801   8.681   2.408 -0.0494  2.0255 -0.9077
12722SOL     OW40319   7.273   7.665   3.981 -0.4948  0.3648  0.6569
12722SOL    HW140320   7.362   7.697   3.993 -0.0765 -0.9490  1.2234
12722SOL    HW240321   7.267   7.588   4.038 -2.5144  1.3886  1.9095
12723SOL     OW40322   6.132   6.821   6.899  0.3978 -0.1993 -0.5516
12723SOL    HW140323   6.169   6.892   6.953  0.8151 -1.4782  0.9342
12723SOL    HW240324   6.130   6.745   6.958 -2.0977 -0.8788 -1.4175
12724SOL     OW40325   6.949   0.848   0.774 -0.8630 -0.0245 -0.0340
12724SOL    HW140326   6.952   0.912   0.845  1.1191 -0.0604 -0.0393
12724SOL    HW240327   6.983   0.767   0.813 -1.0059 -0.4061 -0.6844
12725SOL     OW40328   2.273   9.449   5.086  0.5430 -0.1788 -0.1767
12725SOL    HW140329   2.237   9.538   5.092 -0.1442 -0.4560 -0.0712
12725SOL    HW240330   2.203   9.398   5.045  0.7168 -0.7930  0.2770
12726SOL     OW40331   4.654   6.360   8.807 -0.4919 -0.4572 -0.8555
12726SOL    HW140332   4.595   6.289   8.832 -0.2698 -0.5943 -0.7158
12726SOL    HW240333   4.656   6.417   8.883  1.2631 -1.5861  0.0173
12727SOL     OW40334   7.546   4.856   6.447 -0.1915  0.2941  0.0764
12727SOL    HW140335   7.469   4.913   6.449  0.3293  1.0341 -0.1430
12727SOL    HW240336   7.567   4.840   6.539 -0.6690 -0.0011  0.1345
12728SOL     OW40337   0.375   9.195   1.671  0.2878  0.1461 -0.7368
12728SOL    HW140338   0.311   9.253   1.629 -0.5596  0.6231  1.0901
12728SOL    HW240339   0.327   9.157   1.745  2.0184  0.2356  0.4787
12729SOL     OW40340   8.314   9.202   1.873 -0.4602 -0.1772  0.1651
12729SOL    HW140341   8.278   9.270   1.930  0.0375  2.1071 -2.0464
12729SOL    HW240342   8.408   9.200   1.894 -0.3055  0.5569 -0.3881
12730SOL     OW40343   5.106   5.907   1.009  0.0403  0.1439  0.1409
12730SOL    HW140344   5.080   5.840   1.072 -0.2150 -0.8423 -0.9868
12730SOL    HW240345   5.053   5.890   0.932  1.3682  0.4038 -0.8741
12731SOL     OW40346   5.079   9.227   8.675 -0.1517  0.5004 -0.4415
12731SOL    HW140347   4.984   9.218   8.684 -0.1394 -0.4297 -1.0372
12731SOL    HW240348   5.095   9.218   8.581  0.4842  1.1296 -0.3974
12732SOL     OW40349   1.475   6.927   9.471 -0.1950 -0.2023 -0.4505
12732SOL    HW140350   1.546   6.985   9.498 -0.2149 -0.0854 -0.6461
12732SOL    HW240351   1.499   6.841   9.506 -0.5866  0.0985  0.5744
12733SOL     OW40352   5.075   8.116   1.383  0.4335  0.3270 -0.4527
12733SOL    HW140353   5.036   8.040   1.426  1.9959  0.4719  1.3493
12733SOL    HW240354   5.140   8.079   1.322  1.7065  0.1648  0.9428
12734SOL     OW40355   2.201   4.477   3.087  0.3438 -0.4258 -0.1582
12734SOL    HW140356   2.288   4.495   3.124  0.2180 -0.6433  0.2524
12734SOL    HW240357   2.149   4.450   3.163 -0.3669  0.7128 -0.2229
12735SOL     OW40358   0.543   0.948   1.126 -0.0391  0.3096  0.7297
12735SOL    HW140359   0.546   0.959   1.221 -3.0771 -0.2174  0.9989
12735SOL    HW240360   0.471   1.005   1.098  1.1289  0.8532 -1.3565
12736SOL     OW40361   5.010   7.860   6.658 -0.1944  0.1908  0.3657
12736SOL    HW140362   5.019   7.792   6.591  1.5557  1.6003 -0.9238
12736SOL    HW240363   4.916   7.864   6.676 -0.3316 -3.1819  1.2369
12737SOL     OW40364   0.190   0.327   1.948 -1.2196 -0.3149  0.1541
12737SOL    HW140365   0.271   0.326   1.897 -1.1456  0.7100  0.2284
12737SOL    HW240366   0.177   0.236   1.974  0.4568 -0.3554  0.9875
12738SOL     OW40367   7.603   2.084   6.928 -0.2701  0.4754 -0.5765
12738SOL    HW140368   7.685   2.045   6.959 -0.3884 -0.9458 -1.9194
12738SOL    HW240369   7.629   2.171   6.896  0.4285  0.6378  0.3906
12739SOL     OW40370   1.493   3.826   0.050  0.0065 -0.2587 -0.5228
12739SOL    HW140371   1.444   3.908   0.043 -1.1003 -0.9322 -1.0374
12739SOL    HW240372   1.535   3.830   0.135 -1.4843  0.0809  0.2318
12740SOL     OW40373   8.668   8.340   9.575  0.0101 -0.1749 -0.0735
12740SOL    HW140374   8.573   8.345   9.588 -0.0334 -0.1430 -0.4021
12740SOL    HW240375   8.680   8.273   9.508  0.3221 -1.2966  1.0553
12741SOL     OW40376   6.995   4.343   5.553  0.3983 -0.0052  0.4212
12741SOL    HW140377   6.925   4.320   5.613 -0.1139  0.9484  0.2027
12741SOL    HW240378   6.985   4.282   5.480  0.7670 -0.8916  1.0881
12742SOL     OW40379   1.015   0.277   8.504  0.3955 -0.4888  0.4474
12742SOL    HW140380   1.066   0.208   8.549  0.7402  0.0856  0.9621
12742SOL    HW240381   0.974   0.232   8.431 -0.3737 -1.5209  1.4684
12743SOL     OW40382   2.866   0.969   3.553  0.1616  0.6537  0.3138
12743SOL    HW140383   2.823   0.977   3.639  1.4324  1.4175  0.9088
12743SOL    HW240384   2.800   0.997   3.490 -1.7755 -2.4350  0.7078
12744SOL     OW40385   6.728   4.692   8.172 -0.3372 -0.3163 -0.4348
12744SOL    HW140386   6.668   4.765   8.158 -0.0176  0.2349  0.9410
12744SOL    HW240387   6.671   4.619   8.197 -0.6687 -0.6091 -1.9459
12745SOL     OW40388   8.250   6.438   6.358  0.2828 -0.3712  0.2401
12745SOL    HW140389   8.178   6.401   6.307 -0.0272 -0.5720  0.8188
12745SOL    HW240390   8.282   6.512   6.305 -0.8866  0.2417  0.3613
12746SOL     OW40391   4.106   8.326   9.361  0.5549  0.1061 -0.2956
12746SOL    HW140392   4.117   8.325   9.456  1.4970 -1.9497 -0.3742
12746SOL    HW240393   4.180   8.276   9.328 -0.5045 -0.4004 -2.0225
12747SOL     OW40394   5.529   1.165   7.706 -0.0357 -0.3109  0.0504
12747SOL    HW140395   5.586   1.139   7.634 -0.6560 -0.4715 -0.3901
12747SOL    HW240396   5.469   1.229   7.667 -1.2244 -1.3589  0.0705
12748SOL     OW40397   8.047   7.905   3.830 -0.0865 -0.1064 -0.2372
12748SOL    HW140398   8.098   7.835   3.789 -1.3711 -0.8727 -0.5523
12748SOL    HW240399   8.113   7.959   3.874  0.9895 -1.1548 -0.5094
12749SOL     OW40400   6.269   2.572   0.086  0.1086  0.0982  0.4834
12749SOL    HW140401   6.314   2.643   0.040  0.8909 -0.7118 -0.0401
12749SOL    HW240402   6.303   2.577   0.176 -1.0996  1.4100  0.9157
12750SOL     OW40403   2.959   3.073   2.678 -0.8940 -0.1609 -0.3438
12750SOL    HW140404   2.991   3.135   2.612  0.5711  1.6524  1.9265
12750SOL    HW240405   2.864   3.084   2.677 -0.7005  1.8503 -0.2938
12751SOL     OW40406   3.285   3.055   6.776 -0.0313 -0.0308  0.0117
12751SOL    HW140407   3.310   3.147   6.772  1.0576 -0.2574  1.2483
12751SOL    HW240408   3.333   3.014   6.705  1.3248 -0.0367  0.9011
12752SOL     OW40409   2.988   7.811   1.062 -0.0223  0.6740 -0.0897
12752SOL    HW140410   3.081   7.834   1.063  1.1663 -3.2345 -1.4552
12752SOL    HW240411   2.972   7.782   0.972 -2.6081  1.3233  0.1126
12753SOL     OW40412   4.376   7.926   6.079  0.0916  0.0269  0.2763
12753SOL    HW140413   4.420   7.845   6.052  0.5765  0.0311  1.0179
12753SOL    HW240414   4.287   7.899   6.099  0.1132 -0.2322  0.0322
12754SOL     OW40415   3.661   1.395   1.657 -0.6416  0.6001  0.3400
12754SOL    HW140416   3.695   1.313   1.619  3.0101  1.5696  1.0843
12754SOL    HW240417   3.642   1.373   1.748  0.3120  0.5053  0.5338
12755SOL     OW40418   4.142   7.525   5.365 -0.3107  0.2736  0.3161
12755SOL    HW140419   4.073   7.522   5.298 -0.4534  1.3016  0.3968
12755SOL    HW240420   4.099   7.566   5.441 -0.0037 -0.3980  0.8656
12756SOL     OW40421   7.165   5.224   3.214  0.6643  0.3933  0.7865
12756SOL    HW140422   7.202   5.202   3.128  2.0464  3.7776  0.3704
12756SOL    HW240423   7.072   5.238   3.198  0.7450  0.1388  0.0621
12757SOL     OW40424   5.783   8.168   8.172 -0.3046 -0.5630 -0.0144
12757SOL    HW140425   5.876   8.146   8.182 -0.5489 -1.6372  0.0766
12757SOL    HW240426   5.765   8.231   8.242  0.4562  0.0112 -0.3178
12758SOL     OW40427   7.329   0.320   5.013  0.0390 -0.0328 -0.0212
12758SOL    HW140428   7.400   0.314   5.078 -0.0173  0.2850  0.0712
12758SOL    HW240429   7.359   0.388   4.953 -1.2417  1.8389  1.3421
12759SOL     OW40430   5.628   1.743   3.469 -0.0997  0.7632  0.1417
12759SOL    HW140431   5.679   1.729   3.390 -1.2609 -1.5576 -0.2781
12759SOL    HW240432   5.689   1.724   3.540  0.4060  0.9320 -0.2417
12760SOL     OW40433   4.803   1.538   3.875 -0.3051 -0.4778  0.2097
12760SOL    HW140434   4.749   1.616   3.859  0.7114  0.0871 -0.5968
12760SOL    HW240435   4.880   1.572   3.922  0.0592 -1.0315  0.0185
12761SOL     OW40436   7.529   1.435   4.001  0.5816  0.5272  0.0707
12761SOL    HW140437   7.468   1.498   3.962  1.7111  0.9048 -1.2051
12761SOL    HW240438   7.563   1.386   3.926 -0.6273 -1.9973  1.0719
12762SOL     OW40439   7.007   8.920   7.298  0.5879  0.4509  0.0808
12762SOL    HW140440   6.914   8.917   7.320  0.3627  0.6001 -0.8232
12762SOL    HW240441   7.031   9.012   7.305  0.7389  0.3774  0.5784
12763SOL     OW40442   6.808   0.407   5.060  0.1455  0.8423  0.2412
12763SOL    HW140443   6.903   0.419   5.050  0.2829  1.8660  2.2408
12763SOL    HW240444   6.775   0.401   4.970  2.1640 -0.1607 -0.4941
12764SOL     OW40445   1.333   9.004   7.696 -0.4928 -0.3936 -0.1830
12764SOL    HW140446   1.338   8.919   7.739  0.6503  0.9266  2.5361
12764SOL    HW240447   1.424   9.031   7.684 -0.8345  0.6725 -0.5374
12765SOL     OW40448   2.343   6.102   0.967 -0.2803  0.3442  0.1874
12765SOL    HW140449   2.311   6.043   0.898 -1.8539 -0.8283  1.8163
12765SOL    HW240450   2.266   6.154   0.992  0.3318  0.9510  0.8504
12766SOL     OW40451   0.790   2.662   4.495  0.0601  0.5183 -0.3964
12766SOL    HW140452   0.711   2.667   4.549  0.5952 -2.4222  0.8535
12766SOL    HW240453   0.850   2.605   4.544  1.2859 -0.8925 -3.2356
12767SOL     OW40454   3.670   5.544   6.416  0.0082 -0.0195 -0.3639
12767SOL    HW140455   3.736   5.575   6.479  0.6089 -2.0612  0.0685
12767SOL    HW240456   3.648   5.456   6.445 -3.0473  0.5998 -0.4410
12768SOL     OW40457   5.611   9.432   1.437 -0.0054 -0.6542  0.5903
12768SOL    HW140458   5.599   9.453   1.345  0.0782 -1.1678  0.4631
12768SOL    HW240459   5.583   9.341   1.446 -0.4451 -0.4699  1.1623
12769SOL     OW40460   7.164   0.730   3.702  0.6638  0.2612 -0.1342
12769SOL    HW140461   7.123   0.687   3.776 -2.1478  0.3773 -1.4864
12769SOL    HW240462   7.213   0.661   3.657 -0.5624 -0.6380 -0.1163
12770SOL     OW40463   1.441   6.309   8.179 -0.4947  0.4717  0.1306
12770SOL    HW140464   1.442   6.397   8.217 -1.4081 -0.0092  1.3792
12770SOL    HW240465   1.370   6.311   8.116 -1.0887  0.4160  0.7793
12771SOL     OW40466   3.585   5.712   0.311  0.1891 -0.4272  0.2537
12771SOL    HW140467   3.637   5.751   0.241 -1.4505 -0.4198 -1.0209
12771SOL    HW240468   3.507   5.677   0.267 -0.0792 -1.9769  1.8437
12772SOL     OW40469   2.510   0.003   8.373 -0.0586 -0.7041  0.2281
12772SOL    HW140470   2.420  -0.023   8.392  0.1490 -1.6767 -0.0893
12772SOL    HW240471   2.561  -0.077   8.384  0.1646 -1.3410 -3.9383
12773SOL     OW40472   7.421   7.009   8.607 -0.2612  0.2327 -0.0698
12773SOL    HW140473   7.403   7.098   8.578  0.4309  0.2640 -0.4256
12773SOL    HW240474   7.475   7.020   8.685 -0.0657  0.1243 -0.1890
12774SOL     OW40475   8.195   2.722   0.448 -0.2602 -0.7618  0.0606
12774SOL    HW140476   8.237   2.804   0.424  1.3537 -1.9731 -1.5586
12774SOL    HW240477   8.262   2.655   0.433 -2.1896 -2.6293 -0.8650
12775SOL     OW40478   9.118   8.777   6.063 -0.5209 -0.3049 -0.5130
12775SOL    HW140479   9.044   8.766   6.004 -0.2491  0.7039 -1.0626
12775SOL    HW240480   9.149   8.688   6.079 -1.8677 -0.7491 -0.2287
12776SOL     OW40481   1.368   8.944   6.292  0.1178  0.3776 -0.0576
12776SOL    HW140482   1.391   8.987   6.210 -1.0111 -0.0313 -0.6166
12776SOL    HW240483   1.276   8.966   6.305 -0.0629 -0.5951  0.4354
12777SOL     OW40484   3.594   5.311   9.388  0.8600  0.4771  0.2810
12777SOL    HW140485   3.615   5.340   9.299  0.9400  0.1058  0.1785
12777SOL    HW240486   3.499   5.326   9.396  0.7920  0.2020  0.0179
12778SOL     OW40487   9.416   1.683   5.967 -0.0801  0.4894 -0.0812
12778SOL    HW140488   9.464   1.754   6.010  0.3273 -0.0995  0.4511
12778SOL    HW240489   9.404   1.617   6.035 -0.2735 -0.0419 -0.6202
12779SOL     OW40490   5.743   8.776   6.500  0.2452 -0.2840  0.1873
12779SOL    HW140491   5.720   8.684   6.494  0.0825 -0.3155  1.0690
12779SOL    HW240492   5.787   8.784   6.585 -0.6285  0.6257  0.5762
12780SOL     OW40493   7.742   1.148   7.396  0.3294  0.1945  0.1169
12780SOL    HW140494   7.695   1.067   7.373 -1.3338  1.2819 -0.4910
12780SOL    HW240495   7.775   1.181   7.312 -1.0452  1.3384 -0.0117
12781SOL     OW40496   9.617   1.709   0.814  0.6991  0.6507  0.3043
12781SOL    HW140497   9.671   1.725   0.736  1.2773  1.4120  0.8541
12781SOL    HW240498   9.567   1.630   0.792  0.8696  0.8354 -0.8313
12782SOL     OW40499   9.400   1.478   1.998 -0.7057 -0.0984  0.1048
12782SOL    HW140500   9.450   1.560   1.991  0.9281 -1.1650 -1.5813
12782SOL    HW240501   9.313   1.501   1.966  0.1863  0.6718 -1.9623
12783SOL     OW40502   6.423   7.845   4.666  0.0430 -0.6977 -0.0913
12783SOL    HW140503   6.385   7.932   4.682 -0.9979 -1.1876  0.2353
12783SOL    HW240504   6.411   7.798   4.749  0.3547 -1.2404 -0.3443
12784SOL     OW40505   4.502   2.539   4.353  0.4570  0.1870  0.0192
12784SOL    HW140506   4.488   2.625   4.313 -0.5432  0.2728  0.5260
12784SOL    HW240507   4.471   2.548   4.443 -0.5008 -0.9398 -0.1685
12785SOL     OW40508   7.561   2.181   9.482 -0.6774 -0.2826 -0.4225
12785SOL    HW140509   7.514   2.262   9.459  0.5131  0.1512 -1.4299
12785SOL    HW240510   7.650   2.210   9.503 -0.7538 -1.1221  1.2436
12786SOL     OW40511   2.580   4.365   1.139 -0.3597  0.7036 -0.1884
12786SOL    HW140512   2.654   4.348   1.080 -1.0867  1.9768 -1.5114
12786SOL    HW240513   2.612   4.435   1.197  1.2757 -2.1769  2.7800
12787SOL     OW40514   7.647   4.975   1.659 -0.2356 -0.1179 -0.2424
12787SOL    HW140515   7.561   4.933   1.650 -1.2293  1.1789  2.2400
12787SOL    HW240516   7.629   5.068   1.659  1.4861  0.2797 -1.7642
12788SOL     OW40517   2.242   8.187   5.131  0.3194 -0.2940  0.3663
12788SOL    HW140518   2.164   8.205   5.184 -1.1429 -3.0481 -0.6424
12788SOL    HW240519   2.308   8.157   5.194  0.2448  1.0162  1.1042
12789SOL     OW40520   0.670   3.497   4.272  0.4090  0.0816  0.0777
12789SOL    HW140521   0.712   3.539   4.196  2.6474  0.4910  1.4364
12789SOL    HW240522   0.586   3.542   4.280  1.8301  2.9842  0.2407
12790SOL     OW40523   7.003   6.501   4.520 -0.0415 -0.0588  0.8136
12790SOL    HW140524   6.955   6.472   4.598 -0.2443  1.2065  1.1771
12790SOL    HW240525   7.002   6.596   4.525 -0.5170  0.0729 -1.0206
12791SOL     OW40526   8.493   2.111   1.302 -0.5576 -0.1133  0.1863
12791SOL    HW140527   8.581   2.075   1.314 -0.3695  0.1138 -0.4502
12791SOL    HW240528   8.462   2.128   1.391  0.4218  0.6943  0.3924
12792SOL     OW40529   1.013   7.044   7.916 -0.7357  0.3044  0.1738
12792SOL    HW140530   1.006   7.139   7.917 -1.1503  0.2721  1.3979
12792SOL    HW240531   1.066   7.022   7.992 -0.5390 -0.4484 -0.1655
12793SOL     OW40532   2.874   4.368   0.070  0.0611  0.2921  0.1029
12793SOL    HW140533   2.873   4.401   0.160  0.9647  1.6002 -0.3348
12793SOL    HW240534   2.914   4.281   0.077  1.7164  1.0610  0.7931
12794SOL     OW40535   6.652   5.446   2.551 -0.1090  0.1304  0.7413
12794SOL    HW140536   6.707   5.510   2.594  1.0747  0.0183 -0.5322
12794SOL    HW240537   6.570   5.493   2.532 -0.5909  0.2253  2.8543
12795SOL     OW40538   2.206   2.502   8.848  0.2746 -0.1775 -0.7903
12795SOL    HW140539   2.181   2.481   8.758 -1.3531  1.4668 -0.7753
12795SOL    HW240540   2.144   2.570   8.875  1.8283  0.6094  0.9863
12796SOL     OW40541   4.678   6.677   9.490  0.0598  0.6762  0.0486
12796SOL    HW140542   4.709   6.764   9.465  0.3540  0.6597  0.3527
12796SOL    HW240543   4.714   6.663   9.577  0.0949  0.2028 -0.0427
12797SOL     OW40544   9.282   8.887   8.600 -0.1312  0.3429  0.0507
12797SOL    HW140545   9.299   8.811   8.656 -0.6428  0.4020  0.2912
12797SOL    HW240546   9.215   8.937   8.647  0.1928  0.9357 -0.1160
12798SOL     OW40547   0.533   1.958   6.606  0.1490  0.0991 -0.2690
12798SOL    HW140548   0.537   2.029   6.542 -1.0887 -0.0847 -0.5705
12798SOL    HW240549   0.513   2.001   6.689 -2.7139 -0.0007 -0.7967
12799SOL     OW40550   1.610   6.245   1.149  0.1617 -0.1255 -0.4141
12799SOL    HW140551   1.626   6.308   1.079  0.6628 -1.4081 -1.4976
12799SOL    HW240552   1.530   6.276   1.192 -0.7434  0.1516 -2.2042
12800SOL     OW40553   1.082   0.144   3.386  0.9282 -0.3253  0.6965
12800SOL    HW140554   1.127   0.060   3.374  0.6233 -0.4531  0.4633
12800SOL    HW240555   1.152   0.204   3.412  1.3641 -0.3653 -0.3305
12801SOL     OW40556   0.888   1.689   2.575 -0.7649  0.4322 -0.1497
12801SOL    HW140557   0.876   1.722   2.486 -1.3985  0.1616 -0.1689
12801SOL    HW240558   0.853   1.759   2.631  2.9656  2.3253  0.1289
12802SOL     OW40559   0.968   7.529   7.062 -0.1229 -0.0350 -0.0466
12802SOL    HW140560   1.011   7.567   7.139  1.4780 -1.2626 -0.2912
12802SOL    HW240561   0.955   7.437   7.085 -1.6145  0.0527 -0.4381
12803SOL     OW40562   4.019   9.368   1.412 -0.3298  0.7198 -0.3959
12803SOL    HW140563   4.015   9.345   1.320 -2.2840  1.6696 -0.6017
12803SOL    HW240564   4.109   9.397   1.426 -0.0141  0.5752 -1.9991
12804SOL     OW40565   0.686   7.700   0.896  0.0758 -0.1364  0.5018
12804SOL    HW140566   0.714   7.780   0.851 -2.1282 -1.0265 -2.8904
12804SOL    HW240567   0.740   7.631   0.857  1.6498 -0.4974  3.0774
12805SOL     OW40568   1.295   0.841   6.190  0.3314  0.2882 -0.1766
12805SOL    HW140569   1.309   0.749   6.208  0.6669  0.4680  0.5033
12805SOL    HW240570   1.335   0.855   6.104  0.4151 -0.1629 -0.2130
12806SOL     OW40571   5.407   8.837   0.358 -0.2374  0.7519 -0.5454
12806SOL    HW140572   5.421   8.748   0.389 -0.3143  0.3118 -1.7069
12806SOL    HW240573   5.494   8.878   0.363 -0.1129  0.4757 -0.4208
12807SOL     OW40574   3.577   2.034   0.979  0.0665 -0.3902 -0.1015
12807SOL    HW140575   3.510   1.993   0.924  0.4713 -0.8717 -0.2388
12807SOL    HW240576   3.540   2.030   1.067 -1.1238  1.4697 -0.4589
12808SOL     OW40577   0.506   9.605   8.062 -0.3068 -0.1031 -0.4587
12808SOL    HW140578   0.456   9.561   7.993 -1.8434 -0.0967  0.6010
12808SOL    HW240579   0.456   9.684   8.082  0.3872  0.1619  0.3024
12809SOL     OW40580   8.458   3.472   5.801 -0.3360  0.3193  0.0250
12809SOL    HW140581   8.471   3.469   5.896  0.9311 -0.4889 -0.1446
12809SOL    HW240582   8.372   3.433   5.787 -0.8471  1.1143  0.8914
12810SOL     OW40583   9.046   6.326   4.046 -0.0728 -0.3315  0.0223
12810SOL    HW140584   9.054   6.276   4.127 -0.0918 -1.6674 -0.7732
12810SOL    HW240585   9.006   6.409   4.073  2.0455  0.2307  1.7133
12811SOL     OW40586   4.623   0.598   2.730 -0.0630  0.3713  0.0538
12811SOL    HW140587   4.566   0.581   2.805  1.5036  0.2750  1.2582
12811SOL    HW240588   4.679   0.521   2.724 -0.0850  0.4243 -1.1736
12812SOL     OW40589   7.333   1.631   0.239 -0.0919  0.3516 -0.0211
12812SOL    HW140590   7.292   1.709   0.277 -0.8376  0.0170 -0.1311
12812SOL    HW240591   7.273   1.560   0.259  0.7624 -0.2700  0.3987
12813SOL     OW40592   5.011   1.564   4.950 -0.1146  0.6350  0.0321
12813SOL    HW140593   5.013   1.658   4.965  0.2328  0.4735  1.0816
12813SOL    HW240594   4.963   1.528   5.025  0.3188 -0.0744 -0.0192
12814SOL     OW40595   8.217   3.018   8.798 -0.8406 -0.0839  0.2830
12814SOL    HW140596   8.263   3.014   8.882  0.7308 -0.4449 -0.5514
12814SOL    HW240597   8.172   3.103   8.800 -0.2519  0.2233  1.1952
12815SOL     OW40598   1.599   3.596   2.948 -0.0909 -0.2275 -0.2198
12815SOL    HW140599   1.523   3.543   2.973  0.3897 -0.8179 -0.0070
12815SOL    HW240600   1.571   3.640   2.868 -0.8873  0.0596  0.1919
12816SOL     OW40601   3.786   1.161   9.472  0.1717  0.2462 -0.0102
12816SOL    HW140602   3.874   1.138   9.444  0.4389  0.9950  0.2011
12816SOL    HW240603   3.731   1.143   9.396  0.5183 -0.1135 -0.1803
12817SOL     OW40604   7.877   0.567   7.616 -0.1078 -0.0391  0.8284
12817SOL    HW140605   7.826   0.639   7.653 -1.6257 -0.9745  0.6503
12817SOL    HW240606   7.833   0.546   7.534  1.0772 -0.3536  0.2391
12818SOL     OW40607   2.308   8.733   1.655 -0.8240  0.2729 -0.5183
12818SOL    HW140608   2.234   8.773   1.609 -1.3406  0.1634  0.1974
12818SOL    HW240609   2.341   8.802   1.713  0.3800  0.6917 -1.6523
12819SOL     OW40610   5.471   5.646   5.380  0.0368 -0.7127  0.0856
12819SOL    HW140611   5.559   5.641   5.342  0.4566 -0.4098  1.0007
12819SOL    HW240612   5.478   5.602   5.464 -0.1418  1.1083  1.1104
12820SOL     OW40613   0.700   2.133   5.525 -0.0121  0.2775  0.9470
12820SOL    HW140614   0.737   2.208   5.571 -0.7565  1.3333 -0.1499
12820SOL    HW240615   0.611   2.125   5.559 -0.2121  0.4122  0.4596
12821SOL     OW40616   9.146   5.184   8.908  0.1355  0.0007  0.2736
12821SOL    HW140617   9.051   5.181   8.893  0.2403  2.8674 -1.6658
12821SOL    HW240618   9.177   5.100   8.874 -1.7198 -1.3111  1.6023
12822SOL     OW40619   7.246   5.138   2.091 -1.0093 -0.1511  0.3238
12822SOL    HW140620   7.338   5.114   2.083 -1.4418 -2.0342  0.5867
12822SOL    HW240621   7.209   5.119   2.005 -1.2898 -0.0078  0.4111
12823SOL     OW40622   9.404   1.925   6.577  0.5717 -0.1935 -0.0975
12823SOL    HW140623   9.438   1.847   6.620  0.4611  1.7605  3.9242
12823SOL    HW240624   9.482   1.977   6.555  0.5445 -0.2740 -0.3898
12824SOL     OW40625   7.229   5.689   6.717 -0.3058  0.9281  0.1117
12824SOL    HW140626   7.233   5.605   6.763 -0.9534  0.5399 -0.5066
12824SOL    HW240627   7.258   5.753   6.781 -0.5689  0.3287  0.8473
12825SOL     OW40628   7.153   5.081   0.402 -0.4245 -0.3508 -0.3449
12825SOL    HW140629   7.064   5.111   0.383 -0.5392  0.9997  1.9580
12825SOL    HW240630   7.141   5.008   0.463  0.0347 -1.1771 -1.2209
12826SOL     OW40631   2.799   4.200   1.847  0.0726 -0.4986 -0.4171
12826SOL    HW140632   2.822   4.214   1.939 -2.8614 -1.3867  0.5489
12826SOL    HW240633   2.858   4.258   1.799  0.3720  1.5255  2.1464
12827SOL     OW40634   3.835   2.357   1.580  0.1500 -0.1138  0.2911
12827SOL    HW140635   3.767   2.319   1.525  1.1481  1.0844 -1.9179
12827SOL    HW240636   3.850   2.444   1.543  3.6413 -0.7300 -0.1150
12828SOL     OW40637   0.251   7.172   2.971 -0.2217 -0.4578 -0.4941
12828SOL    HW140638   0.300   7.247   2.939  0.0847 -0.8173 -0.8678
12828SOL    HW240639   0.289   7.154   3.057  0.6104 -1.0091 -0.9656
12829SOL     OW40640   3.623   1.631   3.102 -0.1755  0.0634 -0.2345
12829SOL    HW140641   3.677   1.553   3.117  0.6488  0.6502 -0.0575
12829SOL    HW240642   3.686   1.701   3.090 -0.8158  0.2173 -3.4918
12830SOL     OW40643   7.162   6.915   8.800 -0.3636  0.1926 -0.3482
12830SOL    HW140644   7.225   6.844   8.787  1.9604  2.1385 -0.3467
12830SOL    HW240645   7.141   6.911   8.894  2.6341  1.6129  0.5300
12831SOL     OW40646   1.126   6.539   6.509 -0.2806  0.0273 -0.0526
12831SOL    HW140647   1.096   6.481   6.439 -0.4610  1.7269 -1.4471
12831SOL    HW240648   1.215   6.562   6.485  0.0487 -0.2157  0.8786
12832SOL     OW40649   9.154   8.373   8.646 -0.1054 -0.2653  0.5071
12832SOL    HW140650   9.140   8.320   8.568 -0.9418 -1.3039  1.3414
12832SOL    HW240651   9.152   8.311   8.718 -1.4790  0.9274  1.5439
12833SOL     OW40652   0.620   5.360   4.966 -0.0594 -0.2048  0.7354
12833SOL    HW140653   0.556   5.296   4.997  0.9330 -1.5272  0.1226
12833SOL    HW240654   0.577   5.404   4.893 -0.8161 -0.0248  1.2790
12834SOL     OW40655   0.377   0.204   8.027 -1.0557  0.2057  0.0179
12834SOL    HW140656   0.403   0.169   7.942 -0.3092  1.3690 -0.2595
12834SOL    HW240657   0.284   0.184   8.034 -0.9791 -0.4753 -0.7851
12835SOL     OW40658   2.241   0.396   8.366  0.2213 -0.3046  0.1094
12835SOL    HW140659   2.229   0.310   8.407  1.5727 -0.5216  0.0906
12835SOL    HW240660   2.293   0.379   8.288  1.5654  0.6588  0.7492
12836SOL     OW40661   1.841   9.169   0.121  0.3867  0.0953  0.0556
12836SOL    HW140662   1.762   9.191   0.071  0.6965 -2.7522 -1.9589
12836SOL    HW240663   1.884   9.103   0.067  2.0796 -1.3797  3.0324
12837SOL     OW40664   7.603   2.941   4.639  0.2945 -0.1928  0.1731
12837SOL    HW140665   7.626   3.021   4.685 -1.2377  0.6861 -0.5238
12837SOL    HW240666   7.665   2.936   4.566  1.0523 -0.2104  0.8110
12838SOL     OW40667   1.319   4.535   0.087 -0.4354 -0.1946  0.3206
12838SOL    HW140668   1.276   4.550   0.003 -0.7667  0.3275  0.5778
12838SOL    HW240669   1.366   4.452   0.076  1.2272  0.8480 -1.0724
12839SOL     OW40670   6.684   6.596   5.029 -0.1710 -0.1437 -0.0154
12839SOL    HW140671   6.752   6.566   5.089 -0.3443 -1.6084 -0.4910
12839SOL    HW240672   6.604   6.596   5.081 -0.3035 -1.3141 -0.1906
12840SOL     OW40673   9.135   7.605   8.200  0.0830 -0.4344  0.3381
12840SOL    HW140674   9.177   7.661   8.135  0.2986 -0.0965  0.7624
12840SOL    HW240675   9.132   7.519   8.159  0.5214 -0.2978  0.0135
12841SOL     OW40676   2.832   9.608   8.156 -0.1733  0.1004 -0.6896
12841SOL    HW140677   2.793   9.521   8.146 -0.4031 -0.0170  0.9040
12841SOL    HW240678   2.761   9.669   8.133 -0.3062 -0.1313 -0.8960
12842SOL     OW40679   1.877   3.070   3.119  0.5209 -0.4462 -0.6478
12842SOL    HW140680   1.930   3.066   3.199 -0.5613  0.2480  0.1380
12842SOL    HW240681   1.817   3.143   3.134 -0.2086 -0.7853 -1.7838
12843SOL     OW40682   5.633   8.406   2.108 -0.2121 -0.3964  0.0683
12843SOL    HW140683   5.575   8.415   2.032  0.4222  0.4791 -0.3341
12843SOL    HW240684   5.622   8.488   2.156  0.3319 -0.4262  0.2493
12844SOL     OW40685   0.767   7.568   6.459  0.1976  0.1366  0.0436
12844SOL    HW140686   0.813   7.484   6.462  2.0146  0.8854 -2.8177
12844SOL    HW240687   0.705   7.559   6.387  1.2120  1.5516 -1.0545
12845SOL     OW40688   6.583   2.164   4.836 -1.1527  0.1378 -0.9488
12845SOL    HW140689   6.630   2.195   4.913 -1.1012 -1.1442 -0.4236
12845SOL    HW240690   6.495   2.200   4.846 -1.7080 -1.4724  0.7443
12846SOL     OW40691   9.497   7.102   3.054 -0.0146  0.0185 -0.3329
12846SOL    HW140692   9.497   7.031   3.118 -1.2973 -0.1401 -0.4787
12846SOL    HW240693   9.404   7.123   3.042  0.3580  2.2553  0.2920
12847SOL     OW40694   2.983   9.538   5.619 -0.1252  0.2957 -0.3051
12847SOL    HW140695   2.967   9.614   5.674 -0.6488 -0.2752  0.3494
12847SOL    HW240696   2.897   9.516   5.583  0.2523  0.8198 -1.5801
12848SOL     OW40697   3.287   7.378   0.252  0.1034 -0.2781  0.4976
12848SOL    HW140698   3.374   7.349   0.223  0.4637 -1.3550  2.4829
12848SOL    HW240699   3.264   7.448   0.191  2.9822  1.0111  0.7100
12849SOL     OW40700   7.566   1.277   9.089 -0.1790 -0.1100 -0.1530
12849SOL    HW140701   7.473   1.272   9.112 -0.4812  0.5706 -1.1612
12849SOL    HW240702   7.603   1.196   9.124 -0.5540  0.8489  2.6938
12850SOL     OW40703   7.324   1.035   7.272  0.4150 -0.0581  0.0702
12850SOL    HW140704   7.270   0.956   7.264 -1.2569  1.0100  0.2814
12850SOL    HW240705   7.307   1.084   7.191  2.5750 -0.5451 -0.7385
12851SOL     OW40706   9.146   2.533   7.236 -0.5226  0.0520 -0.3524
12851SOL    HW140707   9.198   2.612   7.232 -0.9250  0.2940 -1.0685
12851SOL    HW240708   9.205   2.466   7.271  0.1557  0.4026 -0.8179
12852SOL     OW40709   1.999   8.291   2.529 -0.5995 -0.1803  0.2676
12852SOL    HW140710   1.929   8.226   2.524  0.0718 -0.8798 -0.1121
12852SOL    HW240711   2.073   8.245   2.567  0.0550  0.2105 -0.5043
12853SOL     OW40712   5.244   6.584   0.232  0.2304  0.0019  0.1738
12853SOL    HW140713   5.305   6.624   0.169  0.6798  0.0813  0.6518
12853SOL    HW240714   5.158   6.611   0.201  0.3961 -0.5663 -0.8281
12854SOL     OW40715   3.960   6.774   1.554 -0.2180  0.2913  0.2869
12854SOL    HW140716   3.932   6.716   1.482 -0.7380 -0.9353  1.4388
12854SOL    HW240717   4.034   6.823   1.517 -1.4407  0.8315 -1.5780
12855SOL     OW40718   7.331   1.147   6.343 -0.4522  1.0578 -0.2275
12855SOL    HW140719   7.330   1.074   6.281 -0.5168  1.7949 -1.1038
12855SOL    HW240720   7.366   1.109   6.424 -0.6781  0.0088 -0.6057
12856SOL     OW40721   8.824   8.124   2.083  0.2708 -0.4001 -0.1202
12856SOL    HW140722   8.757   8.056   2.077  1.1453 -1.4348  1.1136
12856SOL    HW240723   8.850   8.140   1.992 -1.3889 -0.2076 -0.5897
12857SOL     OW40724   1.300   6.511   0.185 -0.4049  0.2752 -0.2077
12857SOL    HW140725   1.232   6.534   0.247 -0.2206  0.9127 -0.2349
12857SOL    HW240726   1.290   6.416   0.171 -0.2781  0.0721  0.9911
12858SOL     OW40727   2.044   3.537   8.160  0.2389 -0.6472  0.5050
12858SOL    HW140728   2.047   3.517   8.253 -1.7150 -0.8447  0.5551
12858SOL    HW240729   2.136   3.544   8.134  0.8163 -0.9513  2.3534
12859SOL     OW40730   3.540   3.950   1.087  0.5360 -0.2400 -0.0400
12859SOL    HW140731   3.515   4.004   1.011  0.9516 -0.0123 -0.0162
12859SOL    HW240732   3.614   3.898   1.057  1.6810  0.9303  0.6333
12860SOL     OW40733   0.650   5.531   8.636  0.5443 -0.2220 -0.0567
12860SOL    HW140734   0.707   5.607   8.623 -0.4334  0.5719  0.2320
12860SOL    HW240735   0.561   5.565   8.627  0.0870 -1.7681 -2.4573
12861SOL     OW40736   6.264   1.505   3.588 -0.4815 -0.5464  0.7654
12861SOL    HW140737   6.216   1.537   3.512 -1.6228 -1.9468  0.8505
12861SOL    HW240738   6.204   1.517   3.662  0.7205  1.0792  1.5494
12862SOL     OW40739   4.979   7.201   4.273 -0.2032 -0.1146  0.3971
12862SOL    HW140740   4.989   7.117   4.227  0.2260  0.6379 -0.9503
12862SOL    HW240741   5.058   7.208   4.327  0.4372  0.0019 -0.5152
12863SOL     OW40742   5.020   6.862   9.254 -0.6985 -0.3858 -0.5629
12863SOL    HW140743   5.044   6.777   9.216 -0.0301  0.7691 -2.8818
12863SOL    HW240744   5.003   6.918   9.179  0.7114  2.0801  0.8362
12864SOL     OW40745   7.841   0.670   3.626 -0.2326 -0.4291  0.0595
12864SOL    HW140746   7.774   0.635   3.686 -0.9103 -1.5483 -1.2805
12864SOL    HW240747   7.831   0.765   3.632 -0.8244 -0.5424  1.1263
12865SOL     OW40748   5.980   7.107   4.397  0.2872 -0.4274 -0.2109
12865SOL    HW140749   6.014   7.145   4.478 -1.3376 -1.0338  0.8149
12865SOL    HW240750   6.057   7.073   4.352  1.2443  0.0628  1.0029
12866SOL     OW40751   3.752   8.474   7.879 -0.1884  0.2533 -0.0449
12866SOL    HW140752   3.697   8.424   7.819  1.1925 -0.9862 -0.3335
12866SOL    HW240753   3.835   8.485   7.832  0.5778  0.1552  1.2248
12867SOL     OW40754   6.785   2.791   3.508  0.3689  0.3292 -0.2524
12867SOL    HW140755   6.733   2.712   3.523 -0.2419  0.8471  0.4122
12867SOL    HW240756   6.797   2.829   3.595 -0.7882  1.8602 -0.7131
12868SOL     OW40757   1.703   4.112   0.515 -0.1712  0.1905  0.1352
12868SOL    HW140758   1.748   4.052   0.576  0.7069 -1.5401 -2.0840
12868SOL    HW240759   1.621   4.067   0.494  0.6151 -0.4693 -1.7564
12869SOL     OW40760   8.689   8.425   6.929  0.2986  0.4912 -0.0872
12869SOL    HW140761   8.666   8.349   6.875 -0.2147  1.5634 -1.4203
12869SOL    HW240762   8.627   8.421   7.002  0.3965 -0.4609 -0.0322
12870SOL     OW40763   5.562   4.245   1.051 -0.4448  0.1357 -0.3464
12870SOL    HW140764   5.617   4.273   0.977 -0.8911 -0.3613 -0.8782
12870SOL    HW240765   5.623   4.206   1.113 -0.1255  0.0825 -0.6906
12871SOL     OW40766   9.444   2.111   2.626 -0.0129  0.2082 -0.4943
12871SOL    HW140767   9.416   2.053   2.696  2.3876 -0.5049 -0.0664
12871SOL    HW240768   9.362   2.134   2.581 -1.2641 -1.8002  0.5922
12872SOL     OW40769   0.686   9.055   2.711 -0.4248 -0.5275  0.4566
12872SOL    HW140770   0.686   8.959   2.703  1.6714 -0.4528 -1.3684
12872SOL    HW240771   0.695   9.071   2.805  0.0593 -2.1416  0.7297
12873SOL     OW40772   8.168   8.819   6.410 -0.0148 -0.2624 -0.7394
12873SOL    HW140773   8.224   8.835   6.486  0.2839  0.9349 -1.1869
12873SOL    HW240774   8.106   8.893   6.410 -0.0390 -0.2704 -1.6212
12874SOL     OW40775   1.502   8.708   6.623 -0.8260 -0.0188  0.0918
12874SOL    HW140776   1.451   8.654   6.563 -0.5648 -0.0601 -0.0908
12874SOL    HW240777   1.585   8.723   6.578 -1.7233  2.4440 -0.8656
12875SOL     OW40778   5.395   0.489   7.678  0.2269 -0.2022  0.3795
12875SOL    HW140779   5.338   0.563   7.700 -0.4162 -1.1372  1.9922
12875SOL    HW240780   5.362   0.458   7.594  1.1511  1.9230 -0.8458
12876SOL     OW40781   1.683   1.095   2.266 -0.4166 -0.2516  0.0286
12876SOL    HW140782   1.758   1.072   2.211  0.0669 -1.4559  1.1418
12876SOL    HW240783   1.606   1.077   2.211  0.0493 -1.6454 -0.2122
12877SOL     OW40784   5.941   7.682   6.566 -0.0416  0.6695 -0.7569
12877SOL    HW140785   5.976   7.767   6.592 -0.0445  0.8008 -1.1701
12877SOL    HW240786   5.963   7.623   6.638 -0.1165  1.0395 -0.4293
12878SOL     OW40787   4.064   8.493   6.904 -0.1854  0.0772  0.0081
12878SOL    HW140788   4.000   8.562   6.917 -0.7301 -0.7062  1.7601
12878SOL    HW240789   4.097   8.473   6.991  0.5059 -1.3514 -0.5387
12879SOL     OW40790   8.599   3.556   7.085  0.1922 -0.4251  0.4988
12879SOL    HW140791   8.533   3.523   7.146  0.8815 -0.1873  1.3807
12879SOL    HW240792   8.548   3.602   7.018 -0.5959 -1.0319  0.6699
12880SOL     OW40793   6.637   8.377   9.217  0.2364  0.2029  0.5606
12880SOL    HW140794   6.550   8.415   9.230  0.7492  1.5546  0.2701
12880SOL    HW240795   6.647   8.372   9.122 -0.4050 -2.1517  0.5696
12881SOL     OW40796   6.894   8.592   8.600  0.6660  0.1370 -0.3779
12881SOL    HW140797   6.911   8.526   8.667 -1.5027  0.2795  0.3547
12881SOL    HW240798   6.799   8.597   8.594  0.7639  2.9786 -0.6388
12882SOL     OW40799   2.188   0.091   5.128 -0.1030 -0.0746  0.5123
12882SOL    HW140800   2.182   0.118   5.220  1.0735 -2.2065  1.3019
12882SOL    HW240801   2.214   0.170   5.081  0.9959  0.6816  2.2971
12883SOL     OW40802   8.890   7.490   0.990  0.5244 -0.2252  0.5871
12883SOL    HW140803   8.907   7.504   0.896  2.0424  1.0367  1.0052
12883SOL    HW240804   8.965   7.528   1.034 -1.9141  2.8991  2.5154
12884SOL     OW40805   0.111   9.224   6.615  0.3103  1.0505  0.4489
12884SOL    HW140806   0.113   9.242   6.709  0.3873 -0.6129  0.8000
12884SOL    HW240807   0.110   9.129   6.609 -0.2863  1.1256 -1.2321
12885SOL     OW40808   0.679   9.497   1.012  0.3617  0.5269 -0.1359
12885SOL    HW140809   0.600   9.449   1.038  1.0064 -0.7359 -0.3922
12885SOL    HW240810   0.656   9.538   0.929  0.2586 -0.6582 -0.7202
12886SOL     OW40811   6.623   2.192   0.899 -0.6076 -0.6359  0.7042
12886SOL    HW140812   6.655   2.132   0.967  0.6223 -2.0151 -1.0202
12886SOL    HW240813   6.698   2.249   0.881 -0.1367 -1.7381 -1.0325
12887SOL     OW40814   2.672   1.761   8.294 -0.1230 -0.3369 -0.2418
12887SOL    HW140815   2.714   1.784   8.377  2.1397 -2.4277 -0.7110
12887SOL    HW240816   2.732   1.793   8.227 -0.9209 -0.4746 -1.0357
12888SOL     OW40817   9.044   7.012   6.346 -0.3624 -0.2622  0.2013
12888SOL    HW140818   9.048   7.013   6.250  0.9962 -0.6029  0.2485
12888SOL    HW240819   9.102   7.083   6.373 -2.9393  1.8017  0.7537
12889SOL     OW40820   6.853   9.247   2.245  0.0150 -0.1566 -0.2616
12889SOL    HW140821   6.917   9.205   2.304  0.4808  0.8803 -0.0168
12889SOL    HW240822   6.782   9.274   2.302 -0.1489 -0.3424 -0.3769
12890SOL     OW40823   6.452   4.696   4.130 -0.0273 -0.2261  0.9400
12890SOL    HW140824   6.480   4.661   4.215  0.9879 -0.7884  0.3999
12890SOL    HW240825   6.478   4.788   4.133  0.6707 -0.4200  0.9671
12891SOL     OW40826   3.663   0.616   7.274 -0.2275 -0.8100 -0.1916
12891SOL    HW140827   3.620   0.682   7.330 -1.0148 -1.0613 -0.4987
12891SOL    HW240828   3.746   0.599   7.319 -0.8853 -1.0848  0.9778
12892SOL     OW40829   9.363   5.889   5.572 -0.0190 -0.7477 -0.2931
12892SOL    HW140830   9.271   5.868   5.557 -0.4309 -1.4482  2.5920
12892SOL    HW240831   9.394   5.822   5.633  2.2040 -0.0854 -0.5808
12893SOL     OW40832   3.943   2.314   6.460 -0.3149 -0.1089 -0.3908
12893SOL    HW140833   3.941   2.344   6.550  1.6750 -0.7450 -0.0897
12893SOL    HW240834   3.903   2.385   6.410 -0.7107  0.5946  0.8928
12894SOL     OW40835   7.614   1.348   2.135 -0.4121  0.1011  0.1420
12894SOL    HW140836   7.653   1.417   2.081 -0.0564 -0.1012  0.1380
12894SOL    HW240837   7.686   1.286   2.151 -1.3720 -1.7536 -2.1921
12895SOL     OW40838   8.789   6.122   8.821  0.1454  0.2264  0.3162
12895SOL    HW140839   8.721   6.182   8.790 -0.8536 -1.3982 -0.7776
12895SOL    HW240840   8.817   6.159   8.904 -0.1579  2.4013 -0.4751
12896SOL     OW40841   0.227   0.351   9.173 -0.4241  0.7964  0.1529
12896SOL    HW140842   0.260   0.294   9.103  0.3823  0.3244  0.8853
12896SOL    HW240843   0.256   0.308   9.254 -1.0650  1.4940  0.7690
12897SOL     OW40844   0.400   1.703   6.301  0.7589  0.1339 -0.0564
12897SOL    HW140845   0.445   1.624   6.273  1.0938  0.5198 -0.6358
12897SOL    HW240846   0.459   1.774   6.276  0.1958  0.5979 -0.0860
12898SOL     OW40847   3.216   6.466   7.440  0.5411 -0.4646 -0.2591
12898SOL    HW140848   3.294   6.506   7.401  0.4390  0.0482  0.0538
12898SOL    HW240849   3.202   6.386   7.389  1.2212 -0.5171 -0.3753
12899SOL     OW40850   9.340   2.344   7.288  0.2204 -0.2163 -0.5151
12899SOL    HW140851   9.403   2.360   7.219 -0.2544 -0.6216 -1.0506
12899SOL    HW240852   9.309   2.255   7.273  0.2841 -0.3970  0.3609
12900SOL     OW40853   8.342   4.078   0.636 -0.8457 -0.4631 -0.5497
12900SOL    HW140854   8.273   4.011   0.632 -0.4283 -0.9539  0.2337
12900SOL    HW240855   8.417   4.033   0.676 -1.1759  0.9355  1.8607
12901SOL     OW40856   4.734   8.677   7.577  0.1940 -0.2456 -0.5345
12901SOL    HW140857   4.782   8.686   7.660  1.5616  2.1704 -1.5004
12901SOL    HW240858   4.645   8.651   7.604  0.8508 -0.5036  1.5885
12902SOL     OW40859   8.802   4.030   3.811  0.4514  0.1611 -0.5382
12902SOL    HW140860   8.871   3.990   3.864 -0.4891 -1.5361 -0.4983
12902SOL    HW240861   8.839   4.037   3.723  1.3781  1.2420 -0.0745
12903SOL     OW40862   9.492   2.982   4.506  0.9057  0.0941 -0.4214
12903SOL    HW140863   9.565   2.923   4.525  0.3570 -1.4451 -2.6648
12903SOL    HW240864   9.522   3.033   4.431  0.4942  1.0610  0.0558
12904SOL     OW40865   2.337   5.351   6.846  0.2904  0.8413  0.2115
12904SOL    HW140866   2.369   5.277   6.794  0.5108 -0.7341  2.4335
12904SOL    HW240867   2.416   5.399   6.870  0.1235  2.0687 -1.4876
12905SOL     OW40868   3.318   6.695   6.764  0.0572 -0.1857 -0.2816
12905SOL    HW140869   3.345   6.626   6.825 -3.7187 -0.2418  1.6247
12905SOL    HW240870   3.342   6.662   6.678  2.5851 -1.6540  0.8887
12906SOL     OW40871   7.961   6.463   1.396 -0.2444 -0.6030  0.3894
12906SOL    HW140872   7.982   6.553   1.371 -0.8111 -0.5303  0.1446
12906SOL    HW240873   7.971   6.412   1.316 -2.3514 -0.3208 -0.1299
12907SOL     OW40874   7.221   7.711   9.592 -0.1513 -0.3292 -0.7233
12907SOL    HW140875   7.223   7.766   9.670 -2.1445 -0.9745 -0.1762
12907SOL    HW240876   7.309   7.673   9.588  0.5354  1.0865  0.1805
12908SOL     OW40877   7.442   3.065   6.961 -0.1991  0.3393 -0.4029
12908SOL    HW140878   7.348   3.069   6.982 -0.0662  0.6934  0.1386
12908SOL    HW240879   7.473   3.154   6.975  0.0327  0.4534 -1.5165
12909SOL     OW40880   2.033   4.969   9.630 -0.3298  0.0400 -0.6972
12909SOL    HW140881   2.041   5.015   9.714 -0.3947 -0.4804 -0.3948
12909SOL    HW240882   2.073   5.028   9.566  1.4712 -0.3543 -0.0088
12910SOL     OW40883   0.092   7.022   7.768  0.1693  0.0049  0.0513
12910SOL    HW140884   0.045   6.971   7.834  0.0663  1.1992  0.9312
12910SOL    HW240885   0.086   7.112   7.798  0.2634  0.5663 -1.5250
12911SOL     OW40886   0.300   0.456   8.031  0.0579  0.4197  0.3944
12911SOL    HW140887   0.215   0.413   8.027  0.0066  0.2159  2.3373
12911SOL    HW240888   0.363   0.385   8.043  0.7349  0.4446 -2.3475
12912SOL     OW40889   6.012   3.345   3.444 -0.0059  0.1657 -0.2763
12912SOL    HW140890   6.081   3.279   3.435 -1.3557 -1.0664 -2.7977
12912SOL    HW240891   6.038   3.414   3.383 -1.6845 -1.0668 -2.5317
12913SOL     OW40892   7.642   8.262   0.504  0.1321 -0.1962 -0.4461
12913SOL    HW140893   7.654   8.238   0.412  1.6870 -0.2583 -0.2555
12913SOL    HW240894   7.611   8.352   0.502  0.9334  0.0735 -1.0240
12914SOL     OW40895   5.861   2.075   8.658 -0.2336  0.2477 -0.0771
12914SOL    HW140896   5.790   2.080   8.594  0.9563  1.1046 -1.3865
12914SOL    HW240897   5.872   1.981   8.675  0.6158 -0.1525 -2.5391
12915SOL     OW40898   0.224   8.500   3.170 -0.1192  0.0845 -0.0732
12915SOL    HW140899   0.264   8.490   3.083 -0.7276  0.7516 -0.4401
12915SOL    HW240900   0.217   8.410   3.203  0.7970 -0.1187 -0.3950
12916SOL     OW40901   4.978   5.163   7.227 -0.1563  0.2559 -0.5222
12916SOL    HW140902   5.027   5.118   7.296 -1.1659 -0.5654 -0.3298
12916SOL    HW240903   5.046   5.192   7.165  0.7089  0.5121  0.5151
12917SOL     OW40904   7.440   5.691   0.018 -0.2600  0.1271  0.3294
12917SOL    HW140905   7.355   5.651  -0.002  0.6586 -0.7179 -2.3450
12917SOL    HW240906   7.503   5.621   0.006  1.0010  1.2677  0.0336
12918SOL     OW40907   1.523   6.218   6.786 -0.1941  0.2037 -0.3549
12918SOL    HW140908   1.607   6.258   6.808  0.0885  0.0449 -1.0975
12918SOL    HW240909   1.528   6.129   6.821  0.2205 -0.0256 -0.9762
12919SOL     OW40910   8.666   3.269   3.852 -0.0194 -0.0300 -0.0185
12919SOL    HW140911   8.614   3.312   3.920  0.9925  1.3061 -0.0496
12919SOL    HW240912   8.679   3.336   3.785  0.6519 -0.7282 -0.6086
12920SOL     OW40913   2.420   2.694   0.782 -0.1873  0.4063  0.0629
12920SOL    HW140914   2.335   2.737   0.789  0.0756  0.8305  0.7659
12920SOL    HW240915   2.414   2.620   0.842  0.0360  0.6025  0.3278
12921SOL     OW40916   1.574   5.414   3.979  0.1861  0.2850  0.3658
12921SOL    HW140917   1.590   5.479   3.910  0.4272 -0.3960 -0.2426
12921SOL    HW240918   1.553   5.334   3.931  0.3524 -0.2037  1.0934
12922SOL     OW40919   4.436   2.926   4.002  0.0398 -0.2304  0.4873
12922SOL    HW140920   4.346   2.944   3.974  0.6464  2.0813 -0.1973
12922SOL    HW240921   4.427   2.896   4.093 -1.3107  2.6219  1.4157
12923SOL     OW40922   8.568   7.019   3.093  0.4689 -0.4626 -0.0923
12923SOL    HW140923   8.522   7.103   3.092  1.2795 -0.0130 -0.6249
12923SOL    HW240924   8.565   6.992   3.185  4.5491  2.6380  1.2285
12924SOL     OW40925   2.730   8.757   1.653 -0.1082 -0.2687 -0.1861
12924SOL    HW140926   2.815   8.785   1.620  0.7762 -1.3227  1.0719
12924SOL    HW240927   2.704   8.684   1.597 -1.1550  1.2564 -1.7922
12925SOL     OW40928   1.913   4.772   7.396 -0.1472  0.4398  0.0583
12925SOL    HW140929   1.939   4.843   7.455  0.4180  0.8774 -0.7122
12925SOL    HW240930   1.996   4.730   7.371 -0.3218  0.7165 -0.9987
12926SOL     OW40931   0.235   2.472   0.387 -0.0802  0.1414 -0.6043
12926SOL    HW140932   0.268   2.434   0.469  2.1123 -0.2739 -1.5852
12926SOL    HW240933   0.150   2.429   0.374  0.5525 -1.5233  0.3156
12927SOL     OW40934   5.815   4.655   4.097 -0.3685  0.3677 -0.9994
12927SOL    HW140935   5.803   4.566   4.062  1.8146  0.2580 -1.6372
12927SOL    HW240936   5.901   4.652   4.140 -1.0383  1.7229  0.5137
12928SOL     OW40937   5.674   8.821   6.973  0.1461  0.0271  0.5617
12928SOL    HW140938   5.630   8.904   6.956  0.6086  0.0464 -0.6942
12928SOL    HW240939   5.766   8.838   6.955  0.4513 -0.4128  1.6377
12929SOL     OW40940   6.499   7.656   3.217  0.0792  0.1012  0.1930
12929SOL    HW140941   6.550   7.657   3.298  1.9401  0.4748 -0.9401
12929SOL    HW240942   6.527   7.577   3.171 -2.2351 -1.0796  0.6101
12930SOL     OW40943   4.126   4.424   2.475 -0.4030  0.1408  0.0664
12930SOL    HW140944   4.074   4.411   2.554  0.6825 -1.7369  0.5453
12930SOL    HW240945   4.145   4.335   2.444  2.1112  0.7236 -0.2990
12931SOL     OW40946   2.894   9.557   4.100 -0.0523  0.6274  0.4712
12931SOL    HW140947   2.807   9.541   4.063 -0.3492 -0.1135  1.4323
12931SOL    HW240948   2.937   9.471   4.098 -0.3093  0.4224  2.3751
12932SOL     OW40949   1.290   0.091   5.942  0.5499  0.2692  0.1399
12932SOL    HW140950   1.357   0.115   6.005  2.2268 -1.6465 -0.8169
12932SOL    HW240951   1.221   0.050   5.994  1.0576  0.3996  0.9289
12933SOL     OW40952   7.971   2.306   3.131 -0.0702 -0.3204  0.0332
12933SOL    HW140953   8.042   2.367   3.152  0.6043 -1.1151  0.1534
12933SOL    HW240954   7.938   2.335   3.046 -0.1539  0.5481  0.3542
12934SOL     OW40955   8.660   2.113   5.407  0.0477  0.5548 -0.0705
12934SOL    HW140956   8.749   2.078   5.413 -0.0170  0.4700  0.4210
12934SOL    HW240957   8.670   2.195   5.359  0.4790  0.8357  0.4761
12935SOL     OW40958   2.351   2.263   7.931  0.1176 -0.2740  0.2685
12935SOL    HW140959   2.445   2.257   7.951  0.8519 -0.1520 -2.6565
12935SOL    HW240960   2.315   2.178   7.957  1.0752 -0.3742  1.2977
12936SOL     OW40961   3.619   1.137   6.755  0.0871  0.2820 -0.9491
12936SOL    HW140962   3.541   1.193   6.758  0.5031  0.8846 -1.2636
12936SOL    HW240963   3.650   1.134   6.845 -0.0180  0.4407 -0.9075
12937SOL     OW40964   0.052   1.692   5.025 -0.1021 -0.4560 -0.3346
12937SOL    HW140965  -0.017   1.661   5.083  0.8585 -2.5390 -0.2113
12937SOL    HW240966   0.131   1.646   5.054  0.7246 -0.4539 -2.3576
12938SOL     OW40967   9.529   3.738   2.138 -0.3823 -0.3552 -0.2925
12938SOL    HW140968   9.570   3.820   2.111  2.0821 -1.1590  0.6702
12938SOL    HW240969   9.593   3.698   2.198 -3.0183 -1.3647  2.0602
12939SOL     OW40970   0.572   2.470   6.980 -0.5445  0.1288  0.7056
12939SOL    HW140971   0.645   2.419   6.945 -0.0050  1.2677  0.1330
12939SOL    HW240972   0.541   2.522   6.907  0.0458  1.9033  1.6494
12940SOL     OW40973   0.046   1.148   5.348  0.0847 -0.1606  0.0993
12940SOL    HW140974   0.012   1.065   5.380 -0.1094 -0.0200  0.2590
12940SOL    HW240975   0.042   1.206   5.424 -0.5807  0.2392 -0.2311
12941SOL     OW40976   2.090   9.239   0.861 -0.6675  0.0206  0.2117
12941SOL    HW140977   2.010   9.276   0.898  0.4908  0.8351  2.0918
12941SOL    HW240978   2.160   9.286   0.906  0.9419  1.1450 -3.1476
12942SOL     OW40979   0.799   4.614   9.385  0.4836 -0.3228 -0.3893
12942SOL    HW140980   0.887   4.653   9.389  0.0697  0.5520  0.8328
12942SOL    HW240981   0.783   4.583   9.474 -0.8884  0.5526 -0.3065
12943SOL     OW40982   9.294   5.699   3.156  0.3048  0.0125 -0.5096
12943SOL    HW140983   9.327   5.642   3.226  0.8395 -0.8584 -1.4368
12943SOL    HW240984   9.200   5.683   3.155  0.3932 -0.5517 -0.4787
12944SOL     OW40985   2.313   7.401   6.271  0.4469 -0.0472 -0.2245
12944SOL    HW140986   2.370   7.324   6.273  0.9855  0.3483 -0.1456
12944SOL    HW240987   2.349   7.458   6.339  0.5550  0.6319 -0.8421
12945SOL     OW40988   5.331   3.211   2.050  0.8359 -0.6040 -0.0228
12945SOL    HW140989   5.391   3.152   2.095  0.9820 -0.2077  0.3048
12945SOL    HW240990   5.378   3.294   2.045 -0.0937  0.0281  1.1997
12946SOL     OW40991   8.155   8.845   7.955  0.1079 -0.2169  0.0906
12946SOL    HW140992   8.109   8.919   7.916  0.6373 -0.3188 -0.7450
12946SOL    HW240993   8.240   8.843   7.910  1.1972  0.3371  1.9922
12947SOL     OW40994   0.141   4.241   2.175  0.5457  0.0669  0.0376
12947SOL    HW140995   0.157   4.327   2.215 -0.8503 -0.1311  1.0949
12947SOL    HW240996   0.200   4.182   2.221  1.0613  0.3421 -0.2578
12948SOL     OW40997   8.093   6.695   1.273  0.3234 -0.0842 -0.2778
12948SOL    HW140998   8.186   6.708   1.254  0.5350 -1.9349 -0.7453
12948SOL    HW240999   8.072   6.763   1.337  2.5077 -0.7701  1.3370
12949SOL     OW41000   2.539   1.676   5.269 -0.0899 -0.6957 -0.2239
12949SOL    HW141001   2.473   1.743   5.285  1.3594  1.1539 -1.5521
12949SOL    HW241002   2.588   1.672   5.351 -1.7597 -2.1006  0.7847
12950SOL     OW41003   8.580   2.645   8.063 -0.0083  0.6893  0.4041
12950SOL    HW141004   8.562   2.703   8.138  0.0346  0.0275  0.9327
12950SOL    HW241005   8.502   2.591   8.055 -0.4651  1.4723 -0.7219
12951SOL     OW41006   1.718   0.900   4.225  0.6924 -0.0181  0.1874
12951SOL    HW141007   1.696   0.991   4.205 -0.9381 -0.6485 -1.1159
12951SOL    HW241008   1.723   0.858   4.139  1.2022 -1.2040  0.7902
12952SOL     OW41009   3.288   8.851   1.096  0.6091 -0.2765  0.0892
12952SOL    HW141010   3.194   8.832   1.094  0.9208 -2.2981  1.3030
12952SOL    HW241011   3.293   8.944   1.117 -1.1125  0.1444 -1.1706
12953SOL     OW41012   5.979   5.753   6.606  0.8815 -0.2204  0.1451
12953SOL    HW141013   6.067   5.717   6.614  0.2589 -1.9300 -0.3013
12953SOL    HW241014   5.976   5.790   6.518  1.3112  0.2916  0.3466
12954SOL     OW41015   5.748   3.256   9.020  0.3753  0.3774 -0.7365
12954SOL    HW141016   5.840   3.255   8.993  0.0955 -0.7819 -1.6965
12954SOL    HW241017   5.705   3.195   8.961 -0.5442 -1.1600  1.4026
12955SOL     OW41018   3.869   0.437   3.272  0.5017 -0.1146  0.1148
12955SOL    HW141019   3.825   0.522   3.269  0.8384  0.0557  0.0138
12955SOL    HW241020   3.807   0.376   3.231 -0.3465 -0.1886  1.4343
12956SOL     OW41021   3.001   7.629   2.257 -0.1519  0.1000 -0.1895
12956SOL    HW141022   3.075   7.586   2.215 -1.4114 -2.3109 -0.1436
12956SOL    HW241023   3.038   7.706   2.299  2.1425 -0.5153 -0.9433
12957SOL     OW41024   7.605   9.601   5.415  0.4484 -0.3542 -0.0030
12957SOL    HW141025   7.521   9.618   5.373  0.6766 -0.7817 -0.6468
12957SOL    HW241026   7.612   9.669   5.483  0.5684  1.0328 -1.3501
12958SOL     OW41027   1.878   7.224   4.086  0.2323 -0.1000 -0.8727
12958SOL    HW141028   1.959   7.219   4.035 -0.2943  1.0928 -1.8590
12958SOL    HW241029   1.895   7.291   4.152  0.1288 -0.0127 -0.9339
12959SOL     OW41030   7.107   6.697   8.353  0.2261  0.5076  0.3769
12959SOL    HW141031   7.180   6.732   8.404 -0.0654  1.1837  0.3405
12959SOL    HW241032   7.065   6.633   8.411 -0.3312  1.5422  1.1502
12960SOL     OW41033   9.572   8.416   2.823 -0.7942 -0.1466 -0.0715
12960SOL    HW141034   9.562   8.373   2.909 -2.5247  0.0919 -0.1294
12960SOL    HW241035   9.534   8.503   2.835 -1.1173 -0.1346 -1.0987
12961SOL     OW41036   2.742   1.005   1.826  0.3150  0.0217  0.1685
12961SOL    HW141037   2.730   0.991   1.732  0.2044  0.4133  0.1238
12961SOL    HW241038   2.801   1.080   1.831  1.1985 -0.6714  0.4004
12962SOL     OW41039   4.023   1.506   5.361 -0.3335  0.1931  0.0259
12962SOL    HW141040   4.117   1.520   5.376 -0.8083  2.1119  1.8087
12962SOL    HW241041   3.997   1.445   5.430 -0.5656  0.3900  0.1124
12963SOL     OW41042   5.115   7.677   5.390 -0.6311  0.0009  0.5854
12963SOL    HW141043   5.206   7.697   5.410 -0.5685  0.1818  0.1294
12963SOL    HW241044   5.089   7.616   5.459  0.2244 -1.0775 -0.0177
12964SOL     OW41045   8.433   2.923   2.826 -0.4329 -0.0875  0.2629
12964SOL    HW141046   8.432   2.830   2.804  0.4910 -0.2183  0.7181
12964SOL    HW241047   8.354   2.936   2.878  0.9993 -1.3471  2.9299
12965SOL     OW41048   7.839   4.101   4.353 -0.1970  0.3682 -0.0184
12965SOL    HW141049   7.775   4.033   4.376 -1.9896  1.6529 -0.9696
12965SOL    HW241050   7.897   4.059   4.289 -0.5885 -0.5896  0.2394
12966SOL     OW41051   8.401   6.502   2.467  0.6752  0.1613 -0.3463
12966SOL    HW141052   8.381   6.428   2.409 -0.1340  0.2917 -0.2434
12966SOL    HW241053   8.485   6.536   2.434  0.1794  0.3070 -1.5230
12967SOL     OW41054   2.972   9.293   5.386  0.4534  0.2239 -0.2141
12967SOL    HW141055   2.884   9.330   5.383  0.3823  0.0133 -0.7837
12967SOL    HW241056   3.013   9.335   5.462 -0.6839 -0.8895  1.0647
12968SOL     OW41057   6.544   4.975   1.118 -0.1934 -0.3070 -0.2036
12968SOL    HW141058   6.507   5.042   1.176  0.9646  0.0318  0.1821
12968SOL    HW241059   6.598   4.921   1.176  1.6751  0.5472 -1.0666
12969SOL     OW41060   4.103   6.515   4.262  0.3229 -0.5584  0.1252
12969SOL    HW141061   4.067   6.520   4.351 -2.2628  0.3991 -0.8885
12969SOL    HW241062   4.140   6.427   4.257  1.6944 -0.2088  2.5238
12970SOL     OW41063   5.556   2.605   0.084 -0.9816  0.1172  0.0237
12970SOL    HW141064   5.569   2.582   0.175  0.9198 -0.2828 -0.3157
12970SOL    HW241065   5.471   2.649   0.082 -2.5984 -2.6895  1.4410
12971SOL     OW41066   5.055   7.669   2.985 -0.1969  0.6593  0.1251
12971SOL    HW141067   5.089   7.694   2.900  2.1201 -0.1567  0.7246
12971SOL    HW241068   5.103   7.724   3.047  0.0109 -0.4972  1.0221
12972SOL     OW41069   3.772   1.459   7.721  0.0096 -0.8330 -0.0898
12972SOL    HW141070   3.732   1.376   7.748 -0.7770 -0.7307 -0.8649
12972SOL    HW241071   3.717   1.526   7.762  0.7585 -0.6873  0.6900
12973SOL     OW41072   7.490   2.835   9.613  0.0970 -0.6034 -0.2623
12973SOL    HW141073   7.539   2.912   9.640 -0.3775 -0.6668  0.8379
12973SOL    HW241074   7.419   2.869   9.559  0.9767 -0.4606 -1.3638
12974SOL     OW41075   7.478   6.120   2.204  0.7270  0.1929 -0.4956
12974SOL    HW141076   7.498   6.129   2.111  0.0764  1.4179 -0.5307
12974SOL    HW241077   7.537   6.051   2.235  1.2536  0.0814 -1.7145
12975SOL     OW41078   9.273   1.490   1.365  0.8858 -0.3487  0.4950
12975SOL    HW141079   9.299   1.418   1.307 -3.4159 -0.6240 -1.4940
12975SOL    HW241080   9.318   1.566   1.330 -0.2297 -0.8286 -2.3129
12976SOL     OW41081   1.707   8.280   8.401  0.5181 -0.1069  0.0245
12976SOL    HW141082   1.656   8.301   8.323 -1.0631 -1.0526  0.7562
12976SOL    HW241083   1.793   8.254   8.368  0.6219  1.6216 -1.2402
12977SOL     OW41084   6.979   8.028   9.243 -0.5026  0.6840  0.2503
12977SOL    HW141085   7.046   7.988   9.188 -1.9135 -5.3609  2.1689
12977SOL    HW241086   6.903   8.036   9.184 -0.5710 -1.0682  0.0221
12978SOL     OW41087   8.287   6.777   5.752  0.0572 -0.4853 -0.4318
12978SOL    HW141088   8.256   6.832   5.680  2.7047  0.1258 -1.2327
12978SOL    HW241089   8.341   6.710   5.709 -0.7154 -1.9569  0.7846
12979SOL     OW41090   3.174   5.425   6.548 -0.0324  0.2118 -0.5139
12979SOL    HW141091   3.085   5.426   6.511  0.4384 -2.5252 -1.9936
12979SOL    HW241092   3.228   5.466   6.480  0.0187  0.9310 -0.0547
12980SOL     OW41093   5.173   4.924   5.912 -0.5336 -0.3542 -0.1941
12980SOL    HW141094   5.262   4.888   5.906  0.0454  0.9762  0.0160
12980SOL    HW241095   5.117   4.847   5.928  0.8703 -0.9694  2.1847
12981SOL     OW41096   9.021   4.993   6.993 -0.4750 -0.0200  0.1366
12981SOL    HW141097   8.963   5.029   7.060  0.0751  0.0908  0.5571
12981SOL    HW241098   9.098   4.962   7.042  0.5447  1.3056 -0.5863
12982SOL     OW41099   1.320   0.584   6.073 -0.5583 -0.3445  0.3043
12982SOL    HW141100   1.357   0.552   5.990  2.2342  3.2634 -0.0891
12982SOL    HW241101   1.385   0.558   6.139  0.2342  1.7495  0.3996
12983SOL     OW41102   0.664   0.103   7.398  0.0789 -0.3554 -0.0093
12983SOL    HW141103   0.581   0.119   7.443 -0.4750 -1.1632 -0.7187
12983SOL    HW241104   0.721   0.065   7.465  0.0686  0.6880  0.6153
12984SOL     OW41105   5.925   4.054   1.078  0.2318  0.1172  0.1492
12984SOL    HW141106   5.904   4.054   1.171 -0.3261 -0.3311  0.0311
12984SOL    HW241107   5.956   4.143   1.060 -1.6658  0.8449  0.3212
12985SOL     OW41108   2.125   5.428   7.221  0.3141  0.1654  0.5354
12985SOL    HW141109   2.114   5.333   7.233  0.1720  0.2264  0.9172
12985SOL    HW241110   2.137   5.439   7.127 -1.1930 -0.0847  0.2742
12986SOL     OW41111   0.298   7.302   7.530 -0.0088 -0.6723 -0.2151
12986SOL    HW141112   0.247   7.292   7.449  0.0165 -0.3673 -0.2713
12986SOL    HW241113   0.334   7.215   7.546 -1.2181 -1.1102  0.2763
12987SOL     OW41114   4.361   7.394   4.790  0.0430 -0.6997 -0.2294
12987SOL    HW141115   4.312   7.442   4.856  1.5019 -3.0589  2.8108
12987SOL    HW241116   4.297   7.336   4.750 -0.4150 -1.0894  1.0282
12988SOL     OW41117   7.245   6.091   7.546 -0.5559  0.2003  0.4628
12988SOL    HW141118   7.165   6.101   7.597  0.3739  1.2573  1.7788
12988SOL    HW241119   7.306   6.046   7.606  0.3133  0.7765  0.0338
12989SOL     OW41120   4.078   7.427   6.913 -0.2469  0.4851 -0.3012
12989SOL    HW141121   4.151   7.462   6.861 -0.5732  0.5098 -0.7482
12989SOL    HW241122   4.084   7.332   6.901 -2.0488  0.5943 -2.7968
12990SOL     OW41123   2.167   3.615   3.065  0.7813  0.8179  0.2679
12990SOL    HW141124   2.163   3.615   2.970 -0.3413 -0.7882  0.2718
12990SOL    HW241125   2.260   3.614   3.086  1.0396 -0.2258 -0.8482
12991SOL     OW41126   0.802   3.112   1.229  0.2121 -0.4787 -0.1437
12991SOL    HW141127   0.879   3.078   1.274  1.4146  2.5175  0.2769
12991SOL    HW241128   0.836   3.145   1.145 -0.4371  1.4749  0.3239
12992SOL     OW41129   2.689   3.575   2.725 -0.0923  0.2127 -0.8337
12992SOL    HW141130   2.719   3.650   2.776 -2.2215  0.4061  0.2630
12992SOL    HW241131   2.763   3.515   2.725  1.7025  2.2745 -1.7648
12993SOL     OW41132   7.426   8.902   9.157 -0.4045 -0.0902  0.0271
12993SOL    HW141133   7.420   8.883   9.251  0.2402  0.0133  0.0927
12993SOL    HW241134   7.486   8.836   9.123  1.9940  1.8352  0.2775
12994SOL     OW41135   0.626   7.571   1.939 -0.1656 -0.2347 -0.1657
12994SOL    HW141136   0.720   7.584   1.928  0.0443  0.0254  1.6717
12994SOL    HW241137   0.604   7.500   1.878  1.0534  0.2338 -1.1891
12995SOL     OW41138   2.791   7.004   9.106  0.4042 -0.1330 -0.3014
12995SOL    HW141139   2.834   7.020   9.022  3.3366  1.0933  1.2855
12995SOL    HW241140   2.733   7.079   9.118  0.5867  0.1002 -0.8544
12996SOL     OW41141   0.460   6.966   1.595 -0.1900  0.5282 -0.2923
12996SOL    HW141142   0.455   7.060   1.580 -1.1452  0.4482 -0.5323
12996SOL    HW241143   0.554   6.948   1.603 -0.0388  1.7038  1.0902
12997SOL     OW41144   3.523   6.341   9.044  0.4924 -0.2608  0.3439
12997SOL    HW141145   3.462   6.269   9.060 -1.0330  0.4571 -1.8360
12997SOL    HW241146   3.591   6.303   8.990  0.3868 -0.3774  0.2923
12998SOL     OW41147   3.373   1.554   4.123 -0.0297 -0.1212 -0.3111
12998SOL    HW141148   3.390   1.460   4.128  2.9853  0.2366 -1.4237
12998SOL    HW241149   3.439   1.593   4.181 -2.0751  1.3370  1.1958
12999SOL     OW41150   3.930   7.094   4.014 -0.0612  0.1455  0.0718
12999SOL    HW141151   3.903   7.133   3.930 -1.5770 -1.0954 -0.0566
12999SOL    HW241152   3.876   7.016   4.022  0.5711 -0.1343  1.8925
13000SOL     OW41153   5.792   5.153   5.238  0.1411 -0.3929 -0.4252
13000SOL    HW141154   5.723   5.089   5.254 -0.2862  0.4643  1.3715
13000SOL    HW241155   5.856   5.105   5.185 -1.6856 -1.2705 -1.9782
13001SOL     OW41156   6.946   0.691   8.446  0.6181 -0.1250 -0.3530
13001SOL    HW141157   7.007   0.760   8.421  1.9378 -1.3538 -0.7005
13001SOL    HW241158   6.886   0.685   8.372  0.5800  0.5398 -0.3832
13002SOL     OW41159   7.124   2.104   5.798 -0.3270 -0.1159 -0.6917
13002SOL    HW141160   7.192   2.123   5.863  1.7130 -3.4465 -1.5818
13002SOL    HW241161   7.142   2.165   5.726 -0.6664  1.4973  0.5256
13003SOL     OW41162   7.094   5.347   2.428  0.4586  0.2149 -0.4048
13003SOL    HW141163   7.042   5.267   2.424  1.0851 -0.4008  2.0147
13003SOL    HW241164   7.176   5.321   2.469 -0.2035  2.3735  2.7149
13004SOL     OW41165   3.441   7.486   8.900 -0.4578 -0.0931 -0.5276
13004SOL    HW141166   3.368   7.530   8.858  0.6960  0.8507 -1.6469
13004SOL    HW241167   3.473   7.548   8.966 -0.0977 -0.1032 -0.6882
13005SOL     OW41168   4.282   3.490   0.176 -0.1247  0.8794  0.4608
13005SOL    HW141169   4.272   3.414   0.233  1.3685  0.0233 -0.3538
13005SOL    HW241170   4.299   3.563   0.236 -1.9218  0.6802  1.2693
13006SOL     OW41171   2.818   1.531   7.710  0.2559  0.0028 -0.6750
13006SOL    HW141172   2.881   1.599   7.736 -0.4704  0.5420 -0.2756
13006SOL    HW241173   2.814   1.472   7.785 -2.3211  1.9095  0.8492
13007SOL     OW41174   6.925   4.598   6.354 -0.6471 -0.3248 -0.0728
13007SOL    HW141175   6.998   4.646   6.314 -2.2994  0.4636 -2.3824
13007SOL    HW241176   6.932   4.510   6.318 -1.9863  0.3180 -2.0714
13008SOL     OW41177   5.443   0.098   4.788 -0.6073  0.9517 -0.3760
13008SOL    HW141178   5.466   0.044   4.863 -1.0783 -0.2984 -1.1060
13008SOL    HW241179   5.502   0.174   4.794 -0.2598  0.5940  0.9222
13009SOL     OW41180   5.191   8.088   2.419 -0.7200  0.1987  0.5246
13009SOL    HW141181   5.216   8.062   2.507 -0.7331  1.6797  0.9970
13009SOL    HW241182   5.156   8.008   2.379 -0.1546 -0.6336  1.6458
13010SOL     OW41183   9.562   0.828   0.893  0.0647  0.5146 -0.2657
13010SOL    HW141184   9.562   0.771   0.969 -1.2492  0.0029 -0.6102
13010SOL    HW241185   9.481   0.806   0.847  0.0694  1.8913 -0.9906
13011SOL     OW41186   8.658   9.035   7.111  0.1618 -0.1249  0.2485
13011SOL    HW141187   8.668   9.001   7.022 -0.1547 -2.4424  1.0238
13011SOL    HW241188   8.746   9.029   7.149  0.1534  0.1740  0.3187
13012SOL     OW41189   8.744   2.824   8.325 -0.6202 -0.3558  0.0439
13012SOL    HW141190   8.781   2.804   8.239 -1.0580 -1.0600  0.0064
13012SOL    HW241191   8.657   2.859   8.306 -0.5862 -0.1872  0.1905
13013SOL     OW41192   8.822   1.749   5.179 -0.2702  0.1935 -0.0257
13013SOL    HW141193   8.859   1.733   5.266 -1.0270 -1.1993  0.0763
13013SOL    HW241194   8.737   1.789   5.196  0.0624  0.9782 -0.1750
13014SOL     OW41195   4.402   6.699   0.874  0.1752 -0.0262 -0.6799
13014SOL    HW141196   4.385   6.790   0.900 -0.4027 -0.1755 -0.5224
13014SOL    HW241197   4.494   6.685   0.897  0.7680  1.0262 -2.2491
13015SOL     OW41198   1.465   8.373   7.241 -0.0547  0.4964 -0.1044
13015SOL    HW141199   1.449   8.458   7.282  0.7791  1.1380 -1.0698
13015SOL    HW241200   1.429   8.381   7.153  0.3945 -0.0208 -0.3422
13016SOL     OW41201   8.919   1.549   5.705  0.1616  0.0035 -0.5654
13016SOL    HW141202   8.891   1.504   5.625 -1.5910  0.8281 -0.4640
13016SOL    HW241203   9.009   1.520   5.719 -0.1292 -1.6050 -1.7993
13017SOL     OW41204   2.040   6.837   1.893 -0.0373  0.4360 -0.5763
13017SOL    HW141205   1.998   6.866   1.973  0.8980 -0.3182  0.2103
13017SOL    HW241206   2.056   6.918   1.843 -0.9877  0.8626 -0.1976
13018SOL     OW41207   9.393   0.244   2.152  0.7143 -0.1114  0.6224
13018SOL    HW141208   9.392   0.304   2.227  0.5585 -0.5379  0.9618
13018SOL    HW241209   9.303   0.213   2.145  0.5554  0.4991 -0.2133
13019SOL     OW41210   4.595   2.882   4.538 -0.1065  0.0870 -0.0018
13019SOL    HW141211   4.591   2.977   4.544 -3.4190  0.0388  0.8871
13019SOL    HW241212   4.606   2.852   4.629 -1.1891 -0.3551  0.0006
13020SOL     OW41213   5.251   2.847   3.531 -0.1124  0.4701  0.1153
13020SOL    HW141214   5.192   2.849   3.455  1.0812  0.3050 -0.8592
13020SOL    HW241215   5.296   2.931   3.529  0.9620 -0.0945 -0.2337
13021SOL     OW41216   8.023   6.739   1.010  0.2694  0.7253 -0.1437
13021SOL    HW141217   8.054   6.714   1.096  2.3595  0.8538 -0.8012
13021SOL    HW241218   7.928   6.729   1.014  0.4447 -0.5498  1.7322
13022SOL     OW41219   1.605   8.462   9.418  0.1967  0.3642  0.2431
13022SOL    HW141220   1.557   8.536   9.456  0.3128  1.8182 -2.1914
13022SOL    HW241221   1.664   8.503   9.355  0.3890 -1.8064 -1.0663
13023SOL     OW41222   1.959   7.862   9.518  0.2653 -0.4230 -0.3720
13023SOL    HW141223   2.002   7.947   9.510 -1.5064  0.5234 -0.5370
13023SOL    HW241224   1.930   7.841   9.429  0.9836 -1.3822 -0.3918
13024SOL     OW41225   5.957   6.536   7.424 -0.1816 -0.3780 -0.1263
13024SOL    HW141226   6.030   6.474   7.420 -0.9775 -1.5162  1.6621
13024SOL    HW241227   5.879   6.481   7.433 -1.0467  0.8590  0.2235
13025SOL     OW41228   1.553   9.309   2.121 -0.3265 -0.0281  0.0872
13025SOL    HW141229   1.526   9.344   2.036 -0.2626  0.4357  0.2551
13025SOL    HW241230   1.588   9.222   2.101 -0.9791 -0.2175 -0.2654
13026SOL     OW41231   8.314   8.993   3.573  0.4418  0.2921  0.3819
13026SOL    HW141232   8.306   9.038   3.657  0.6510  0.8974  0.0889
13026SOL    HW241233   8.290   9.060   3.509 -0.3091 -0.3447 -0.0077
13027SOL     OW41234   5.363   5.884   0.651 -0.0212  0.2640  0.0729
13027SOL    HW141235   5.321   5.892   0.566 -0.7174  0.9639  0.4686
13027SOL    HW241236   5.448   5.844   0.632 -0.7182 -0.8812 -0.7830
13028SOL     OW41237   7.635   9.595   7.575  0.5261  0.4236 -0.0504
13028SOL    HW141238   7.704   9.653   7.544  1.0099  1.0065  1.9490
13028SOL    HW241239   7.559   9.617   7.521  1.2809  1.4022 -0.7502
13029SOL     OW41240   7.055   9.149   1.037 -0.3044 -0.0080  0.2674
13029SOL    HW141241   7.008   9.200   1.103  1.0569  2.5342 -0.5902
13029SOL    HW241242   6.989   9.127   0.971 -0.8453  1.1806  0.3930
13030SOL     OW41243   7.509   5.146   8.025 -0.3283  0.2211  0.0485
13030SOL    HW141244   7.596   5.122   8.057 -0.2051  0.7905  0.1465
13030SOL    HW241245   7.515   5.137   7.930  0.0106  0.8020  0.0088
13031SOL     OW41246   8.890   5.121   6.713  0.6184  0.2155 -0.3117
13031SOL    HW141247   8.967   5.089   6.666  0.9386  0.6329 -0.0733
13031SOL    HW241248   8.843   5.041   6.738  1.0278 -0.0454 -0.3607
13032SOL     OW41249   3.991   6.090   6.272 -0.6123 -0.5949 -0.3433
13032SOL    HW141250   4.086   6.081   6.282 -0.5130  1.1576  0.5359
13032SOL    HW241251   3.955   6.062   6.356 -0.8376 -0.6093 -0.4438
13033SOL     OW41252   7.754   9.439   5.264  0.0884  0.3580  0.7673
13033SOL    HW141253   7.688   9.385   5.218 -1.0128  0.5225  2.1041
13033SOL    HW241254   7.703   9.495   5.322  1.4245  0.5232  1.8175
13034SOL     OW41255   8.807   8.391   8.304 -0.0522  0.2518 -0.2437
13034SOL    HW141256   8.773   8.302   8.312  1.1147 -0.2900 -0.9910
13034SOL    HW241257   8.739   8.439   8.257 -0.5255 -0.3430 -0.1725
13035SOL     OW41258   4.067   1.425   7.459 -0.0953  0.0980 -0.0678
13035SOL    HW141259   4.104   1.352   7.410  0.0409  1.3802 -1.9873
13035SOL    HW241260   3.981   1.439   7.419 -0.9764 -0.2182  1.6003
13036SOL     OW41261   0.979   3.470   8.972  0.2505  0.6431 -0.3762
13036SOL    HW141262   0.894   3.460   9.016  0.6675 -0.0476  0.2927
13036SOL    HW241263   0.991   3.565   8.965 -0.2290  0.7554  0.2267
13037SOL     OW41264   6.723   5.270   5.324  0.1290 -0.4006 -0.2015
13037SOL    HW141265   6.787   5.329   5.285  1.2161 -2.0367 -1.0012
13037SOL    HW241266   6.681   5.228   5.249  0.0404 -1.3225  0.3555
13038SOL     OW41267   4.425   1.153   1.050 -0.0309 -0.0191 -0.5037
13038SOL    HW141268   4.497   1.137   1.110  0.9929 -0.5323 -1.8121
13038SOL    HW241269   4.372   1.073   1.055  1.1101 -0.8940 -1.6662
13039SOL     OW41270   6.378   3.471   3.420 -0.5498  0.1753 -0.0026
13039SOL    HW141271   6.428   3.536   3.471 -2.1076  0.7808  0.8050
13039SOL    HW241272   6.404   3.387   3.458 -0.5472  0.5156  0.7706
13040SOL     OW41273   9.546   2.590   7.617  0.4406 -0.1834 -0.1340
13040SOL    HW141274   9.627   2.613   7.664 -0.5633  0.9797  1.1105
13040SOL    HW241275   9.481   2.578   7.686 -0.6242 -0.4224 -1.1508
13041SOL     OW41276   8.806   2.293   6.325  0.2779  0.4619 -0.0124
13041SOL    HW141277   8.843   2.206   6.309  0.9208  0.5004  1.1454
13041SOL    HW241278   8.715   2.276   6.350  0.5318  0.0845  0.6684
13042SOL     OW41279   4.367   3.968   2.662 -0.1409 -0.7713 -0.0271
13042SOL    HW141280   4.359   3.873   2.662  1.4316 -0.9304 -0.2088
13042SOL    HW241281   4.459   3.984   2.643 -0.5093  0.8128 -0.6043
13043SOL     OW41282   8.388   0.815   4.086  0.7639 -0.6049  0.0490
13043SOL    HW141283   8.386   0.757   4.011  0.6166  0.8730 -1.1397
13043SOL    HW241284   8.297   0.821   4.114  0.3876  0.8525 -1.3235
13044SOL     OW41285   6.058   2.097   6.249  0.1053  0.4874  0.0170
13044SOL    HW141286   6.050   2.067   6.340  2.3599 -0.3355  0.0205
13044SOL    HW241287   6.026   2.187   6.251 -1.6809 -0.1171  1.1841
13045SOL     OW41288   5.737   0.169   3.739 -0.4241  0.9667  0.0856
13045SOL    HW141289   5.816   0.222   3.745 -0.2718  0.5528  3.1387
13045SOL    HW241290   5.699   0.192   3.654  3.2540  0.6835 -1.8288
13046SOL     OW41291   4.286   6.535   0.679 -0.2639 -0.3165 -0.4133
13046SOL    HW141292   4.295   6.578   0.764  1.6464  0.0102 -0.7421
13046SOL    HW241293   4.251   6.448   0.700 -1.3614  0.3206  0.5276
13047SOL     OW41294   2.027   5.733   6.328 -0.3070 -0.1675 -0.5766
13047SOL    HW141295   2.024   5.723   6.233 -1.0810 -0.2121 -0.5567
13047SOL    HW241296   1.956   5.677   6.360  0.7437 -1.1625  0.1271
13048SOL     OW41297   7.966   3.528   5.295 -0.0131  0.4949  0.5475
13048SOL    HW141298   8.061   3.537   5.288 -0.0163 -0.6648 -2.0654
13048SOL    HW241299   7.950   3.433   5.296 -1.1605  0.6713  0.7924
13049SOL     OW41300   7.515   5.759   7.521  0.3376 -0.0154  0.1748
13049SOL    HW141301   7.584   5.703   7.484  0.4990  0.4799 -0.2775
13049SOL    HW241302   7.435   5.733   7.475  0.2089 -0.6203  0.7298
13050SOL     OW41303   1.560   8.443   0.453  0.1383 -0.4741  0.1306
13050SOL    HW141304   1.638   8.446   0.509 -0.6445 -0.4214  1.2384
13050SOL    HW241305   1.550   8.533   0.421 -0.6999  0.0258  1.7307
13051SOL     OW41306   3.809   0.542   7.529  0.0244  0.3576  0.1081
13051SOL    HW141307   3.852   0.561   7.613 -0.3426 -0.5357  0.5063
13051SOL    HW241308   3.718   0.523   7.552 -1.0540  3.6208 -0.8579
13052SOL     OW41309   4.892   3.218   7.098  0.2823  0.2498  0.0972
13052SOL    HW141310   4.971   3.168   7.078 -0.5374 -0.7771 -0.6806
13052SOL    HW241311   4.923   3.289   7.155  1.8803  0.3046 -0.7555
13053SOL     OW41312   3.215   5.451   2.289 -0.0317  0.1718 -0.4149
13053SOL    HW141313   3.283   5.467   2.353 -0.2645 -0.1687 -0.0768
13053SOL    HW241314   3.205   5.355   2.288 -0.5629  0.2235 -0.3946
13054SOL     OW41315   5.822   7.636   8.750 -0.2441  0.4468 -0.5235
13054SOL    HW141316   5.835   7.549   8.787  1.9726 -0.0182 -2.1678
13054SOL    HW241317   5.824   7.622   8.655 -2.4314  1.9996 -0.8791
13055SOL     OW41318   2.145   4.124   7.722  0.4364 -0.0995  0.1283
13055SOL    HW141319   2.062   4.130   7.675 -0.6595 -0.5683  1.9251
13055SOL    HW241320   2.190   4.206   7.703 -0.4878  0.2200 -0.7540
13056SOL     OW41321   0.872   3.162   0.954  0.4886  0.4920  0.1323
13056SOL    HW141322   0.950   3.211   0.981  0.9115  1.4735 -2.5838
13056SOL    HW241323   0.809   3.229   0.929 -0.6584 -0.3246  0.7405
13057SOL     OW41324   7.591   7.765   2.294  0.2670 -0.0064  0.6647
13057SOL    HW141325   7.600   7.678   2.333 -0.4919  0.1809  1.2748
13057SOL    HW241326   7.627   7.755   2.205  0.0838 -0.9646  0.6851
13058SOL     OW41327   3.438   3.832   2.736 -0.3606  0.5038  0.0029
13058SOL    HW141328   3.508   3.795   2.789  0.6691  1.9058 -0.3272
13058SOL    HW241329   3.483   3.886   2.671 -1.7370  1.3078 -0.3236
13059SOL     OW41330   3.633   8.397   7.152  0.6483  0.1516 -0.5233
13059SOL    HW141331   3.684   8.384   7.072  1.8416 -1.3508  0.4219
13059SOL    HW241332   3.696   8.385   7.223 -0.6489  0.1010  0.6722
13060SOL     OW41333   6.214   6.673   1.976 -0.1415  1.0188 -1.0142
13060SOL    HW141334   6.249   6.614   2.042  3.8596  1.1577 -2.7482
13060SOL    HW241335   6.207   6.757   2.021  0.1195  0.5975 -0.1607
13061SOL     OW41336   5.650   8.516   6.534 -0.1562  0.4137  0.0465
13061SOL    HW141337   5.643   8.434   6.484  1.5179  1.3793 -1.9201
13061SOL    HW241338   5.559   8.548   6.539 -0.5142 -0.2022 -1.6258
13062SOL     OW41339   4.333   0.999   5.837  0.3978 -0.5258  0.1317
13062SOL    HW141340   4.286   1.039   5.911 -1.0127  0.0937 -1.0460
13062SOL    HW241341   4.407   1.058   5.821  0.0382 -0.0128  0.3210
13063SOL     OW41342   7.961   5.027   4.913 -0.1714 -0.0875 -0.2227
13063SOL    HW141343   7.940   4.933   4.906  1.5532 -0.5148  0.0433
13063SOL    HW241344   7.975   5.042   5.006  0.2572  0.2831 -0.3451
13064SOL     OW41345   7.964   5.264   4.149 -0.5553 -0.4874  0.2717
13064SOL    HW141346   7.949   5.209   4.226  0.2704 -0.6089  0.3523
13064SOL    HW241347   7.961   5.354   4.183 -1.2063 -0.5010  0.2612
13065SOL     OW41348   6.943   0.111   1.011  0.1709  0.0731 -0.3511
13065SOL    HW141349   7.010   0.051   1.045 -1.9104 -3.4084 -1.8771
13065SOL    HW241350   6.936   0.179   1.078  2.1201 -1.8068  1.9680
13066SOL     OW41351   3.598   2.109   4.133 -0.5583 -0.1003 -0.1782
13066SOL    HW141352   3.593   2.043   4.203  0.7405 -2.0592 -1.8142
13066SOL    HW241353   3.507   2.135   4.118 -0.9605 -0.3756  1.5288
13067SOL     OW41354   9.483   2.074   7.570  0.3746  0.4818  0.3663
13067SOL    HW141355   9.513   2.093   7.659 -0.4903 -0.5730  0.9078
13067SOL    HW241356   9.393   2.106   7.568 -0.6836 -2.2252  0.9019
13068SOL     OW41357   2.085   9.282   4.976 -0.3538 -0.9242  0.1257
13068SOL    HW141358   1.990   9.274   4.984 -0.3788 -0.7019  0.0782
13068SOL    HW241359   2.100   9.294   4.882 -0.4992  1.5101  0.3357
13069SOL     OW41360   4.149   5.170   9.376 -0.2695  0.3071 -0.4233
13069SOL    HW141361   4.083   5.239   9.385  1.0842  1.6042 -0.0037
13069SOL    HW241362   4.173   5.172   9.284 -0.2215  0.4020 -0.4090
13070SOL     OW41363   2.033   9.366   0.109  0.7567 -0.0433 -0.4873
13070SOL    HW141364   1.975   9.290   0.116  1.6573 -0.7721 -0.6883
13070SOL    HW241365   1.983   9.438   0.146  0.3577 -1.0119  0.9542
13071SOL     OW41366   1.060   0.235   2.968 -0.0193 -0.0722 -0.0053
13071SOL    HW141367   1.085   0.265   2.881  0.5101 -0.6733 -0.0672
13071SOL    HW241368   1.130   0.267   3.025  0.4134 -0.9288 -0.0322
13072SOL     OW41369   0.482   0.551   6.709 -0.1575  0.2070 -0.5217
13072SOL    HW141370   0.473   0.558   6.804 -2.5359 -2.2683 -0.4355
13072SOL    HW241371   0.393   0.568   6.675  0.1738 -1.0243 -2.1188
13073SOL     OW41372   7.408   3.537   6.489  0.4957 -0.3280 -0.4238
13073SOL    HW141373   7.351   3.610   6.467 -1.2747 -2.0289 -1.8658
13073SOL    HW241374   7.349   3.462   6.497  2.0885 -1.4470  2.1376
13074SOL     OW41375   1.435   2.128   1.066 -1.1108  0.2003 -0.1338
13074SOL    HW141376   1.416   2.036   1.044  0.4585  0.2663 -1.9914
13074SOL    HW241377   1.488   2.159   0.994  1.3572  1.5666  2.1164
13075SOL     OW41378   0.582   3.235   6.464  0.5611 -0.0259  0.0515
13075SOL    HW141379   0.618   3.237   6.375  0.7219 -0.2600  0.1099
13075SOL    HW241380   0.592   3.325   6.495 -0.5392  0.3250 -0.5697
13076SOL     OW41381   9.542   6.477   2.432 -0.1198  0.7405 -0.2748
13076SOL    HW141382   9.475   6.420   2.395  0.1792  0.8706 -1.0192
13076SOL    HW241383   9.504   6.565   2.429  0.0405  0.7996 -0.5987
13077SOL     OW41384   2.046   6.125   7.691 -0.5748  0.0978 -0.1191
13077SOL    HW141385   2.140   6.134   7.706 -0.6099  0.3306 -0.0421
13077SOL    HW241386   2.011   6.089   7.772 -0.5248 -0.1653 -0.2133
13078SOL     OW41387   9.240   7.163   2.564 -0.1071  0.5489  0.1427
13078SOL    HW141388   9.157   7.204   2.540 -0.3846  0.2127  0.5233
13078SOL    HW241389   9.279   7.224   2.626  0.0400  0.8168 -0.2066
13079SOL     OW41390   0.675   3.965   8.287 -0.3714 -0.2966  0.0137
13079SOL    HW141391   0.746   3.901   8.291  0.6988  0.6837 -1.6837
13079SOL    HW241392   0.672   4.003   8.375  1.4909 -0.1191  0.0358
13080SOL     OW41393   3.615   9.544   4.136  0.3158  0.4696 -0.0890
13080SOL    HW141394   3.562   9.578   4.063 -0.2442 -0.0105  0.0821
13080SOL    HW241395   3.697   9.592   4.130 -0.2408  1.4374 -0.1941
13081SOL     OW41396   7.924   6.621   3.085  0.0862  0.2965  0.2891
13081SOL    HW141397   7.862   6.649   3.017  0.9406 -0.2732 -0.7564
13081SOL    HW241398   7.874   6.559   3.138 -0.0745 -0.7406 -0.9999
13082SOL     OW41399   6.790   6.190   8.424  0.3241  0.6606 -0.8036
13082SOL    HW141400   6.835   6.117   8.383  0.0522  0.6014 -0.9987
13082SOL    HW241401   6.818   6.267   8.375 -0.3911  0.5305 -1.4321
13083SOL     OW41402   8.028   3.960   8.687 -0.6882  0.1461  0.4500
13083SOL    HW141403   7.988   3.989   8.769 -0.3958  0.2341  0.5627
13083SOL    HW241404   8.004   4.026   8.623 -0.5860  0.2868  0.5554
13084SOL     OW41405   4.419   7.834   8.747 -0.1374  0.3365  0.5689
13084SOL    HW141406   4.465   7.851   8.829  2.0141  1.5290 -0.8023
13084SOL    HW241407   4.327   7.852   8.767  0.1897 -0.2858  2.9134
13085SOL     OW41408   5.300   5.413   6.826  0.5735 -0.1926  0.2461
13085SOL    HW141409   5.389   5.430   6.795 -0.0802  1.6453 -0.8216
13085SOL    HW241410   5.245   5.427   6.749 -0.8297  1.0287  1.3996
13086SOL     OW41411   6.910   1.790   8.945 -0.0283 -0.2348  0.1647
13086SOL    HW141412   6.940   1.827   9.029  0.9302 -1.8419  0.5810
13086SOL    HW241413   6.862   1.711   8.970 -2.0685  0.6531 -0.6943
13087SOL     OW41414   6.806   0.527   8.108  0.0413 -0.4813  0.5336
13087SOL    HW141415   6.718   0.563   8.101  0.1409 -0.3389 -0.0438
13087SOL    HW241416   6.860   0.600   8.137  0.6717  0.5500 -2.8456
13088SOL     OW41417   0.763   1.804   4.943  0.6789  0.0812  0.3647
13088SOL    HW141418   0.755   1.855   5.023  0.6231 -0.2907  0.6021
13088SOL    HW241419   0.781   1.868   4.875  0.8786  0.3851  0.6996
13089SOL     OW41420   5.615   5.993   9.586  0.1010 -0.1175  0.0732
13089SOL    HW141421   5.700   6.003   9.543 -0.6544  0.7158 -1.2968
13089SOL    HW241422   5.554   5.974   9.515 -0.8294 -1.0017  1.0723
13090SOL     OW41423   1.922   6.620   6.360  0.8239  0.0675  0.1354
13090SOL    HW141424   2.008   6.577   6.353  0.7375 -0.3813  1.5097
13090SOL    HW241425   1.941   6.713   6.351  1.5633  0.0291  1.1432
13091SOL     OW41426   8.288   9.528   0.421  0.0826 -0.0962  0.3554
13091SOL    HW141427   8.277   9.433   0.411 -1.9690 -0.1504  2.4192
13091SOL    HW241428   8.314   9.558   0.334 -3.8248 -1.9340 -1.6841
13092SOL     OW41429   1.604   8.188   9.039 -0.2780 -0.1116 -0.2379
13092SOL    HW141430   1.691   8.155   9.058  0.3385  0.9657 -1.0254
13092SOL    HW241431   1.590   8.168   8.947 -0.0900  1.3026 -0.6020
13093SOL     OW41432   3.315   1.825   7.721 -0.7502  0.4094 -0.3646
13093SOL    HW141433   3.380   1.881   7.764 -2.4155  2.7266 -0.6724
13093SOL    HW241434   3.326   1.843   7.628  0.3965 -1.8231 -0.7317
13094SOL     OW41435   1.069   4.706   8.417  0.0326 -0.0313  0.1330
13094SOL    HW141436   1.158   4.680   8.441  1.2638  1.5664 -2.2806
13094SOL    HW241437   1.061   4.796   8.447 -0.6803 -0.0553  0.0429
13095SOL     OW41438   8.795   4.950   2.362 -0.6068  0.6763  0.3282
13095SOL    HW141439   8.867   4.920   2.418 -0.1000  0.5667 -0.3755
13095SOL    HW241440   8.752   5.018   2.414  1.5528  2.5602 -0.1987
13096SOL     OW41441   6.763   3.419   8.297  0.0100 -0.4073 -0.1745
13096SOL    HW141442   6.815   3.351   8.340 -0.1877 -1.7033 -1.8940
13096SOL    HW241443   6.824   3.463   8.238  0.3323  1.5056  1.4795
13097SOL     OW41444   2.940   4.092   7.636 -0.1073 -0.1959  0.4151
13097SOL    HW141445   2.854   4.055   7.657 -0.3714 -0.8773 -1.6322
13097SOL    HW241446   3.002   4.020   7.650 -0.1232 -0.2813  0.0477
13098SOL     OW41447   9.067   2.076   4.907 -0.0504  0.0267 -0.2437
13098SOL    HW141448   9.066   2.063   4.812 -2.2636 -0.8852 -0.1576
13098SOL    HW241449   9.142   2.025   4.937  0.4485  0.0039 -1.4465
13099SOL     OW41450   1.533   2.205   7.942 -0.0797  0.3228  0.2897
13099SOL    HW141451   1.568   2.209   7.853 -1.0179  1.7657 -0.0496
13099SOL    HW241452   1.472   2.131   7.940  1.5568 -1.0942  0.4070
13100SOL     OW41453   8.171   1.890   7.625 -0.2188 -0.1680 -0.7227
13100SOL    HW141454   8.206   1.834   7.556 -0.0624 -0.4964 -0.3744
13100SOL    HW241455   8.084   1.916   7.593  0.3423  0.6874 -1.6125
13101SOL     OW41456   7.402   8.180   3.645  0.4736 -0.5718  0.1088
13101SOL    HW141457   7.357   8.127   3.580  0.6074 -2.7512  1.6816
13101SOL    HW241458   7.463   8.120   3.687  1.2315  1.0440  1.4500
13102SOL     OW41459   2.218   0.728   6.200  0.2241 -0.2779 -0.2029
13102SOL    HW141460   2.254   0.806   6.242 -2.6721  0.7325  0.6362
13102SOL    HW241461   2.185   0.760   6.116 -1.1221 -0.5187  0.2165
13103SOL     OW41462   6.569   8.335   0.225  0.5441  0.1772 -0.0753
13103SOL    HW141463   6.649   8.381   0.198  0.5485 -1.2461 -2.8213
13103SOL    HW241464   6.584   8.244   0.202 -1.3571 -0.3696  0.6296
13104SOL     OW41465   3.724   0.665   6.760 -0.1028  0.4541  0.0598
13104SOL    HW141466   3.759   0.581   6.731  1.1989  1.0660 -0.2103
13104SOL    HW241467   3.722   0.659   6.855 -1.5243 -0.4390  0.0152
13105SOL     OW41468   0.458   6.561   1.634  0.4016  0.0349  0.0837
13105SOL    HW141469   0.368   6.594   1.637 -0.5039 -2.2655  0.4508
13105SOL    HW241470   0.503   6.605   1.706 -0.1844  1.7998 -0.5865
13106SOL     OW41471   7.764   5.850   7.999  0.0546 -0.0150  0.0422
13106SOL    HW141472   7.682   5.894   8.021 -1.0277 -1.0281 -1.7029
13106SOL    HW241473   7.753   5.822   7.908  0.8141 -3.4171  0.8329
13107SOL     OW41474   4.863   9.227   3.256 -0.6254 -0.3310 -0.3616
13107SOL    HW141475   4.808   9.148   3.260 -0.0065 -0.7840 -0.6409
13107SOL    HW241476   4.801   9.299   3.260 -1.4455 -0.8187 -2.6872
13108SOL     OW41477   7.319   0.054   3.475  0.2289  0.1635  0.5431
13108SOL    HW141478   7.399   0.013   3.509 -0.8292 -1.2717  1.4216
13108SOL    HW241479   7.271  -0.018   3.434 -0.5666  1.0269 -0.0861
13109SOL     OW41480   2.604   1.915   8.597 -0.3499 -0.1820  0.2200
13109SOL    HW141481   2.655   1.988   8.632  2.0970 -2.1152  1.0078
13109SOL    HW241482   2.549   1.887   8.670 -0.5522  0.2548  0.2357
13110SOL     OW41483   6.018   8.296   5.041 -0.2047 -0.0684 -0.4905
13110SOL    HW141484   5.991   8.224   5.098 -0.2835  0.5785  0.3024
13110SOL    HW241485   6.101   8.266   5.003  0.0251 -0.3667  0.2351
13111SOL     OW41486   5.001   2.227   2.837  0.0672 -0.4363 -0.1744
13111SOL    HW141487   4.960   2.314   2.845 -1.4039 -0.9647 -1.3757
13111SOL    HW241488   4.936   2.175   2.790  0.1290 -2.7361  2.0861
13112SOL     OW41489   1.975   8.899   7.148  0.1417  0.5138 -0.3073
13112SOL    HW141490   1.933   8.969   7.199  0.6345 -0.6350  1.8006
13112SOL    HW241491   1.927   8.820   7.174  1.6906 -0.3917 -0.1064
13113SOL     OW41492   6.296   8.883   7.569 -0.4408  0.2513 -0.2283
13113SOL    HW141493   6.335   8.960   7.611  2.3767 -1.9269  1.5703
13113SOL    HW241494   6.220   8.861   7.622 -0.6339  1.1455 -0.1266
13114SOL     OW41495   0.085   2.379   2.464 -1.0032 -0.0042  0.0767
13114SOL    HW141496  -0.002   2.359   2.431 -0.6740  1.0498 -1.5235
13114SOL    HW241497   0.140   2.383   2.386 -0.0477  1.8637  0.7837
13115SOL     OW41498   7.496   4.564   3.194 -0.2591  0.2663  0.1262
13115SOL    HW141499   7.536   4.651   3.185  0.6813  0.1273  2.4139
13115SOL    HW241500   7.529   4.530   3.277 -0.3573 -2.4482 -0.8429
13116SOL     OW41501   8.010   8.381   5.753 -0.2993 -0.1132  0.1932
13116SOL    HW141502   8.048   8.309   5.804 -0.4641  0.4069  1.0727
13116SOL    HW241503   7.915   8.367   5.760 -0.3317  0.1736  0.3553
13117SOL     OW41504   8.522   5.650   4.338  0.2960 -0.1803 -0.3502
13117SOL    HW141505   8.556   5.632   4.426  0.5290  0.6774 -0.2583
13117SOL    HW241506   8.594   5.694   4.293 -0.0051 -0.1413 -0.8012
13118SOL     OW41507   8.478   7.356   5.906 -0.3120  0.0615  0.7051
13118SOL    HW141508   8.542   7.345   5.836 -0.8268  0.4268  0.1740
13118SOL    HW241509   8.432   7.272   5.910 -0.0626 -0.0701  0.8303
13119SOL     OW41510   7.546   2.339   2.715  0.0169  0.0334 -0.5121
13119SOL    HW141511   7.523   2.268   2.654 -0.1790 -0.9792  0.7073
13119SOL    HW241512   7.560   2.295   2.798  3.9566  0.8766 -0.5543
13120SOL     OW41513   1.574   3.312   9.138 -0.0163 -0.1683  0.1641
13120SOL    HW141514   1.627   3.303   9.217  1.2982  0.2133 -0.6544
13120SOL    HW241515   1.545   3.403   9.139 -0.1768 -0.2195  0.3037
13121SOL     OW41516   6.481   4.841   3.084 -0.6178  0.1048 -0.1141
13121SOL    HW141517   6.553   4.780   3.068 -0.0682  0.6502  0.2232
13121SOL    HW241518   6.411   4.812   3.026 -0.4411 -0.9635  0.1917
13122SOL     OW41519   9.224   6.324   2.843  0.1756 -1.1384 -0.2794
13122SOL    HW141520   9.307   6.278   2.837  0.4743 -0.5426 -0.7756
13122SOL    HW241521   9.245   6.406   2.888  0.9041  1.3181 -4.5410
13123SOL     OW41522   6.438   1.477   3.052 -0.0965 -0.4599  0.1436
13123SOL    HW141523   6.474   1.428   3.126  1.4977 -1.7417 -1.3794
13123SOL    HW241524   6.432   1.413   2.982  0.0422  1.0662 -1.3252
13124SOL     OW41525   3.396   5.427   4.147  0.1543  0.3365  0.1174
13124SOL    HW141526   3.472   5.376   4.175  0.4428  0.9856  0.5336
13124SOL    HW241527   3.391   5.500   4.209 -1.4193 -0.2474  0.7321
13125SOL     OW41528   3.318   5.582   0.236  0.6637 -0.1110  0.3974
13125SOL    HW141529   3.237   5.628   0.211  1.0336  0.3463  0.0244
13125SOL    HW241530   3.303   5.491   0.208  0.1532 -0.1008  0.6196
13126SOL     OW41531   0.818   8.612   5.167  0.0728  0.6114 -0.2306
13126SOL    HW141532   0.755   8.573   5.228  1.2126  0.4676  0.9124
13126SOL    HW241533   0.765   8.663   5.106 -1.1751  0.0940  0.3853
13127SOL     OW41534   9.154   9.439   9.015  0.6260 -0.1077 -0.1659
13127SOL    HW141535   9.246   9.440   8.989  1.2230 -2.4281  1.4493
13127SOL    HW241536   9.128   9.347   9.004 -0.7083 -0.0233  1.8249
13128SOL     OW41537   8.323   8.804   3.961 -0.6051 -0.0831  0.4309
13128SOL    HW141538   8.313   8.890   4.001 -0.4748  0.3452 -0.4188
13128SOL    HW241539   8.383   8.819   3.888 -0.2681 -0.9806  0.5165
13129SOL     OW41540   1.159   3.288   0.998 -0.1366  0.2764 -0.3977
13129SOL    HW141541   1.213   3.324   1.069 -0.2294  0.4867 -0.4361
13129SOL    HW241542   1.177   3.344   0.923  0.5364 -0.3863 -0.7537
13130SOL     OW41543   1.903   9.421   5.803 -0.3234  0.1812 -0.0138
13130SOL    HW141544   1.950   9.436   5.885  1.7416 -0.1543 -1.0653
13130SOL    HW241545   1.827   9.479   5.808 -1.0196 -0.7970  2.6763
13131SOL     OW41546   6.456   0.355   8.220 -0.1183  0.5036  0.1844
13131SOL    HW141547   6.419   0.428   8.170 -1.2796  1.4471  2.2866
13131SOL    HW241548   6.407   0.278   8.191 -0.6767  1.0014 -0.2117
13132SOL     OW41549   5.838   5.324   3.493  0.1781  0.5386  0.0731
13132SOL    HW141550   5.801   5.367   3.570  1.2279  2.2516 -0.3307
13132SOL    HW241551   5.779   5.348   3.421 -0.3909 -0.4561  0.1853
13133SOL     OW41552   8.606   0.156   4.313 -0.4675 -0.0866 -0.0395
13133SOL    HW141553   8.527   0.111   4.282 -0.2440 -1.6058  1.4092
13133SOL    HW241554   8.589   0.171   4.406 -0.1437  2.1159 -0.2771
13134SOL     OW41555   3.342   6.745   0.629  0.6344  0.1653  0.1819
13134SOL    HW141556   3.303   6.660   0.647  2.0476 -0.9690 -1.8051
13134SOL    HW241557   3.318   6.765   0.539  0.5890  1.7642  0.5080
13135SOL     OW41558   8.718   8.582   9.426  0.1553  0.1797  0.2152
13135SOL    HW141559   8.812   8.573   9.409  0.1738 -1.5338  1.0141
13135SOL    HW241560   8.700   8.517   9.495 -2.0562 -1.3811 -1.6773
13136SOL     OW41561   0.865   2.658   7.506  0.1958 -0.1877  0.2417
13136SOL    HW141562   0.903   2.706   7.432 -0.7233  2.3665  1.3245
13136SOL    HW241563   0.928   2.669   7.577 -0.0697 -0.5248  0.5297
13137SOL     OW41564   1.171   1.849   7.743 -0.1109 -0.4311  0.0742
13137SOL    HW141565   1.187   1.931   7.696  1.0763  0.2635  1.5796
13137SOL    HW241566   1.231   1.786   7.704 -0.5375 -0.3998 -0.6373
13138SOL     OW41567   7.961   6.813   4.901 -0.1096  0.1065  0.2519
13138SOL    HW141568   7.899   6.828   4.830 -1.4410 -0.2135  1.3189
13138SOL    HW241569   7.944   6.724   4.931  1.7136 -0.4478 -0.2211
13139SOL     OW41570   0.113   0.752   3.031  0.2731 -0.2486 -0.0278
13139SOL    HW141571   0.089   0.842   3.010  0.1998  0.1467  1.6576
13139SOL    HW241572   0.036   0.716   3.075  0.8102 -0.6784  0.5750
13140SOL     OW41573   1.344   0.848   1.108  0.1158 -0.2344  0.4132
13140SOL    HW141574   1.315   0.779   1.167  0.7936 -1.0296 -0.1592
13140SOL    HW241575   1.429   0.818   1.075  0.9279  1.3488  0.9409
13141SOL     OW41576   3.127   3.499   1.079  0.3396  0.0885 -0.2105
13141SOL    HW141577   3.107   3.438   1.009 -1.1317 -2.4489  2.1950
13141SOL    HW241578   3.205   3.462   1.122  0.4006  0.8042  0.3225
13142SOL     OW41579   5.322   8.283   6.276  0.4721  1.0622  0.3791
13142SOL    HW141580   5.267   8.254   6.203 -0.4764  0.0588  1.4555
13142SOL    HW241581   5.297   8.374   6.291  0.4482  1.1776 -0.3329
13143SOL     OW41582   2.328   1.448   7.953  0.2581  0.4350  0.2944
13143SOL    HW141583   2.386   1.522   7.968  0.2932  0.4317  0.1748
13143SOL    HW241584   2.264   1.480   7.890  0.4107  0.2913  0.0650
13144SOL     OW41585   8.946   0.315   4.281 -0.2325  0.0081  0.2798
13144SOL    HW141586   8.881   0.263   4.234 -1.0899  0.2768  1.1403
13144SOL    HW241587   8.917   0.406   4.270  1.3424  0.3849 -1.3563
13145SOL     OW41588   6.862   8.838   1.618  0.0919  0.5587  0.1962
13145SOL    HW141589   6.816   8.809   1.539 -0.6593  2.4927 -0.1355
13145SOL    HW241590   6.800   8.823   1.689 -0.0213  0.6932  0.1263
13146SOL     OW41591   1.942   5.287   8.485  0.6255  0.2517 -0.3912
13146SOL    HW141592   2.000   5.238   8.427 -1.1235 -0.3171 -1.7263
13146SOL    HW241593   1.863   5.233   8.492 -0.6085  1.9670 -0.3693
13147SOL     OW41594   0.904   7.743   5.562  0.0786  0.6668 -0.0900
13147SOL    HW141595   0.855   7.808   5.511  0.8902  0.3235 -1.3354
13147SOL    HW241596   0.944   7.793   5.633 -0.1328  1.3518 -0.4462
13148SOL     OW41597   9.107   0.068   1.097 -0.6906 -0.2146 -0.4465
13148SOL    HW141598   9.033   0.014   1.071  0.9689 -1.9411 -1.8815
13148SOL    HW241599   9.070   0.132   1.159 -3.8228  0.6020 -2.9187
13149SOL     OW41600   6.777   0.913   5.253 -0.2009 -0.2060  0.8727
13149SOL    HW141601   6.856   0.862   5.270 -0.0175 -0.7590 -1.3979
13149SOL    HW241602   6.725   0.858   5.195 -1.3650  0.9685  0.7590
13150SOL     OW41603   2.742   0.171   0.574  0.2066  0.1594 -0.9553
13150SOL    HW141604   2.698   0.087   0.582  0.5275  0.0169 -0.7089
13150SOL    HW241605   2.671   0.234   0.560 -0.3933  0.3784  2.2720
13151SOL     OW41606   4.492   8.006   8.301 -0.1936 -0.3235 -0.6056
13151SOL    HW141607   4.431   7.941   8.335 -1.5356  1.6745  1.0234
13151SOL    HW241608   4.576   7.985   8.343 -0.4539 -1.3147 -0.5551
13152SOL     OW41609   8.184   1.723   8.159 -0.0254 -0.0769  0.1696
13152SOL    HW141610   8.135   1.641   8.151  0.4930 -0.6558  2.2653
13152SOL    HW241611   8.133   1.787   8.109  0.6190 -2.0388 -3.3618
13153SOL     OW41612   5.200   7.459   3.077 -0.4202 -0.0413  0.2982
13153SOL    HW141613   5.137   7.501   3.019 -0.4293 -0.0080  0.3317
13153SOL    HW241614   5.150   7.441   3.157 -0.8092 -1.4189 -0.2272
13154SOL     OW41615   9.307   6.494   7.932  0.3305 -0.2621 -0.1958
13154SOL    HW141616   9.366   6.549   7.880  3.4982 -3.0321  0.0883
13154SOL    HW241617   9.334   6.509   8.022  0.5212 -1.4315 -0.0420
13155SOL     OW41618   1.636   1.928   9.339  0.0981  0.5885 -0.3746
13155SOL    HW141619   1.697   1.965   9.275 -0.1909  1.0232 -0.4007
13155SOL    HW241620   1.632   1.993   9.408 -0.7938  0.8320 -0.6477
13156SOL     OW41621   1.670   0.530   2.040 -0.9764 -0.0145 -0.3974
13156SOL    HW141622   1.632   0.443   2.024 -1.3426  0.4523 -2.3542
13156SOL    HW241623   1.607   0.574   2.096 -3.2978  0.6205 -3.2978
13157SOL     OW41624   7.889   9.462   0.194  0.1207  0.0616 -0.0233
13157SOL    HW141625   7.978   9.457   0.161  0.0109  0.1404 -0.3297
13157SOL    HW241626   7.890   9.539   0.252  1.0291 -1.6181  2.3611
13158SOL     OW41627   7.519   2.859   2.391  0.7853 -0.0959  0.2827
13158SOL    HW141628   7.578   2.808   2.337  2.1523  0.7771  0.9084
13158SOL    HW241629   7.489   2.930   2.333  3.1668  1.5300  0.9130
13159SOL     OW41630   4.090   8.281   6.273 -0.1233 -0.0598  0.0305
13159SOL    HW141631   4.028   8.209   6.274  1.5935 -1.6078 -0.3596
13159SOL    HW241632   4.140   8.270   6.192  0.5824  1.2011  0.2626
13160SOL     OW41633   0.152   6.642   2.423  0.1914  0.0878 -0.3014
13160SOL    HW141634   0.181   6.631   2.514  1.0601 -0.1165 -0.6013
13160SOL    HW241635   0.125   6.554   2.396 -2.6985  0.5765  0.6097
13161SOL     OW41636   3.751   1.959   7.818  0.1171  0.3423  0.0166
13161SOL    HW141637   3.727   1.873   7.853  0.1429 -0.7571 -2.4148
13161SOL    HW241638   3.837   1.977   7.857 -0.2746 -0.2912  1.2373
13162SOL     OW41639   3.269   4.861   7.390  0.1338  0.0855  0.7035
13162SOL    HW141640   3.359   4.892   7.376 -0.1513  1.0207  0.9114
13162SOL    HW241641   3.262   4.784   7.333  0.5599  0.9376 -0.5412
13163SOL     OW41642   7.733   5.920   4.727 -0.1103 -0.2649  0.3124
13163SOL    HW141643   7.812   5.871   4.705 -0.6335 -1.7081  1.4710
13163SOL    HW241644   7.711   5.967   4.647  0.9494 -1.2179 -0.5747
13164SOL     OW41645   5.602   0.480   1.875  0.3040  0.7454  0.0348
13164SOL    HW141646   5.638   0.558   1.917  0.1696  0.4191  0.7555
13164SOL    HW241647   5.655   0.470   1.795  2.4075 -0.2116  1.4602
13165SOL     OW41648   3.908   4.749   6.546 -0.0646 -0.1479 -0.3275
13165SOL    HW141649   3.818   4.772   6.571  0.0087  0.0498 -0.2484
13165SOL    HW241650   3.943   4.828   6.505  0.3261  0.0180  0.3188
13166SOL     OW41651   5.741   0.047   8.518  0.6340 -0.6616  0.0173
13166SOL    HW141652   5.747   0.139   8.542 -3.8077  0.4467 -2.0393
13166SOL    HW241653   5.688   0.007   8.587  2.3933 -1.7663  0.8109
13167SOL     OW41654   8.910   7.979   3.491 -0.3141  0.0918  0.0679
13167SOL    HW141655   8.822   8.016   3.504  0.0857  1.3895 -0.6645
13167SOL    HW241656   8.969   8.044   3.529  0.3906 -0.0634 -0.7323
13168SOL     OW41657   6.868   7.022   3.339 -0.9429  0.4131 -0.0878
13168SOL    HW141658   6.873   7.029   3.434 -0.2788 -0.6462 -0.0278
13168SOL    HW241659   6.909   7.102   3.306 -0.4343  0.3995  0.5125
13169SOL     OW41660   7.154   3.885   5.700 -0.0825  0.7946  0.7713
13169SOL    HW141661   7.075   3.856   5.656  0.3886  0.7413 -0.0682
13169SOL    HW241662   7.218   3.895   5.630  0.1978  2.4045  1.2126
13170SOL     OW41663   4.537   4.962   9.073  0.5104 -0.0793  0.3489
13170SOL    HW141664   4.584   4.984   8.992 -0.2871 -0.0936 -0.1372
13170SOL    HW241665   4.558   4.871   9.089  2.1926  0.4263  1.2278
13171SOL     OW41666   6.108   4.302   2.418 -0.1398  0.7736  0.0030
13171SOL    HW141667   6.103   4.356   2.339  0.2300  1.4788  0.4626
13171SOL    HW241668   6.199   4.274   2.422  0.0615  1.5173  0.6981
13172SOL     OW41669   1.616   8.167   6.192 -0.1280 -0.1126 -0.1134
13172SOL    HW141670   1.697   8.133   6.154 -1.1021 -2.9001  0.0702
13172SOL    HW241671   1.583   8.229   6.126  0.3043 -1.7151 -1.9378
13173SOL     OW41672   1.612   3.157   3.173  0.5872  0.8162 -0.4699
13173SOL    HW141673   1.592   3.240   3.129  0.4463  1.2035  0.3004
13173SOL    HW241674   1.552   3.093   3.134 -0.7208  1.5066  0.3058
13174SOL     OW41675   0.418   3.056   0.067 -0.3187 -0.3421  0.2768
13174SOL    HW141676   0.450   3.144   0.046 -0.7737 -0.2909 -0.2107
13174SOL    HW241677   0.497   3.006   0.087  0.0450 -0.1405 -0.6256
13175SOL     OW41678   7.599   0.025   2.626 -0.3537 -0.1029  0.5327
13175SOL    HW141679   7.644   0.076   2.694 -1.1086  2.7811 -0.9493
13175SOL    HW241680   7.655   0.035   2.549 -0.5123 -1.6432  0.1957
13176SOL     OW41681   5.017   3.396   0.227 -0.3721  0.6779 -0.3574
13176SOL    HW141682   4.995   3.410   0.135  4.0227  1.2748 -1.5474
13176SOL    HW241683   5.113   3.392   0.228 -0.2506 -0.0013  4.1453
13177SOL     OW41684   1.509   6.915   5.131  0.5879 -0.2614  0.4356
13177SOL    HW141685   1.433   6.966   5.159  0.2697 -0.7805  0.5251
13177SOL    HW241686   1.533   6.863   5.208  0.3618 -0.9078  0.0761
13178SOL     OW41687   0.414   7.546   6.941  0.6299 -0.3366  0.1219
13178SOL    HW141688   0.364   7.465   6.937 -0.4479  0.2382  1.2267
13178SOL    HW241689   0.499   7.521   6.976  0.2767 -0.9810  0.5282
13179SOL     OW41690   7.555   9.617   5.867  0.3404 -0.2091 -0.3151
13179SOL    HW141691   7.567   9.617   5.962 -1.1836 -0.1938 -0.0975
13179SOL    HW241692   7.523   9.705   5.847  2.0329  0.2826 -1.0718
13180SOL     OW41693   3.879   1.616   1.863  0.1727 -0.4044  0.2753
13180SOL    HW141694   3.827   1.626   1.783 -0.5114  0.2633  0.7797
13180SOL    HW241695   3.952   1.559   1.838 -0.5047 -0.9166 -0.5993
13181SOL     OW41696   1.339   5.017   0.157 -0.6435  0.6256  0.6315
13181SOL    HW141697   1.418   5.047   0.112 -0.1345  2.7333  2.7339
13181SOL    HW241698   1.275   5.086   0.140 -0.1330  2.0525  3.7621
13182SOL     OW41699   4.657   2.527   5.875 -0.2507  0.4544 -0.0546
13182SOL    HW141700   4.710   2.510   5.798 -0.3860  0.8300 -0.2347
13182SOL    HW241701   4.718   2.521   5.949 -0.0431  0.4814 -0.2239
13183SOL     OW41702   7.725   7.751   2.720 -0.1058 -0.6848 -0.3648
13183SOL    HW141703   7.645   7.714   2.758  0.2060  0.8638  2.0094
13183SOL    HW241704   7.706   7.844   2.711  0.7654 -0.6179 -1.6898
13184SOL     OW41705   2.091   2.154   3.962 -0.1762 -0.1012 -0.4648
13184SOL    HW141706   2.183   2.173   3.945  0.1713 -0.6172  0.7000
13184SOL    HW241707   2.047   2.168   3.878  1.1034 -0.7110 -1.2636
13185SOL     OW41708   4.011   1.299   1.476  0.0866  0.1429  0.1750
13185SOL    HW141709   3.944   1.295   1.408 -0.6247  0.2535  0.8648
13185SOL    HW241710   4.019   1.209   1.507 -2.6153  0.6399  2.8156
13186SOL     OW41711   7.569   3.139   8.762  0.0178 -0.8315 -0.3039
13186SOL    HW141712   7.635   3.187   8.811 -0.5198  0.4962 -0.8383
13186SOL    HW241713   7.502   3.204   8.742 -1.0563 -1.9565 -0.4892
13187SOL     OW41714   5.157   3.621   1.777 -0.2013 -0.5035 -0.0041
13187SOL    HW141715   5.083   3.676   1.801 -0.5729 -1.2901  0.6874
13187SOL    HW241716   5.131   3.580   1.695 -0.6419 -0.9621  0.3593
13188SOL     OW41717   8.335   1.986   0.160 -0.2909  0.3437 -0.5238
13188SOL    HW141718   8.270   2.033   0.108 -0.3404 -1.5835 -2.3102
13188SOL    HW241719   8.406   1.967   0.099  0.4857 -0.4472  0.5815
13189SOL     OW41720   3.316   1.017   2.601 -0.1655  0.1651 -0.7225
13189SOL    HW141721   3.392   1.068   2.631 -0.1650 -0.4921  0.4372
13189SOL    HW241722   3.337   0.994   2.511 -0.1876  2.2555 -1.3252
13190SOL     OW41723   2.572   1.765   1.872  0.4667  0.1691  0.2096
13190SOL    HW141724   2.511   1.705   1.828 -0.3347  0.4856  0.8710
13190SOL    HW241725   2.542   1.769   1.963  1.1813  0.7090  0.4353
13191SOL     OW41726   9.085   4.992   6.570 -0.0872  0.0226 -0.1500
13191SOL    HW141727   9.110   4.907   6.607  0.7899 -0.5378 -1.8941
13191SOL    HW241728   9.150   5.053   6.604 -0.8671  0.0750  1.3114
13192SOL     OW41729   5.838   0.603   4.054 -0.0235  0.0069 -0.1547
13192SOL    HW141730   5.806   0.514   4.069  0.5420 -0.1116  0.3711
13192SOL    HW241731   5.763   0.659   4.073 -1.2217 -0.4496 -2.9836
13193SOL     OW41732   1.366   0.359   8.624  0.6033 -0.4469  0.3006
13193SOL    HW141733   1.326   0.327   8.705  1.6303 -0.1333  0.9582
13193SOL    HW241734   1.329   0.305   8.555  0.3890 -1.3368  1.0977
13194SOL     OW41735   3.765   4.204   8.136 -0.1438 -0.4424  0.4032
13194SOL    HW141736   3.763   4.277   8.075 -0.1234  1.0570  2.1089
13194SOL    HW241737   3.845   4.156   8.114  0.6076  0.8768  0.1498
13195SOL     OW41738   3.700   7.755   9.556 -0.0811 -0.1573 -0.4548
13195SOL    HW141739   3.699   7.684   9.619  0.1295 -0.2150 -0.5174
13195SOL    HW241740   3.789   7.789   9.558 -0.5080  0.9634  0.5417
13196SOL     OW41741   9.616   3.451   4.213 -0.3105 -0.4390  0.1089
13196SOL    HW141742   9.649   3.492   4.133  0.8661 -0.5598  0.5110
13196SOL    HW241743   9.606   3.358   4.190  0.5515 -0.5754  0.2375
13197SOL     OW41744   5.364   9.545   9.235  0.5427  0.0961 -0.1210
13197SOL    HW141745   5.288   9.498   9.269 -0.0017  0.8421 -0.2751
13197SOL    HW241746   5.404   9.484   9.173  0.0453 -0.2894 -0.0656
13198SOL     OW41747   6.596   3.484   5.466  0.3270 -0.1621  0.3733
13198SOL    HW141748   6.661   3.537   5.513  1.1793 -0.6474 -0.2258
13198SOL    HW241749   6.556   3.545   5.404 -0.9161  0.5255  1.7741
13199SOL     OW41750   5.805   4.075   4.030  0.4852  0.3167  0.0647
13199SOL    HW141751   5.856   4.011   4.080 -0.2514  0.7685  1.4300
13199SOL    HW241752   5.775   4.138   4.095  1.2218  2.0988 -1.2686
13200SOL     OW41753   8.908   4.856   8.498 -0.0497  0.1241  0.0765
13200SOL    HW141754   8.829   4.848   8.445 -0.1962  0.8230  0.1757
13200SOL    HW241755   8.927   4.767   8.527 -0.6547 -0.0846 -0.1564
13201SOL     OW41756   6.945   0.585   8.886  0.5112 -0.1248  0.9934
13201SOL    HW141757   6.976   0.519   8.949  0.0326 -0.7602  0.5815
13201SOL    HW241758   6.939   0.666   8.937  1.6896 -0.2597  1.3588
13202SOL     OW41759   7.448   6.766   0.426  0.3256  0.4298 -0.5793
13202SOL    HW141760   7.495   6.683   0.428  1.1301  0.8277 -1.6481
13202SOL    HW241761   7.384   6.755   0.356  0.0364  0.5141 -0.3293
13203SOL     OW41762   5.992   2.556   8.610  0.1027  0.4981 -0.5043
13203SOL    HW141763   6.026   2.507   8.686  1.1180  0.0970 -1.1973
13203SOL    HW241764   5.977   2.644   8.643  0.5118  0.3205  0.1769
13204SOL     OW41765   3.874   0.006   6.873  0.5330 -0.2624  0.7058
13204SOL    HW141766   3.839  -0.069   6.923  0.8318  0.1641  1.5822
13204SOL    HW241767   3.835   0.082   6.915  2.2409  0.2127  1.5372
13205SOL     OW41768   4.674   8.580   8.919 -0.0043 -0.3596 -0.0237
13205SOL    HW141769   4.744   8.611   8.977 -0.4600  1.0911 -0.2094
13205SOL    HW241770   4.617   8.656   8.908 -0.3872 -0.8545 -1.6884
13206SOL     OW41771   5.825   2.129   7.962  0.2935  0.2177 -0.1760
13206SOL    HW141772   5.867   2.062   8.015 -0.6966 -1.2399 -1.1693
13206SOL    HW241773   5.881   2.139   7.885  0.8193  1.0891  0.2980
13207SOL     OW41774   0.676   0.417   7.614  0.8228 -0.1472 -0.4178
13207SOL    HW141775   0.752   0.430   7.558  1.2062  1.7306  0.4759
13207SOL    HW241776   0.686   0.328   7.649  1.0554 -1.0122 -2.5309
13208SOL     OW41777   1.632   9.244   1.038  0.3368  0.1673  0.0639
13208SOL    HW141778   1.603   9.182   0.971  0.3426  0.4964 -0.2431
13208SOL    HW241779   1.687   9.192   1.096 -1.3965 -0.6606  1.0604
13209SOL     OW41780   8.884   4.080   1.564  0.0417  0.6031 -0.0272
13209SOL    HW141781   8.954   4.054   1.623  1.0497  2.5168 -0.3053
13209SOL    HW241782   8.928   4.120   1.489 -1.2751 -0.2011 -1.2962
13210SOL     OW41783   6.111   2.764   8.981 -0.0318  0.3704 -0.2550
13210SOL    HW141784   6.019   2.789   8.982 -0.4894 -1.0189 -2.2146
13210SOL    HW241785   6.112   2.678   8.939  2.2789  0.8805 -1.3922
13211SOL     OW41786   6.034   4.578   4.822 -0.5842 -0.1722 -0.0144
13211SOL    HW141787   6.109   4.561   4.766 -0.5455 -0.4691  0.1255
13211SOL    HW241788   6.031   4.503   4.881 -0.8273 -0.0272  0.1582
13212SOL     OW41789   6.133   4.992   8.328  0.4263 -0.0273  0.3946
13212SOL    HW141790   6.189   4.943   8.388  0.5475 -1.9517 -1.1727
13212SOL    HW241791   6.183   5.071   8.308  1.3844 -0.4316  1.0891
13213SOL     OW41792   3.665   1.028   9.243  0.0704 -0.0583 -0.3989
13213SOL    HW141793   3.673   0.937   9.270 -0.5423  0.2658  0.9764
13213SOL    HW241794   3.660   1.025   9.147  1.9092 -1.2961 -0.4823
13214SOL     OW41795   7.873   2.999   7.728 -0.3014 -0.1181 -0.2803
13214SOL    HW141796   7.874   2.906   7.704 -1.5047 -0.4512  0.8207
13214SOL    HW241797   7.950   3.010   7.783  0.1880 -0.3071 -0.9119
13215SOL     OW41798   8.964   6.172   4.299 -0.3684 -0.1687  0.3103
13215SOL    HW141799   9.003   6.085   4.303 -0.9748 -0.5011 -0.6306
13215SOL    HW241800   8.871   6.157   4.310 -0.6460  0.1777 -1.3694
13216SOL     OW41801   1.792   1.898   3.096 -0.2028  0.0986 -0.6057
13216SOL    HW141802   1.718   1.956   3.079 -0.1203  0.4671  0.2472
13216SOL    HW241803   1.850   1.949   3.152 -0.9031 -1.3557  1.5605
13217SOL     OW41804   7.463   0.313   7.910  0.2248  0.1039  0.1906
13217SOL    HW141805   7.387   0.365   7.936  0.7516  1.7896 -1.3987
13217SOL    HW241806   7.448   0.227   7.948 -1.2511  1.0892  2.0010
13218SOL     OW41807   0.387   7.124   7.732  0.1993 -0.2247  0.0262
13218SOL    HW141808   0.298   7.150   7.756  0.6669 -0.8605  2.8653
13218SOL    HW241809   0.408   7.053   7.793  2.3143 -0.7825 -1.2451
13219SOL     OW41810   0.762   1.695   8.267 -0.0309  0.4613 -0.0195
13219SOL    HW141811   0.757   1.639   8.345  0.8270  0.8217  0.3067
13219SOL    HW241812   0.690   1.666   8.211  0.0960 -0.6283  0.3699
13220SOL     OW41813   0.591   1.394   1.096 -0.3504 -0.1598  0.3247
13220SOL    HW141814   0.514   1.339   1.110 -0.8353  0.6038  0.7658
13220SOL    HW241815   0.575   1.436   1.012  0.8623 -2.0108 -0.8934
13221SOL     OW41816   1.899   6.640   4.569 -0.0521 -0.3028 -0.4386
13221SOL    HW141817   1.816   6.678   4.539  0.4260  0.4776 -0.8022
13221SOL    HW241818   1.923   6.693   4.645 -1.4246 -2.4683  1.6558
13222SOL     OW41819   6.305   3.697   3.095  0.0385 -0.0866 -0.3112
13222SOL    HW141820   6.310   3.651   3.011  0.3772  0.2457 -0.4749
13222SOL    HW241821   6.255   3.777   3.076  2.9931  1.7492 -1.0247
13223SOL     OW41822   9.392   0.080   8.239  0.2081 -0.2950 -0.1220
13223SOL    HW141823   9.301   0.062   8.215  0.6552 -1.5180 -0.9697
13223SOL    HW241824   9.403   0.038   8.324 -0.6837  1.9970  1.2461
13224SOL     OW41825   4.141   0.297   6.932 -0.1674 -0.3472 -0.1258
13224SOL    HW141826   4.082   0.252   6.872 -0.2225 -0.5934  0.1100
13224SOL    HW241827   4.105   0.385   6.940 -1.3693 -0.9267  1.1785
13225SOL     OW41828   8.098   3.857   7.271  0.0953  0.4462 -0.1715
13225SOL    HW141829   8.189   3.845   7.300  0.2932  0.1573 -0.8791
13225SOL    HW241830   8.106   3.888   7.181 -0.5094  0.3657 -0.2540
13226SOL     OW41831   2.272   1.561   1.484 -0.3010 -0.3066 -0.2973
13226SOL    HW141832   2.196   1.586   1.537 -0.0288  1.1629 -0.5464
13226SOL    HW241833   2.272   1.465   1.484 -2.3297 -0.3435 -0.5522
13227SOL     OW41834   9.579   0.074   4.160  0.2519  0.2175  0.3744
13227SOL    HW141835   9.587   0.076   4.256 -1.0602 -0.1376  0.5172
13227SOL    HW241836   9.658   0.117   4.128  0.6153  0.5210  1.6223
13228SOL     OW41837   1.323   1.582   1.583 -0.5659  0.5982  0.5886
13228SOL    HW141838   1.371   1.624   1.655  1.2751 -0.0678 -0.1681
13228SOL    HW241839   1.388   1.573   1.513 -2.3884  1.5853 -1.3537
13229SOL     OW41840   3.178   9.022   9.356  0.0451 -0.8004  0.1530
13229SOL    HW141841   3.132   9.075   9.290  1.1274 -0.6011 -0.4545
13229SOL    HW241842   3.228   8.958   9.305 -0.4360 -1.7573  0.8491
13230SOL     OW41843   6.427   4.103   6.822  0.2191  0.2527  0.1421
13230SOL    HW141844   6.401   4.027   6.770 -0.7219  0.4938  0.2431
13230SOL    HW241845   6.346   4.134   6.862  0.6867  0.9649  0.5675
13231SOL     OW41846   7.438   5.145   1.793 -0.6677 -0.4314  0.4499
13231SOL    HW141847   7.464   5.113   1.879  0.8366  0.1307  0.2376
13231SOL    HW241848   7.432   5.067   1.739  0.7078 -0.6040  0.5030
13232SOL     OW41849   6.900   6.902   5.492 -0.4914  0.5562 -0.1455
13232SOL    HW141850   6.898   6.921   5.585  2.1489  0.7541 -0.0582
13232SOL    HW241851   6.947   6.819   5.484 -2.2266 -0.3799 -1.2241
13233SOL     OW41852   7.476   5.370   2.197 -0.0887 -0.5577  0.3183
13233SOL    HW141853   7.387   5.400   2.178 -0.1042  0.2591  1.5750
13233SOL    HW241854   7.512   5.347   2.112 -1.6732 -1.3962 -0.1701
13234SOL     OW41855   0.089   8.517   0.330  0.0386 -0.3957  0.1515
13234SOL    HW141856   0.109   8.424   0.332  0.7678 -0.2434  1.6160
13234SOL    HW241857   0.114   8.546   0.242  2.6367 -1.0206  0.5881
13235SOL     OW41858   0.291   9.179   8.069  0.2277 -0.1779 -0.2478
13235SOL    HW141859   0.363   9.239   8.087  0.3069 -0.5350  0.7261
13235SOL    HW241860   0.273   9.138   8.154 -1.8599  0.6965 -0.2093
13236SOL     OW41861   3.517   5.555   5.591  0.3355  0.6576 -0.3915
13236SOL    HW141862   3.444   5.537   5.531 -0.1102  2.3518 -0.4107
13236SOL    HW241863   3.499   5.500   5.667 -0.8992  0.9289 -0.4570
13237SOL     OW41864   3.737   4.240   2.751 -0.1940 -0.1096 -0.1803
13237SOL    HW141865   3.689   4.166   2.789 -0.7898  1.1884  1.7421
13237SOL    HW241866   3.694   4.318   2.788  0.7621  1.1964 -1.7085
13238SOL     OW41867   4.280   0.380   2.152  0.0476 -0.9261 -0.6050
13238SOL    HW141868   4.258   0.428   2.073 -1.3814 -1.1037 -0.3470
13238SOL    HW241869   4.344   0.435   2.197  0.7812 -0.7659 -1.8027
13239SOL     OW41870   0.325   2.761   2.751  0.1114 -0.5949 -0.5009
13239SOL    HW141871   0.338   2.731   2.841 -1.0976 -3.1253 -1.0842
13239SOL    HW241872   0.383   2.706   2.698 -0.8022 -0.6888 -1.4478
13240SOL     OW41873   1.441   3.580   6.375  0.2058 -0.2337  0.1064
13240SOL    HW141874   1.532   3.550   6.365 -0.0461 -1.2998  0.9322
13240SOL    HW241875   1.427   3.585   6.469 -0.6958 -0.3819 -0.0121
13241SOL     OW41876   4.022   8.087   8.328  0.6863  0.3448 -0.2788
13241SOL    HW141877   3.931   8.055   8.330  0.0868  1.9371 -0.2629
13241SOL    HW241878   4.067   8.033   8.393 -0.7178  0.7579  1.1267
13242SOL     OW41879   6.647   4.570   5.509  0.4472  0.1398 -0.2272
13242SOL    HW141880   6.672   4.644   5.564 -0.9238  0.9440 -0.6559
13242SOL    HW241881   6.553   4.580   5.496  0.3316 -1.3866 -0.7427
13243SOL     OW41882   2.166   8.512   2.015  0.9923 -0.2517 -0.2659
13243SOL    HW141883   2.124   8.597   2.006  1.5175  0.1498  0.9583
13243SOL    HW241884   2.134   8.478   2.099  0.3511 -1.5259 -0.9872
13244SOL     OW41885   6.339   8.425   6.157  0.0759 -0.8269 -0.1477
13244SOL    HW141886   6.421   8.426   6.108  0.4743 -1.2467  0.5044
13244SOL    HW241887   6.300   8.511   6.141  1.2052 -0.1900  0.4899
13245SOL     OW41888   5.704   1.810   8.384 -0.6613  0.3769  0.0081
13245SOL    HW141889   5.788   1.854   8.396 -0.1647 -0.6425  0.3162
13245SOL    HW241890   5.662   1.859   8.313  0.2489  0.7995 -0.2567
13246SOL     OW41891   5.670   9.314   0.433  0.2505 -0.1112  0.5613
13246SOL    HW141892   5.591   9.335   0.385  1.0737 -1.5773 -1.5857
13246SOL    HW241893   5.694   9.396   0.477 -1.1232  1.0356 -0.7152
13247SOL     OW41894   7.338   5.812   6.103  0.0296  0.9102  0.5514
13247SOL    HW141895   7.251   5.846   6.125 -2.0661 -3.1820 -0.5043
13247SOL    HW241896   7.352   5.741   6.166  0.7818 -1.0199 -1.6807
13248SOL     OW41897   4.232   4.823   8.258 -0.6477 -0.8833  0.0751
13248SOL    HW141898   4.275   4.907   8.245 -0.4736 -0.7449  1.4083
13248SOL    HW241899   4.215   4.819   8.352 -0.2723 -2.5135  0.1054
13249SOL     OW41900   3.577   3.126   8.926  0.6172  0.1345  0.5390
13249SOL    HW141901   3.548   3.035   8.918  0.4501  0.1342  1.1191
13249SOL    HW241902   3.645   3.135   8.860 -1.0062  0.2797 -1.1856
13250SOL     OW41903   9.221   6.492   9.168  0.0554  0.3088  0.1602
13250SOL    HW141904   9.273   6.545   9.108  0.2152  1.6914  1.4711
13250SOL    HW241905   9.131   6.518   9.151 -0.0056 -0.2359 -0.3595
13251SOL     OW41906   2.545   7.295   6.974 -0.2894 -0.1293  0.2868
13251SOL    HW141907   2.636   7.299   6.946 -0.6895 -0.4423 -1.1754
13251SOL    HW241908   2.546   7.242   7.054  0.5027 -2.7410 -1.3257
13252SOL     OW41909   0.371   8.577   4.248 -0.2527  0.4039  0.2509
13252SOL    HW141910   0.328   8.516   4.187 -0.0604  1.1447 -0.6571
13252SOL    HW241911   0.301   8.607   4.305 -0.7019  0.6546 -0.4188
13253SOL     OW41912   0.124   3.689   2.321  0.3269 -0.3417  0.0084
13253SOL    HW141913   0.140   3.605   2.278 -2.3896 -0.4508 -1.0092
13253SOL    HW241914   0.207   3.711   2.364  2.6279 -1.2715 -3.5097
13254SOL     OW41915   1.123   1.312   2.131  0.2467 -0.0971 -0.4810
13254SOL    HW141916   1.062   1.278   2.065  0.7683  0.9228 -1.5301
13254SOL    HW241917   1.091   1.276   2.213 -2.0090  0.6461 -0.9348
13255SOL     OW41918   6.585   5.070   8.011  0.0942  0.3887  0.2798
13255SOL    HW141919   6.511   5.123   7.980  0.2882  0.3946 -0.1725
13255SOL    HW241920   6.608   5.016   7.936  0.4312  0.2538  0.4828
13256SOL     OW41921   1.839   9.119   1.370  0.0063 -0.1073 -0.4806
13256SOL    HW141922   1.855   9.094   1.461  2.4199  1.3803 -0.4190
13256SOL    HW241923   1.813   9.037   1.327 -1.6224 -0.7580  1.5796
13257SOL     OW41924   7.464   1.547   4.697 -0.1586  0.3482  0.2847
13257SOL    HW141925   7.457   1.452   4.685 -1.2660  0.3619  0.6812
13257SOL    HW241926   7.410   1.584   4.628 -0.0669  0.6757  0.3877
13258SOL     OW41927   1.254   2.493   5.317 -0.5493  0.4325 -0.3898
13258SOL    HW141928   1.207   2.536   5.389 -1.4130  0.5821 -1.0261
13258SOL    HW241929   1.237   2.549   5.241  0.6300  0.4561 -0.6457
13259SOL     OW41930   4.181   3.245   9.555 -0.2570  0.1254 -0.6112
13259SOL    HW141931   4.158   3.301   9.481 -0.7174 -1.7045 -1.9356
13259SOL    HW241932   4.123   3.169   9.546  0.2914 -0.5538  1.1497
13260SOL     OW41933   8.848   2.715   4.089  0.2246 -0.2616 -0.1457
13260SOL    HW141934   8.760   2.736   4.056  0.4817  1.4339  0.1946
13260SOL    HW241935   8.832   2.664   4.168 -0.4562  0.1206 -0.0284
13261SOL     OW41936   9.525   1.626   7.593  0.5313 -0.1170 -0.7670
13261SOL    HW141937   9.437   1.657   7.572  0.3020 -0.2726 -0.0712
13261SOL    HW241938   9.515   1.531   7.605  0.3704  0.1311  1.3217
13262SOL     OW41939   1.136   3.972   6.821 -0.1023  0.3361  0.0373
13262SOL    HW141940   1.088   4.043   6.778 -0.1274  0.3525  0.0936
13262SOL    HW241941   1.133   3.901   6.757 -0.9740  0.0298  0.4068
13263SOL     OW41942   3.102   4.896   6.418 -0.2963 -0.8139  0.5438
13263SOL    HW141943   3.163   4.947   6.365 -0.2533 -2.4970 -1.1450
13263SOL    HW241944   3.130   4.911   6.508  3.1674 -2.1248 -0.1563
13264SOL     OW41945   1.252   9.326   3.010 -0.3931  0.3553 -0.0815
13264SOL    HW141946   1.257   9.267   2.936  0.8670  1.5187 -0.9656
13264SOL    HW241947   1.167   9.371   2.999  0.1047  1.0537 -1.2693
13265SOL     OW41948   5.324   5.246   0.605 -0.2624 -0.0312  0.5337
13265SOL    HW141949   5.341   5.235   0.511  1.0078  1.5359  0.5381
13265SOL    HW241950   5.295   5.337   0.613 -0.5031 -0.1971  1.6454
13266SOL     OW41951   3.949   3.464   0.893 -0.2395 -0.8637  0.2298
13266SOL    HW141952   3.935   3.421   0.809 -2.4417 -1.3287  0.7717
13266SOL    HW241953   4.040   3.494   0.890 -0.2131 -1.0141 -2.2279
13267SOL     OW41954   1.974   4.995   7.546 -0.1191  0.4300 -0.1565
13267SOL    HW141955   1.974   5.084   7.510 -0.3128  0.4368 -0.1404
13267SOL    HW241956   1.928   5.002   7.629 -0.1275  0.3162 -0.1507
13268SOL     OW41957   6.193   2.164   7.958  0.4756 -0.1770 -0.1684
13268SOL    HW141958   6.235   2.216   8.026 -0.2238  0.6846 -0.3782
13268SOL    HW241959   6.127   2.112   8.005  1.3780 -1.1266  0.0836
13269SOL     OW41960   2.695   6.109   3.217  0.2329 -0.1728 -0.7500
13269SOL    HW141961   2.701   6.135   3.309 -1.8565  2.0393 -1.1406
13269SOL    HW241962   2.633   6.036   3.217 -0.4619  0.4021 -0.4528
13270SOL     OW41963   0.272   1.930   4.490  0.3764 -0.1335 -0.0336
13270SOL    HW141964   0.243   2.002   4.546  0.5703 -0.5650  0.6475
13270SOL    HW241965   0.324   1.874   4.549  0.8880 -0.4168 -0.7345
13271SOL     OW41966   5.157   3.439   3.244 -0.1705 -0.5970  0.2297
13271SOL    HW141967   5.169   3.493   3.322  0.1496  0.4902 -0.5550
13271SOL    HW241968   5.234   3.382   3.242  0.0222 -0.3451  0.4737
13272SOL     OW41969   6.660   2.668   8.198 -0.2531  0.0189  0.1118
13272SOL    HW141970   6.738   2.687   8.250  0.0056 -0.2804 -0.1605
13272SOL    HW241971   6.690   2.672   8.107 -0.4407 -0.5962  0.0177
13273SOL     OW41972   1.147   6.553   0.420 -0.2283  0.0952  0.5053
13273SOL    HW141973   1.069   6.511   0.456 -2.2730  1.3689 -2.1001
13273SOL    HW241974   1.131   6.647   0.431  0.7924  0.3941 -0.3528
13274SOL     OW41975   2.533   4.834   9.404 -0.3704  0.1471  0.1926
13274SOL    HW141976   2.612   4.808   9.356 -0.2321 -0.8981  0.9357
13274SOL    HW241977   2.503   4.753   9.445 -1.3962  0.6929  0.5561
13275SOL     OW41978   8.523   6.321   1.865 -0.6109 -0.2857  0.4517
13275SOL    HW141979   8.539   6.413   1.888 -0.1630 -0.3260  0.3044
13275SOL    HW241980   8.437   6.302   1.903 -0.8380  0.2816  0.2289
13276SOL     OW41981   8.905   4.105   5.872 -0.2267  0.7236  0.1874
13276SOL    HW141982   8.939   4.120   5.784  1.2632 -2.3623  0.1275
13276SOL    HW241983   8.913   4.011   5.886 -1.7453  0.8994  3.1322
13277SOL     OW41984   6.518   0.083   6.895  0.2728  0.0690 -0.1455
13277SOL    HW141985   6.600   0.119   6.929  0.3381  1.2207 -1.4510
13277SOL    HW241986   6.455   0.098   6.966  0.9595  0.0725  0.4826
13278SOL     OW41987   9.583   5.168   2.347  0.1071 -0.0126  0.1043
13278SOL    HW141988   9.647   5.128   2.405 -0.1453 -1.9169 -0.8696
13278SOL    HW241989   9.622   5.252   2.323  0.4520  0.6137  2.5482
13279SOL     OW41990   8.543   8.053   6.262 -0.4524 -0.0477 -0.1061
13279SOL    HW141991   8.588   8.127   6.304  0.1379 -0.3799 -0.1503
13279SOL    HW241992   8.592   8.037   6.181  0.2472 -1.3327  0.5367
13280SOL     OW41993   5.386   2.870   7.767  0.3376 -0.1901 -0.1712
13280SOL    HW141994   5.426   2.957   7.761 -1.0420  0.6229  1.6162
13280SOL    HW241995   5.452   2.817   7.813  0.2870  0.5477  0.7861
13281SOL     OW41996   8.135   9.362   7.849 -0.4735  0.0605  0.5038
13281SOL    HW141997   8.225   9.336   7.830 -0.8484 -0.8586 -0.0860
13281SOL    HW241998   8.134   9.382   7.943  0.4716  0.6750  0.3985
13282SOL     OW41999   9.052   5.527   1.467  0.0899 -0.1070  0.0977
13282SOL    HW142000   9.049   5.432   1.458 -0.2035 -0.2315  1.3971
13282SOL    HW242001   9.144   5.549   1.455 -0.0405 -0.3783 -1.6668
13283SOL     OW42002   6.760   2.015   3.247 -0.1328 -0.1848 -0.6951
13283SOL    HW142003   6.716   1.936   3.217  0.6503 -0.1250 -2.0861
13283SOL    HW242004   6.818   2.039   3.175 -0.6492  1.8946 -0.4779
13284SOL     OW42005   3.369   6.109   5.087  0.3703 -0.0742  0.7512
13284SOL    HW142006   3.334   6.197   5.094 -2.1659 -1.0494  1.7156
13284SOL    HW242007   3.316   6.067   5.019  0.6458 -1.2174  1.2113
13285SOL     OW42008   7.743   1.589   4.767  0.0267 -0.5034 -0.0825
13285SOL    HW142009   7.655   1.571   4.733 -0.0218 -1.3424  0.4450
13285SOL    HW242010   7.794   1.512   4.740  0.0361 -1.0865  1.5067
13286SOL     OW42011   7.725   3.470   0.720  0.1855  0.4722 -0.2850
13286SOL    HW142012   7.663   3.434   0.656  0.7358 -0.9562 -0.0574
13286SOL    HW242013   7.797   3.504   0.667  0.4284 -0.2921 -0.4612
13287SOL     OW42014   6.370   3.098   0.784 -0.2213  0.5245 -0.1102
13287SOL    HW142015   6.446   3.146   0.751 -1.5570  1.2030 -2.4332
13287SOL    HW242016   6.380   3.101   0.880  2.0126  1.6024 -0.3004
13288SOL     OW42017   0.334   3.593   5.711 -0.0614  0.1888 -0.2877
13288SOL    HW142018   0.421   3.570   5.678 -0.1762  1.4905 -1.6102
13288SOL    HW242019   0.349   3.668   5.768 -0.3302  0.5220 -0.6514
13289SOL     OW42020   7.152   2.231   3.045  0.1148  0.1763 -0.6635
13289SOL    HW142021   7.091   2.157   3.050  0.8473 -0.7671 -3.5745
13289SOL    HW242022   7.096   2.308   3.040 -0.7355 -0.3869 -0.0873
13290SOL     OW42023   7.489   7.467   1.554  0.1998  0.7528 -0.4013
13290SOL    HW142024   7.534   7.520   1.620 -0.3061  0.8742 -0.1489
13290SOL    HW242025   7.462   7.529   1.486  0.6786  0.6347 -0.7037
13291SOL     OW42026   4.233   2.607   8.714 -0.5888 -0.5864  0.3429
13291SOL    HW142027   4.301   2.541   8.711 -0.1490 -0.1168 -0.2101
13291SOL    HW242028   4.234   2.638   8.805 -0.2742 -0.7916  0.4102
13292SOL     OW42029   2.691   6.093   3.850  0.2871  0.3905 -0.5247
13292SOL    HW142030   2.669   6.132   3.934 -1.2033 -2.5097  0.5990
13292SOL    HW242031   2.606   6.085   3.805  0.6635 -0.5397 -1.1066
13293SOL     OW42032   2.612   0.736   7.413 -0.1621 -0.4021  0.3741
13293SOL    HW142033   2.636   0.702   7.327 -0.6095 -0.7176  0.3694
13293SOL    HW242034   2.535   0.791   7.396  0.4452  0.4711  0.4073
13294SOL     OW42035   7.443   7.339   3.439 -0.3104  0.2521 -0.2032
13294SOL    HW142036   7.469   7.390   3.516 -2.8047  2.0315 -0.3951
13294SOL    HW242037   7.440   7.249   3.469 -0.0986  0.7751  1.4862
13295SOL     OW42038   0.642   3.988   1.578 -0.0406 -0.2536 -0.7680
13295SOL    HW142039   0.621   3.920   1.642  1.5370  0.5702  0.7341
13295SOL    HW242040   0.737   3.996   1.583 -0.1367  1.6777 -1.2813
13296SOL     OW42041   4.465   3.405   9.080 -0.0193  0.0586 -0.3939
13296SOL    HW142042   4.408   3.459   9.026  1.1587  0.5118 -1.2332
13296SOL    HW242043   4.529   3.369   9.018  0.2970 -0.8607  0.4331
13297SOL     OW42044   6.753   1.255   5.915 -0.3963  0.5750  0.3873
13297SOL    HW142045   6.822   1.224   5.855 -0.2590 -2.1836  1.8345
13297SOL    HW242046   6.671   1.227   5.874 -0.2528 -2.4538  1.9289
13298SOL     OW42047   1.157   7.405   0.754  0.4506 -0.0188  0.4472
13298SOL    HW142048   1.250   7.383   0.751  0.4525 -0.1330 -2.7957
13298SOL    HW242049   1.113   7.322   0.773  0.9645  0.1526  2.6227
13299SOL     OW42050   6.692   4.408   1.691  0.2039  0.0515  0.8486
13299SOL    HW142051   6.723   4.323   1.723 -0.5477  0.0229  1.5165
13299SOL    HW242052   6.598   4.397   1.681  0.0520  0.9087  1.2632
13300SOL     OW42053   2.299   0.001   0.896  0.6432  0.7711  0.6919
13300SOL    HW142054   2.210  -0.013   0.928  0.2756 -1.2453 -0.9785
13300SOL    HW242055   2.295   0.084   0.849 -1.0194 -0.3364 -1.2799
13301SOL     OW42056   1.887   7.949   7.500 -0.2205 -0.2055  0.5356
13301SOL    HW142057   1.961   7.977   7.554  0.1857  2.7080 -1.2844
13301SOL    HW242058   1.879   7.855   7.517  3.9386 -0.7140  0.8148
13302SOL     OW42059   1.246   7.203   2.984  0.0798 -0.6982 -0.1534
13302SOL    HW142060   1.166   7.199   2.932 -0.1942  0.5573  0.1538
13302SOL    HW242061   1.312   7.237   2.924 -0.1594  0.4320  0.1983
13303SOL     OW42062   8.093   1.862   8.841  0.2552 -0.1078 -0.2074
13303SOL    HW142063   8.002   1.859   8.870  0.3488 -1.0865  0.0052
13303SOL    HW242064   8.095   1.932   8.776 -0.4064  0.7039  0.6141
13304SOL     OW42065   6.185   0.979   5.796  0.5102 -0.0001  0.3893
13304SOL    HW142066   6.191   1.071   5.771 -0.3788  0.0050  0.1509
13304SOL    HW242067   6.208   0.931   5.716  1.8160 -0.0006  0.7448
13305SOL     OW42068   3.577   1.792   1.678 -0.0860 -0.5763  0.0565
13305SOL    HW142069   3.661   1.747   1.672 -0.1676 -0.8566  0.9567
13305SOL    HW242070   3.548   1.779   1.768 -0.7706  0.1065 -0.0493
13306SOL     OW42071   7.789   7.988   6.513 -0.1568  0.1693 -0.0847
13306SOL    HW142072   7.878   8.019   6.526  0.3086 -0.7167 -1.0093
13306SOL    HW242073   7.758   8.034   6.435 -0.0737 -0.3835 -0.4543
13307SOL     OW42074   4.660   3.355   2.637 -0.4062 -0.3644  0.0103
13307SOL    HW142075   4.596   3.356   2.709  0.0505 -0.1103  0.4230
13307SOL    HW242076   4.694   3.265   2.636 -0.2359 -0.3058  0.2806
13308SOL     OW42077   0.645   0.599   3.537  0.3983  0.9670  0.0753
13308SOL    HW142078   0.564   0.647   3.556 -0.0176  0.0766  0.6491
13308SOL    HW242079   0.689   0.591   3.622  0.2768  0.0463  0.0675
13309SOL     OW42080   7.182   6.858   2.185 -0.1288 -0.3768  0.3988
13309SOL    HW142081   7.264   6.842   2.231  1.9446  0.6778 -2.6371
13309SOL    HW242082   7.183   6.795   2.112 -0.6024  1.4383 -1.2646
13310SOL     OW42083   9.342   1.198   9.465 -0.0631  0.1204 -0.0992
13310SOL    HW142084   9.367   1.164   9.378 -1.6351 -0.1282 -0.4810
13310SOL    HW242085   9.274   1.262   9.447 -1.2370 -0.7646  1.0089
13311SOL     OW42086   1.065   8.011   1.251  0.6186 -0.1845 -0.1526
13311SOL    HW142087   1.080   7.992   1.159  0.8529 -1.7505  0.1772
13311SOL    HW242088   0.971   8.030   1.257  0.1289 -2.2903 -0.4054
13312SOL     OW42089   6.238   7.403   5.078  0.0272  0.5130  0.5049
13312SOL    HW142090   6.221   7.326   5.132 -1.5494  1.3836  1.3334
13312SOL    HW242091   6.151   7.436   5.055  0.6679  1.4205 -0.7481
13313SOL     OW42092   1.172   3.796   6.006 -0.0961  0.0152  0.0014
13313SOL    HW142093   1.250   3.796   6.061  0.8691 -1.0164 -1.3126
13313SOL    HW242094   1.189   3.862   5.939 -1.1788  1.1175  0.7571
13314SOL     OW42095   9.405   5.946   4.923 -0.0447 -0.3389  0.2530
13314SOL    HW142096   9.419   5.855   4.946 -0.8665 -0.6214 -0.3041
13314SOL    HW242097   9.489   5.989   4.940  0.7580 -1.4622 -0.7241
13315SOL     OW42098   7.815   6.045   2.709 -0.1426 -0.2686  0.0242
13315SOL    HW142099   7.890   6.105   2.710 -0.5473  0.2731 -0.9636
13315SOL    HW242100   7.819   6.004   2.623  0.1132 -1.6633  0.6820
13316SOL     OW42101   4.740   5.056   1.212 -0.5033  0.3879 -0.2417
13316SOL    HW142102   4.748   5.037   1.305  1.3684  0.5166 -0.3484
13316SOL    HW242103   4.730   5.151   1.208 -0.8785  0.3543 -0.1708
13317SOL     OW42104   3.564   5.923   9.303 -0.0670 -0.0338 -0.3098
13317SOL    HW142105   3.507   5.874   9.362 -0.3714  1.6546  0.8605
13317SOL    HW242106   3.508   5.990   9.266  0.9351  1.1248  0.2181
13318SOL     OW42107   7.418   2.346   1.838  0.4229 -0.1694  0.9426
13318SOL    HW142108   7.513   2.345   1.833  0.3979  0.2999 -2.7368
13318SOL    HW242109   7.390   2.285   1.770 -1.8279  1.9766 -0.2155
13319SOL     OW42110   4.958   9.108   3.022  0.5080 -0.0315  0.5343
13319SOL    HW142111   4.907   9.148   3.093  0.1688  0.8121 -0.1628
13319SOL    HW242112   4.962   9.176   2.955 -1.3070 -1.6273 -1.3413
13320SOL     OW42113   4.122   2.604   4.215  0.7077  0.2146 -0.1824
13320SOL    HW142114   4.179   2.529   4.200  0.6705  0.2450 -0.4823
13320SOL    HW242115   4.122   2.651   4.132 -1.2715 -0.8002 -0.8256
13321SOL     OW42116   3.955   2.823   4.846 -0.1490 -0.2087  0.7248
13321SOL    HW142117   3.998   2.789   4.925 -1.2930  0.3150  1.6032
13321SOL    HW242118   3.936   2.745   4.794  1.7646 -0.4601  0.3278
13322SOL     OW42119   0.874   5.226   0.735 -0.1636 -0.2142 -0.2019
13322SOL    HW142120   0.783   5.244   0.713 -0.3244  0.4490  0.9666
13322SOL    HW242121   0.890   5.273   0.817  0.9706 -1.0458  0.0878
13323SOL     OW42122   0.027   5.488   1.203 -0.0190 -0.5059 -0.0315
13323SOL    HW142123   0.120   5.469   1.194 -0.0002  0.1217 -1.3447
13323SOL    HW242124   0.022   5.584   1.203 -0.6770 -0.5381 -0.1309
13324SOL     OW42125   2.131   5.016   1.641  0.1743  0.1789 -0.3886
13324SOL    HW142126   2.035   5.018   1.636  0.0888 -0.2353  0.7607
13324SOL    HW242127   2.158   4.958   1.570 -0.5043 -0.6388  0.0018
13325SOL     OW42128   2.398   8.583   3.619 -0.0860 -1.0074  0.6028
13325SOL    HW142129   2.339   8.631   3.678  0.0068  1.7233 -1.3169
13325SOL    HW242130   2.464   8.545   3.677  0.0275  1.5560  2.3252
13326SOL     OW42131   7.256   2.489   5.217  0.0232 -0.4625  0.0590
13326SOL    HW142132   7.315   2.426   5.176  0.0149 -0.9742  0.8092
13326SOL    HW242133   7.213   2.533   5.144  0.5733 -0.8036 -0.4840
13327SOL     OW42134   5.496   6.250   3.004  0.5272 -0.1143 -0.1181
13327SOL    HW142135   5.550   6.304   2.946  1.6308 -2.6083 -1.5476
13327SOL    HW242136   5.428   6.213   2.947  0.5146 -1.1557  0.5439
13328SOL     OW42137   8.141   2.946   7.908  0.3259  0.2092  0.4707
13328SOL    HW142138   8.138   2.874   7.971  2.8121 -0.5918 -0.2217
13328SOL    HW242139   8.160   3.023   7.962 -1.1789  0.1785  1.0794
13329SOL     OW42140   3.210   2.664   4.320  0.0057  0.2342  0.0031
13329SOL    HW142141   3.261   2.589   4.290 -0.0896  0.0088  0.3903
13329SOL    HW242142   3.121   2.645   4.292  0.0988  0.5411 -0.5141
13330SOL     OW42143   6.320   5.779   3.789 -0.2828 -0.2440 -0.4801
13330SOL    HW142144   6.233   5.813   3.807  0.7191  3.1126 -1.1630
13330SOL    HW242145   6.333   5.793   3.695 -0.1481 -3.9180 -1.1677
13331SOL     OW42146   2.160   5.549   4.342  0.1123 -0.1170  0.0627
13331SOL    HW142147   2.167   5.583   4.253  1.2020 -0.9183 -0.1780
13331SOL    HW242148   2.096   5.606   4.385 -0.4564  0.2541 -1.2354
13332SOL     OW42149   3.752   5.140   3.539 -0.2096 -0.5016 -0.1002
13332SOL    HW142150   3.792   5.156   3.453  2.7839  1.2479  1.4325
13332SOL    HW242151   3.747   5.227   3.579 -2.2561 -1.1820  1.2760
13333SOL     OW42152   5.687   5.387   8.732  0.7284  0.6841  0.5443
13333SOL    HW142153   5.616   5.442   8.698  1.6249  1.6816  0.2268
13333SOL    HW242154   5.726   5.440   8.801  0.5415 -0.2811  1.4120
13334SOL     OW42155   6.151   6.783   0.364  0.1124  0.0192  0.4056
13334SOL    HW142156   6.145   6.728   0.286 -0.6463  1.3986 -0.5567
13334SOL    HW242157   6.078   6.755   0.419  0.3140 -0.5835  0.3642
13335SOL     OW42158   2.009   5.525   3.201 -0.3590 -0.4429  0.1147
13335SOL    HW142159   2.025   5.449   3.145  0.1241  0.2931 -0.7714
13335SOL    HW242160   2.074   5.590   3.173 -1.0012  0.4363  0.6003
13336SOL     OW42161   2.729   0.986   2.526  0.0370 -0.3179 -0.2571
13336SOL    HW142162   2.778   0.957   2.602  0.5337  3.4329  1.0889
13336SOL    HW242163   2.797   1.009   2.462 -0.1832  0.1260 -0.3351
13337SOL     OW42164   2.356   0.469   9.589  0.3780  0.8370  0.1314
13337SOL    HW142165   2.304   0.421   9.524  1.8021 -0.8468  0.1320
13337SOL    HW242166   2.428   0.507   9.538  1.1260  0.0710  0.5736
13338SOL     OW42167   6.761   3.533   3.443 -0.5286 -0.0609  0.4824
13338SOL    HW142168   6.778   3.579   3.525  1.2546  0.8211 -0.3372
13338SOL    HW242169   6.747   3.602   3.378  2.6303 -0.5353 -0.8546
13339SOL     OW42170   2.855   7.939   4.310 -0.1429  0.0054  0.2478
13339SOL    HW142171   2.860   7.866   4.371 -0.5364  0.1387  0.4415
13339SOL    HW242172   2.764   7.968   4.314  0.3832  1.7001  1.5957
13340SOL     OW42173   3.409   6.188   6.431  0.5101 -0.5233  0.0832
13340SOL    HW142174   3.455   6.241   6.496 -2.4392  2.5822 -0.0596
13340SOL    HW242175   3.432   6.228   6.347 -1.2113  0.1661 -0.0962
13341SOL     OW42176   1.827   3.983   6.713 -0.0389 -0.5326 -0.1801
13341SOL    HW142177   1.840   3.990   6.808  1.3708 -0.5738 -0.3541
13341SOL    HW242178   1.831   3.889   6.695 -1.3294 -0.6135 -0.1720
13342SOL     OW42179   7.046   0.724   1.953  1.3047  0.1088  0.2424
13342SOL    HW142180   6.983   0.704   2.022  0.4333 -0.7054 -0.7636
13342SOL    HW242181   7.085   0.640   1.930  0.6075  0.1459 -1.1720
13343SOL     OW42182   8.595   3.634   7.541  0.3218  0.4072  0.4518
13343SOL    HW142183   8.667   3.684   7.502 -1.0137  0.9700 -1.4168
13343SOL    HW242184   8.562   3.690   7.612  1.7649  0.0691  1.4454
13344SOL     OW42185   6.438   9.304   7.237 -0.5433 -0.8094 -0.2143
13344SOL    HW142186   6.408   9.365   7.303 -0.2760  0.8193 -1.5377
13344SOL    HW242187   6.411   9.343   7.154  2.9835 -0.4229 -1.3661
13345SOL     OW42188   3.792   1.093   0.801 -0.6265  0.8473  0.4720
13345SOL    HW142189   3.700   1.114   0.785 -0.0407  2.1059 -1.7055
13345SOL    HW242190   3.831   1.087   0.713  0.5868 -3.7469  1.0711
13346SOL     OW42191   2.204   2.108   0.849  0.5195  0.1167 -0.0855
13346SOL    HW142192   2.290   2.116   0.808  0.6561  1.3806  0.3820
13346SOL    HW242193   2.165   2.030   0.810  0.6463  1.2204 -2.6480
13347SOL     OW42194   0.210   7.006   6.835 -0.0725  0.0391  0.7660
13347SOL    HW142195   0.140   7.071   6.838  0.6451  0.8224  0.8672
13347SOL    HW242196   0.179   6.935   6.891 -0.5593  0.6117  1.2364
13348SOL     OW42197   3.469   8.419   8.898 -0.0209 -0.1723  0.3008
13348SOL    HW142198   3.398   8.482   8.911  0.2725  0.2775 -0.1934
13348SOL    HW242199   3.448   8.346   8.956  0.2123  0.8626  1.7540
13349SOL     OW42200   3.148   3.007   2.866 -0.1791 -1.0485  0.0451
13349SOL    HW142201   3.091   3.032   2.793  0.5487  0.4275 -0.0647
13349SOL    HW242202   3.228   2.975   2.824  1.5810  2.8696  0.0193
13350SOL     OW42203   3.041   8.441   8.315  0.5908 -0.0538 -0.1026
13350SOL    HW142204   2.960   8.447   8.366  0.2708 -0.2568 -0.5741
13350SOL    HW242205   3.011   8.434   8.224  0.9364 -3.7061 -0.1059
13351SOL     OW42206   5.694   3.014   6.168 -0.2507  0.0798  0.0833
13351SOL    HW142207   5.706   2.943   6.232  0.3083  0.4275  0.3670
13351SOL    HW242208   5.783   3.035   6.139 -0.5520 -0.6116 -1.4068
13352SOL     OW42209   2.727   1.378   0.493 -0.4861 -0.2717 -0.1695
13352SOL    HW142210   2.705   1.466   0.463  0.2278  0.1624  0.5554
13352SOL    HW242211   2.648   1.347   0.538 -0.0552  0.8034  1.3727
13353SOL     OW42212   0.763   2.565   7.175  0.0309  0.7844  0.0791
13353SOL    HW142213   0.851   2.530   7.162 -0.4793 -0.8206  0.7092
13353SOL    HW242214   0.714   2.539   7.097 -0.1421  0.8291  0.1713
13354SOL     OW42215   3.221   1.308   6.140 -1.1521 -0.4735  0.0552
13354SOL    HW142216   3.191   1.244   6.075  1.3445 -1.3616 -0.3282
13354SOL    HW242217   3.172   1.387   6.120 -1.1035 -0.9784 -2.3580
13355SOL     OW42218   3.984   2.336   8.430  0.5783 -0.0434 -0.2271
13355SOL    HW142219   3.941   2.389   8.363  2.1366 -1.0714 -2.1388
13355SOL    HW242220   3.930   2.257   8.435 -0.8578  0.9851  1.4924
13356SOL     OW42221   5.524   5.441   8.294  0.3657  0.6047  0.3982
13356SOL    HW142222   5.497   5.506   8.358  0.4662  1.3099 -0.2583
13356SOL    HW242223   5.489   5.472   8.211  0.2221 -0.3019  0.1062
13357SOL     OW42224   6.320   4.942   5.442  0.3700  0.0419 -0.2015
13357SOL    HW142225   6.353   4.897   5.365  0.1790  2.8925 -2.1206
13357SOL    HW242226   6.225   4.946   5.429  0.5880  3.6248 -1.8571
13358SOL     OW42227   2.973   0.252   5.948  0.1052 -0.1064  0.0391
13358SOL    HW142228   3.026   0.251   6.028 -0.1126 -0.7904  0.1795
13358SOL    HW242229   2.914   0.326   5.960  0.1557 -0.1298  0.4544
13359SOL     OW42230   0.660   3.159   7.629 -0.3062 -0.9569  0.2981
13359SOL    HW142231   0.718   3.227   7.594 -0.4562 -0.8595  0.2372
13359SOL    HW242232   0.634   3.192   7.715 -0.4308 -0.9042  0.2415
13360SOL     OW42233   3.290   8.407   3.240 -0.5770  0.3668  0.1232
13360SOL    HW142234   3.253   8.330   3.197 -2.8136  0.5397  1.5991
13360SOL    HW242235   3.231   8.426   3.312  0.9678  2.3489  0.9820
13361SOL     OW42236   8.136   5.898   6.213  0.3135  0.1033 -0.3397
13361SOL    HW142237   8.139   5.980   6.164  0.4123 -0.4873 -1.3292
13361SOL    HW242238   8.097   5.922   6.297 -1.1322  0.8734 -1.1985
13362SOL     OW42239   2.316   9.386   0.051 -0.0899 -0.2256 -0.3813
13362SOL    HW142240   2.225   9.402   0.023 -0.3671  0.3090  0.7785
13362SOL    HW242241   2.318   9.293   0.073 -0.2974 -0.2851 -0.5979
13363SOL     OW42242   9.261   7.626   0.852  0.2304 -0.3660  0.9116
13363SOL    HW142243   9.220   7.603   0.935 -0.3693  3.1133  1.7130
13363SOL    HW242244   9.195   7.605   0.786  0.6522 -3.0046  1.2072
13364SOL     OW42245   0.527   1.728   6.875  0.1843  0.3364 -0.5421
13364SOL    HW142246   0.503   1.635   6.881  1.1071  0.1215  0.0578
13364SOL    HW242247   0.502   1.764   6.961  0.4278  0.4944 -0.5378
13365SOL     OW42248   7.685   0.445   8.575  0.2189  0.4852 -0.0715
13365SOL    HW142249   7.662   0.370   8.521  1.2120  1.3474 -1.7750
13365SOL    HW242250   7.766   0.479   8.537  0.5660  1.5858  1.5245
13366SOL     OW42251   4.660   3.460   4.760 -0.2900 -0.2518  0.1117
13366SOL    HW142252   4.751   3.474   4.735  0.7513  0.1529  3.6505
13366SOL    HW242253   4.615   3.539   4.731  0.3467 -0.5716 -1.9227
13367SOL     OW42254   0.017   1.296   7.040  0.3901 -0.0964  0.3913
13367SOL    HW142255   0.095   1.338   7.001  0.1579 -1.1695 -1.3203
13367SOL    HW242256  -0.055   1.324   6.984  0.4572 -4.1991 -2.1908
13368SOL     OW42257   3.718   7.636   5.045  0.4396 -0.0897  0.0963
13368SOL    HW142258   3.798   7.585   5.033 -0.2996 -1.1408 -0.4107
13368SOL    HW242259   3.696   7.668   4.958 -0.8593 -1.6091 -0.1806
13369SOL     OW42260   3.696   4.061   3.123 -0.4071 -0.2076  0.1087
13369SOL    HW142261   3.640   3.987   3.100 -1.4511  0.9592 -1.2617
13369SOL    HW242262   3.768   4.058   3.060 -1.5203  1.0772 -1.2723
13370SOL     OW42263   1.487   4.849   3.278  0.5329 -0.6820  0.6545
13370SOL    HW142264   1.546   4.923   3.291  0.2380 -0.4488  0.6858
13370SOL    HW242265   1.488   4.833   3.184 -0.0344 -0.1019  0.5387
13371SOL     OW42266   2.354   7.176   8.091 -0.2926  0.0055  0.3170
13371SOL    HW142267   2.339   7.095   8.043  0.3442  0.2906 -0.3761
13371SOL    HW242268   2.361   7.243   8.024 -0.4380  0.5859  0.8661
13372SOL     OW42269   1.114   3.205   4.959  0.7447  0.9182 -0.1297
13372SOL    HW142270   1.135   3.282   5.012  0.6775 -0.0189  1.3335
13372SOL    HW242271   1.041   3.233   4.904  0.4044  1.7642  0.7169
13373SOL     OW42272   7.896   7.327   1.035  0.8920  0.0862  0.1737
13373SOL    HW142273   7.889   7.381   1.114 -0.8382 -0.9100  0.7756
13373SOL    HW242274   7.911   7.238   1.069 -3.8523 -1.1263 -0.2138
13374SOL     OW42275   5.011   2.413   2.218  0.3013  0.2819 -0.5357
13374SOL    HW142276   5.063   2.443   2.292 -0.1683  2.1834 -0.9399
13374SOL    HW242277   4.925   2.394   2.255  0.6151 -0.7028 -0.2711
13375SOL     OW42278   2.178   7.041   6.155  0.1733 -0.4196 -0.0452
13375SOL    HW142279   2.125   7.057   6.077  1.0830  0.7008 -0.4604
13375SOL    HW242280   2.256   6.996   6.122 -0.3875 -1.8700  0.5322
13376SOL     OW42281   5.998   6.657   5.257 -0.5329 -0.1160  0.1528
13376SOL    HW142282   5.977   6.750   5.246 -0.5584 -0.0644  0.5958
13376SOL    HW242283   6.050   6.635   5.180 -3.2169 -0.5731 -1.6692
13377SOL     OW42284   5.407   3.131   6.361  0.2037  0.1130 -0.4972
13377SOL    HW142285   5.462   3.059   6.393  0.5566  0.1362 -1.0392
13377SOL    HW242286   5.410   3.123   6.266 -0.1745  0.5364 -0.5468
13378SOL     OW42287   8.642   1.905   2.470 -0.1868 -0.2281 -0.0612
13378SOL    HW142288   8.560   1.859   2.488 -0.3734  0.8571  2.2767
13378SOL    HW242289   8.691   1.846   2.414 -2.8758 -0.5487 -2.2710
13379SOL     OW42290   8.287   2.707   7.236  0.1872  0.0305 -0.0045
13379SOL    HW142291   8.302   2.707   7.331  0.0286  0.1079  0.0208
13379SOL    HW242292   8.191   2.708   7.227  0.2072  0.4415 -0.1662
13380SOL     OW42293   2.509   4.532   7.168 -0.1263 -0.3594  0.1775
13380SOL    HW142294   2.601   4.511   7.188 -0.1601  0.0895  0.8268
13380SOL    HW242295   2.509   4.551   7.074  0.2703 -1.2819 -0.0221
13381SOL     OW42296   1.407   6.945   5.670 -0.0089  0.6394 -0.3304
13381SOL    HW142297   1.327   6.990   5.693 -0.0283  0.5883 -0.2975
13381SOL    HW242298   1.408   6.867   5.726  2.0025  2.5691  2.5474
13382SOL     OW42299   0.448   6.188   8.825  0.2710 -0.0721  0.0495
13382SOL    HW142300   0.480   6.270   8.787  1.7615  0.7988  2.8555
13382SOL    HW242301   0.418   6.137   8.750  0.3198  2.5692 -1.9325
13383SOL     OW42302   7.694   4.238   4.068 -0.7201  0.2988 -0.0739
13383SOL    HW142303   7.675   4.326   4.035 -1.9818  0.3136  0.6231
13383SOL    HW242304   7.786   4.241   4.093 -0.9738  1.7316  0.8384
13384SOL     OW42305   3.293   1.296   0.955  0.3111 -0.2289  0.7411
13384SOL    HW142306   3.248   1.213   0.938  1.8256 -0.4193 -3.5898
13384SOL    HW242307   3.241   1.361   0.909 -0.5340  1.2931  3.6084
13385SOL     OW42308   2.406   2.619   3.766  0.1273 -0.5585  0.3571
13385SOL    HW142309   2.316   2.644   3.786  0.6620  1.1587  0.7579
13385SOL    HW242310   2.398   2.532   3.727 -1.5134 -1.2884  2.1725
13386SOL     OW42311   8.986   6.912   4.749  0.1999 -0.1622  0.2505
13386SOL    HW142312   9.040   6.959   4.686  1.1254 -1.7635 -0.2158
13386SOL    HW242313   8.983   6.969   4.826  1.9689  0.2878  0.0214
13387SOL     OW42314   5.556   4.502   7.114 -0.5882 -0.5211  0.7300
13387SOL    HW142315   5.626   4.551   7.070  1.3870 -2.9725  0.8848
13387SOL    HW242316   5.532   4.556   7.189  2.3694 -0.2629  1.6259
13388SOL     OW42317   3.041   4.607   9.447 -0.6268  0.4694 -0.1164
13388SOL    HW142318   3.018   4.684   9.395  0.5824  0.7242 -0.3119
13388SOL    HW242319   3.013   4.629   9.536 -2.8375 -0.0260 -0.6416
13389SOL     OW42320   1.647   0.395   7.938  0.2161  0.2710  0.5363
13389SOL    HW142321   1.661   0.470   7.996  1.3125 -0.4612  1.2579
13389SOL    HW242322   1.556   0.369   7.953 -0.1983  1.4694  0.2330
13390SOL     OW42323   1.686   7.252   7.075  0.0424  0.1399  0.1148
13390SOL    HW142324   1.686   7.321   7.009  0.3887  1.0538  1.0444
13390SOL    HW242325   1.660   7.296   7.156 -1.4295 -1.1836  0.3872
13391SOL     OW42326   7.690   2.590   2.646  0.2094 -0.2277  0.5269
13391SOL    HW142327   7.757   2.528   2.618  0.0494  0.0908 -0.6551
13391SOL    HW242328   7.688   2.655   2.575 -1.7030 -0.5119  0.2617
13392SOL     OW42329   8.861   7.360   7.509 -1.0224 -0.1617 -0.6505
13392SOL    HW142330   8.814   7.442   7.522 -0.8430 -0.2393  0.6381
13392SOL    HW242331   8.792   7.294   7.497 -1.2778 -0.2501  1.0617
13393SOL     OW42332   4.155   3.402   1.303 -0.2550 -0.2712 -0.8723
13393SOL    HW142333   4.080   3.426   1.248 -1.5681 -1.1467  0.4372
13393SOL    HW242334   4.163   3.476   1.364  0.3296  0.0811 -1.3681
13394SOL     OW42335   8.132   5.964   1.798 -0.0335  0.3434  0.1053
13394SOL    HW142336   8.136   5.992   1.707  2.0731  0.4946  0.1990
13394SOL    HW242337   8.196   5.893   1.805 -1.2985 -0.7776  1.1363
13395SOL     OW42338   5.485   9.344   2.102 -0.4163 -0.4545  0.3854
13395SOL    HW142339   5.439   9.264   2.127  1.6642 -1.2000  2.2396
13395SOL    HW242340   5.495   9.392   2.184  0.7342  0.3677 -0.2101
13396SOL     OW42341   8.007   6.662   3.690 -0.6612  0.2764  0.0222
13396SOL    HW142342   8.088   6.647   3.738 -1.0407 -0.4831  0.4591
13396SOL    HW242343   8.024   6.739   3.636  0.5913 -0.3037 -0.4404
13397SOL     OW42344   3.495   1.347   5.804  0.1845  0.2526  0.5793
13397SOL    HW142345   3.473   1.419   5.745  3.0629  1.1921  0.4883
13397SOL    HW242346   3.519   1.390   5.886  1.0105 -0.6560  0.8341
13398SOL     OW42347   6.326   9.428   7.033 -0.0580  0.2946  0.5443
13398SOL    HW142348   6.301   9.430   6.940  0.0438  0.0360  0.5120
13398SOL    HW242349   6.327   9.520   7.059  0.5149  0.4135  0.1236
13399SOL     OW42350   7.138   1.632   0.889  0.8333 -0.1200 -0.2065
13399SOL    HW142351   7.110   1.591   0.808  1.1162  0.7924 -0.7830
13399SOL    HW242352   7.117   1.725   0.877  2.1281  0.2477  0.2062
13400SOL     OW42353   3.654   7.144   9.248  0.2851  0.0733  0.3738
13400SOL    HW142354   3.633   7.152   9.155 -1.1888  0.3629  0.7139
13400SOL    HW242355   3.643   7.051   9.267 -0.4933  0.1872  0.4975
13401SOL     OW42356   5.695   3.115   8.004  0.4130 -0.0781 -0.0637
13401SOL    HW142357   5.713   3.060   8.080  0.0453 -0.2493 -0.0964
13401SOL    HW242358   5.636   3.183   8.037 -0.7809 -0.8867 -0.4596
13402SOL     OW42359   0.117   3.320   2.717 -0.1091  0.1390 -0.0923
13402SOL    HW142360   0.208   3.312   2.748  0.4309  1.0333 -1.3781
13402SOL    HW242361   0.071   3.362   2.789  0.8696  1.1775 -0.0525
13403SOL     OW42362   5.782   4.448   6.814  0.0779 -0.2426 -0.0949
13403SOL    HW142363   5.824   4.436   6.729 -1.1401  0.4033 -0.8074
13403SOL    HW242364   5.696   4.409   6.804 -0.0509 -0.2285  0.8714
13404SOL     OW42365   2.572   5.811   7.629 -0.0577  0.3224  0.0874
13404SOL    HW142366   2.499   5.775   7.679 -0.0871  0.1230 -0.0939
13404SOL    HW242367   2.536   5.825   7.541 -0.1802  1.2545  0.2745
13405SOL     OW42368   1.268   6.618   6.029  0.0559 -0.2476  0.1433
13405SOL    HW142369   1.290   6.667   6.109 -0.4926  0.7848 -0.3153
13405SOL    HW242370   1.212   6.677   5.980  0.4054 -0.8640 -1.0335
13406SOL     OW42371   5.205   5.357   8.090 -0.4132  0.0738 -0.0246
13406SOL    HW142372   5.197   5.395   8.178  0.6232 -0.7539  0.4568
13406SOL    HW242373   5.206   5.262   8.105  0.6506 -0.0629 -0.8246
13407SOL     OW42374   8.718   9.223   9.556 -0.1095  0.0766  0.4579
13407SOL    HW142375   8.659   9.249   9.626 -0.9621  0.7512 -0.4723
13407SOL    HW242376   8.806   9.243   9.589 -0.3669 -1.0260  1.8967
13408SOL     OW42377   3.134   0.413   5.070  0.2596  0.0014  0.5640
13408SOL    HW142378   3.059   0.365   5.035 -0.3983  1.4911 -0.1937
13408SOL    HW242379   3.107   0.438   5.158  0.8622 -1.5193  1.2047
13409SOL     OW42380   7.167   2.001   4.574 -0.1584 -0.8141 -0.3796
13409SOL    HW142381   7.075   1.978   4.585 -0.3506  0.6208  1.4090
13409SOL    HW242382   7.214   1.939   4.630 -0.2572 -0.0229  0.5929
13410SOL     OW42383   7.523   5.358   8.193  0.6090  0.1396 -0.0117
13410SOL    HW142384   7.525   5.270   8.157  0.6313 -0.0230  0.3890
13410SOL    HW242385   7.614   5.387   8.194  0.4434  0.9365 -2.0126
13411SOL     OW42386   7.712   9.546   4.851 -0.0041  0.0638  0.3656
13411SOL    HW142387   7.766   9.546   4.772  0.6520 -0.3994  0.8010
13411SOL    HW242388   7.655   9.623   4.841  0.0424 -0.0089 -0.5643
13412SOL     OW42389   0.205   1.613   1.151 -0.0968  0.3595  0.0766
13412SOL    HW142390   0.223   1.577   1.064 -0.2706 -1.0828  0.6058
13412SOL    HW242391   0.255   1.694   1.155 -0.2912  0.5784 -1.4582
13413SOL     OW42392   1.650   6.891   7.248 -0.4287 -0.0516 -0.1812
13413SOL    HW142393   1.571   6.909   7.196 -0.6225 -1.6788 -0.4837
13413SOL    HW242394   1.684   6.810   7.212  1.1785  0.4089  0.2259
13414SOL     OW42395   0.346   0.402   3.616  0.1417  0.3941 -0.2570
13414SOL    HW142396   0.410   0.472   3.626  0.1236  0.5302 -1.0183
13414SOL    HW242397   0.278   0.422   3.680  0.0428  1.1815 -0.6015
13415SOL     OW42398   9.591   7.349   5.133 -0.4915 -0.1354  0.2744
13415SOL    HW142399   9.573   7.409   5.206 -1.4224  1.8921 -1.5380
13415SOL    HW242400   9.664   7.390   5.086 -0.6006 -0.8589 -0.5467
13416SOL     OW42401   0.295   0.638   4.174  0.1945  0.0800  0.1371
13416SOL    HW142402   0.343   0.563   4.141 -0.4834 -0.4784  0.4035
13416SOL    HW242403   0.217   0.601   4.216 -1.3146  1.0193 -1.6844
13417SOL     OW42404   4.730   8.034   4.940 -0.3829 -0.3044  0.2069
13417SOL    HW142405   4.696   7.992   4.860 -1.2415 -1.7376  1.2707
13417SOL    HW242406   4.675   8.112   4.950 -0.3860 -0.2042 -0.5030
13418SOL     OW42407   3.012   2.663   8.321 -0.2282 -0.0162  0.2557
13418SOL    HW142408   3.009   2.634   8.412 -1.2905 -1.0943 -0.0921
13418SOL    HW242409   2.923   2.695   8.303  0.1241  0.7203 -0.2544
13419SOL     OW42410   7.813   0.901   2.091 -0.1222 -0.0790 -0.1023
13419SOL    HW142411   7.868   0.823   2.100  0.7038  0.5569  0.5523
13419SOL    HW242412   7.865   0.960   2.037  0.2184  0.8511  1.1985
13420SOL     OW42413   5.356   9.146   5.629  0.1016 -0.7949  0.7403
13420SOL    HW142414   5.294   9.079   5.657  0.0223 -1.1243 -0.1834
13420SOL    HW242415   5.437   9.098   5.610 -0.1115 -0.7122 -0.4228
13421SOL     OW42416   9.586   7.018   6.439 -0.3465  0.0332  0.1153
13421SOL    HW142417   9.568   6.938   6.390  1.2040  1.1831 -2.5604
13421SOL    HW242418   9.541   7.087   6.390  2.5905  1.4712 -0.7708
13422SOL     OW42419   2.269   7.729   4.498  0.2623 -0.1024 -0.1201
13422SOL    HW142420   2.183   7.689   4.508 -0.2708  0.3983 -2.0806
13422SOL    HW242421   2.323   7.661   4.457 -0.3687  0.7420 -2.5340
13423SOL     OW42422   8.250   2.351   4.104 -0.1961  0.0860 -0.2119
13423SOL    HW142423   8.161   2.370   4.075  0.1235 -0.8545 -1.8827
13423SOL    HW242424   8.282   2.434   4.138 -1.7290  0.4163  0.5282
13424SOL     OW42425   1.208   7.284   3.991 -0.5070 -0.3588  0.2459
13424SOL    HW142426   1.176   7.197   4.014 -0.8713 -0.4249 -0.5028
13424SOL    HW242427   1.225   7.280   3.897 -1.5527  0.6939  0.0021
13425SOL     OW42428   0.445   3.041   4.482 -0.4526  0.1041 -0.1028
13425SOL    HW142429   0.471   3.128   4.453 -0.4942  0.4122  0.7351
13425SOL    HW242430   0.433   2.991   4.402  1.5849  0.2763 -0.5590
13426SOL     OW42431   4.523   5.062   4.926  0.1128  0.3622 -0.2902
13426SOL    HW142432   4.478   5.042   5.007 -0.3597  0.4587 -0.5233
13426SOL    HW242433   4.453   5.075   4.862  0.4427  1.3004 -0.4767
13427SOL     OW42434   5.236   4.097   6.006 -0.2121 -0.1121  0.3604
13427SOL    HW142435   5.310   4.152   6.029 -0.6281  0.2302  0.8992
13427SOL    HW242436   5.229   4.034   6.078 -0.4604 -0.1234  0.3277
13428SOL     OW42437   5.925   4.909   2.936  0.1889  0.0002  0.6044
13428SOL    HW142438   5.887   4.927   3.022 -1.6040 -2.8515  0.5425
13428SOL    HW242439   6.008   4.866   2.955 -0.5043 -1.2210  0.9786
13429SOL     OW42440   4.644   2.367   3.681  0.0741 -0.6043 -0.1946
13429SOL    HW142441   4.626   2.413   3.763 -2.2139 -0.2916 -0.7963
13429SOL    HW242442   4.739   2.366   3.674  0.2913  0.2991  1.9260
13430SOL     OW42443   0.266   1.568   5.153 -0.5487 -0.2020  0.1243
13430SOL    HW142444   0.270   1.476   5.181  0.4517  0.0732  0.9424
13430SOL    HW242445   0.346   1.607   5.189 -1.4199  1.2081  0.5960
13431SOL     OW42446   7.681   3.590   2.406  0.2863 -0.5367 -1.0338
13431SOL    HW142447   7.632   3.529   2.351 -1.1786  0.4138 -0.8092
13431SOL    HW242448   7.705   3.662   2.347 -0.6979  0.1559 -0.6111
13432SOL     OW42449   7.620   3.444   8.572  0.5978  0.1021  0.2121
13432SOL    HW142450   7.681   3.517   8.579  0.8637 -0.2669  2.3584
13432SOL    HW242451   7.553   3.462   8.639 -1.3988  0.2182 -1.6949
13433SOL     OW42452   7.166   9.187   5.166 -0.0923  0.0596 -0.3451
13433SOL    HW142453   7.176   9.234   5.083 -1.1279 -0.6017 -0.8635
13433SOL    HW242454   7.205   9.245   5.231 -0.6225  1.2802 -1.0810
13434SOL     OW42455   8.545   6.329   2.263 -0.3015  0.2700 -0.2408
13434SOL    HW142456   8.527   6.239   2.235 -2.0524 -0.0748  1.6889
13434SOL    HW242457   8.639   6.340   2.250  0.1010 -2.1266  0.1433
13435SOL     OW42458   0.419   2.544   7.562 -0.1320 -0.1765 -0.0419
13435SOL    HW142459   0.497   2.561   7.509 -1.4272  0.8049 -1.7527
13435SOL    HW242460   0.396   2.453   7.541  1.8471 -1.3416  2.3569
13436SOL     OW42461   3.074   1.064   3.701 -0.5148 -0.3371 -0.1862
13436SOL    HW142462   3.016   1.029   3.633 -2.0535 -0.0992  0.9553
13436SOL    HW242463   3.058   1.008   3.777  1.5156 -0.8768 -0.1171
13437SOL     OW42464   3.833   7.560   1.414  0.0129 -0.1519 -0.5374
13437SOL    HW142465   3.885   7.481   1.429 -0.7556 -0.5259  0.2468
13437SOL    HW242466   3.745   7.527   1.396  0.2002  0.4264 -2.8367
13438SOL     OW42467   0.416   3.209   5.437 -0.2105  0.2826 -0.1893
13438SOL    HW142468   0.326   3.180   5.421  0.1824 -1.9982  1.2153
13438SOL    HW242469   0.421   3.217   5.533  0.6395  2.0984 -0.3475
13439SOL     OW42470   7.131   5.966   0.651  0.4334  0.0400  0.6201
13439SOL    HW142471   7.119   5.946   0.558 -0.8166 -0.9476  0.9597
13439SOL    HW242472   7.145   6.060   0.654  1.7182 -0.0760 -0.6682
13440SOL     OW42473   7.023   9.589   5.030  0.3232 -0.0383 -0.3890
13440SOL    HW142474   7.051   9.648   4.960  0.8899  0.1774  0.0106
13440SOL    HW242475   7.028   9.501   4.991 -0.5862  0.1710 -1.0057
13441SOL     OW42476   1.429   1.103   4.323 -0.1762 -0.6824  0.3872
13441SOL    HW142477   1.365   1.153   4.375 -1.5507 -1.1665 -0.7884
13441SOL    HW242478   1.443   1.023   4.373  0.1969 -0.1947  1.0826
13442SOL     OW42479   1.086   2.087   9.457 -0.6837 -0.4448 -0.3033
13442SOL    HW142480   1.178   2.066   9.437 -0.3167 -0.7165  1.4680
13442SOL    HW242481   1.039   2.005   9.445 -0.6587 -0.3568 -1.0116
13443SOL     OW42482   1.157   3.903   7.745 -0.0855 -0.1982  0.1923
13443SOL    HW142483   1.162   3.848   7.823  0.5205  0.9231  0.9841
13443SOL    HW242484   1.213   3.978   7.766 -0.7688  0.6446 -0.8960
13444SOL     OW42485   5.464   2.478   2.989  0.0676  0.2371  0.5295
13444SOL    HW142486   5.405   2.423   2.937  0.0949 -0.0109  0.7639
13444SOL    HW242487   5.433   2.567   2.972  0.8152  0.2667 -0.8650
13445SOL     OW42488   0.904   5.479   7.118 -0.2052  0.0001 -0.4770
13445SOL    HW142489   0.859   5.442   7.194  1.5516 -0.2132  0.5176
13445SOL    HW242490   0.865   5.566   7.107 -0.9662 -0.2405  0.2359
13446SOL     OW42491   5.199   1.960   9.174  0.1548  0.3770  0.1750
13446SOL    HW142492   5.112   1.975   9.137  0.5608 -1.3341 -1.6179
13446SOL    HW242493   5.248   1.919   9.104  1.7669 -0.6975  1.8470
13447SOL     OW42494   1.849   8.892   5.166  0.1673  0.2153  0.0876
13447SOL    HW142495   1.880   8.962   5.109 -0.3428 -0.5054 -1.0943
13447SOL    HW242496   1.922   8.829   5.168 -0.9634 -1.3121 -2.4156
13448SOL     OW42497   8.060   5.728   6.625 -0.8777  0.4757  0.4635
13448SOL    HW142498   8.064   5.638   6.593  0.4505  0.9664 -0.8312
13448SOL    HW242499   8.148   5.747   6.657 -1.2015  1.2434  0.9302
13449SOL     OW42500   0.538   1.969   4.269 -0.4838  0.1271 -0.0811
13449SOL    HW142501   0.543   1.874   4.271 -1.7584  0.0018  3.8411
13449SOL    HW242502   0.447   1.988   4.244 -0.5786  0.2777  0.3776
13450SOL     OW42503   8.791   4.331   1.715 -0.2228  0.6190 -0.5228
13450SOL    HW142504   8.864   4.309   1.772 -0.9901  0.5396  0.4530
13450SOL    HW242505   8.779   4.254   1.660  1.6824  1.3637 -2.0872
13451SOL     OW42506   5.871   3.476   6.409  0.2823 -0.1414 -0.0960
13451SOL    HW142507   5.858   3.401   6.352 -0.2646 -0.2006  0.0997
13451SOL    HW242508   5.910   3.440   6.489 -1.5105 -0.4890  0.6661
13452SOL     OW42509   6.613   8.683   9.030  0.2439 -0.1267  0.6693
13452SOL    HW142510   6.622   8.683   8.935 -0.4133 -0.6217  0.5970
13452SOL    HW242511   6.519   8.689   9.045  0.3084 -0.5530  1.2827
13453SOL     OW42512   0.473   6.088   7.369 -0.5652 -1.0059 -0.6698
13453SOL    HW142513   0.389   6.128   7.391  0.6291 -0.6390  4.2950
13453SOL    HW242514   0.469   6.000   7.405  1.4443 -0.6498  0.5853
13454SOL     OW42515   3.373   2.305   0.701  0.0140 -0.2302  0.4839
13454SOL    HW142516   3.326   2.232   0.661 -0.4143  1.0166 -1.4477
13454SOL    HW242517   3.452   2.316   0.648  1.3911 -0.8382  2.3012
13455SOL     OW42518   3.405   7.882   1.607 -0.1041  0.5734 -0.5070
13455SOL    HW142519   3.469   7.917   1.670 -0.9223  0.4408  0.4368
13455SOL    HW242520   3.455   7.863   1.529  1.0806  0.1079  0.3418
13456SOL     OW42521   4.272   9.444   3.931 -0.1051 -0.5189 -0.2304
13456SOL    HW142522   4.303   9.534   3.942  0.6772 -0.9695  1.5731
13456SOL    HW242523   4.199   9.452   3.869 -1.1475  1.5964  1.1205
13457SOL     OW42524   1.056   7.329   3.139 -0.1153 -0.1474 -0.0318
13457SOL    HW142525   1.133   7.361   3.092  0.3363 -1.1409  0.0148
13457SOL    HW242526   1.073   7.236   3.152 -0.4936 -0.0071  1.6132
13458SOL     OW42527   0.343   3.761   2.479  0.0295  0.2253 -0.1375
13458SOL    HW142528   0.270   3.779   2.538 -2.7944  0.7263 -3.4504
13458SOL    HW242529   0.409   3.826   2.502 -0.3892 -0.3304  3.0903
13459SOL     OW42530   5.912   5.028   2.006 -0.0420  0.0960  0.8693
13459SOL    HW142531   5.855   4.954   2.026 -0.4737  0.4096  0.8168
13459SOL    HW242532   5.969   5.035   2.082  1.7101 -1.8445 -0.1692
13460SOL     OW42533   0.674   0.607   1.260 -0.0297  0.3690  0.6722
13460SOL    HW142534   0.691   0.532   1.203  3.5187  2.2546 -1.0443
13460SOL    HW242535   0.595   0.647   1.223 -0.7835 -1.2967  0.3632
13461SOL     OW42536   8.930   8.512   5.343 -0.4882 -0.0129 -0.5313
13461SOL    HW142537   8.870   8.441   5.361 -0.6068  0.7470  2.6709
13461SOL    HW242538   8.989   8.514   5.419  1.5201  1.3304 -2.0048
13462SOL     OW42539   8.806   9.377   3.681 -0.0377  0.8996  0.1557
13462SOL    HW142540   8.891   9.357   3.720 -0.2517  0.8925  0.6272
13462SOL    HW242541   8.754   9.299   3.697  1.1764 -1.1068 -4.1427
13463SOL     OW42542   9.455   3.807   0.799  0.0217  0.0256  0.3291
13463SOL    HW142543   9.386   3.847   0.853 -0.8750  1.1446 -1.5182
13463SOL    HW242544   9.413   3.730   0.761  0.1952  0.0135  0.1636
13464SOL     OW42545   7.958   5.026   6.717  0.1101 -0.2553 -0.0196
13464SOL    HW142546   7.981   4.967   6.645 -0.1374 -0.1796 -0.1624
13464SOL    HW242547   7.977   4.977   6.796  0.4367 -0.3197 -0.1383
13465SOL     OW42548   7.831   3.708   2.985  0.5722 -0.0826 -0.1508
13465SOL    HW142549   7.830   3.647   3.059 -0.3997  0.3436  0.1992
13465SOL    HW242550   7.923   3.712   2.959  0.9328 -0.2472  1.0365
13466SOL     OW42551   5.391   1.394   2.327  0.3923 -0.6619  0.5322
13466SOL    HW142552   5.461   1.347   2.281  0.8779 -0.6418  1.2349
13466SOL    HW242553   5.416   1.390   2.419  0.2000  0.5814  0.6562
13467SOL     OW42554   9.219   2.365   8.554  0.2377  0.2931  0.3642
13467SOL    HW142555   9.177   2.354   8.640 -1.6944  0.8820 -0.4403
13467SOL    HW242556   9.286   2.432   8.569 -0.0803  0.3945  1.4198
13468SOL     OW42557   9.607   5.850   1.159  0.4643  0.2252  0.2265
13468SOL    HW142558   9.619   5.908   1.234  0.8667 -0.8080  0.9781
13468SOL    HW242559   9.542   5.895   1.104 -0.8538  0.3826  1.8467
13469SOL     OW42560   1.295   5.176   2.137 -0.0250  0.3409  0.6621
13469SOL    HW142561   1.275   5.113   2.207 -0.6600 -0.4500 -0.2098
13469SOL    HW242562   1.339   5.248   2.182  2.0029 -1.3167  1.5183
13470SOL     OW42563   6.052   6.453   3.053 -0.1514  0.1993  0.1610
13470SOL    HW142564   6.065   6.546   3.073  0.7660 -0.2400  1.8434
13470SOL    HW242565   6.096   6.407   3.125 -0.3483 -1.5451 -0.7831
13471SOL     OW42566   3.371   0.698   7.267 -0.6310 -0.1973  0.7660
13471SOL    HW142567   3.323   0.748   7.333 -1.2246  0.2818 -0.0202
13471SOL    HW242568   3.322   0.616   7.259 -1.3468  0.2906 -0.0349
13472SOL     OW42569   2.707   9.139   7.499 -0.3789 -0.3920  0.1018
13472SOL    HW142570   2.652   9.116   7.424 -2.0582  0.6587  0.9292
13472SOL    HW242571   2.796   9.141   7.465 -0.8972 -1.7403 -1.4105
13473SOL     OW42572   4.793   0.237   5.997 -0.2780 -0.3532  0.1327
13473SOL    HW142573   4.834   0.276   5.921 -2.3825  0.6281 -0.5771
13473SOL    HW242574   4.826   0.147   5.999  3.0055  0.7305  0.5667
13474SOL     OW42575   0.398   0.902   6.966 -0.0798 -0.0343  0.1570
13474SOL    HW142576   0.483   0.860   6.954 -0.7593 -1.3241 -0.3403
13474SOL    HW242577   0.382   0.896   7.060 -0.6266 -1.8945 -0.0183
13475SOL     OW42578   2.607   7.509   6.021  0.0900  0.2033  0.5801
13475SOL    HW142579   2.544   7.551   6.080  1.4945  0.2400  2.1387
13475SOL    HW242580   2.685   7.564   6.025  0.8201 -0.7512  0.0514
13476SOL     OW42581   9.248   5.096   7.337 -0.2254 -0.3716 -0.0902
13476SOL    HW142582   9.326   5.092   7.393 -0.5080 -4.6787  0.3274
13476SOL    HW242583   9.175   5.092   7.399 -0.7938  1.3380 -0.5953
13477SOL     OW42584   7.920   8.589   8.547  0.1012  0.3368  0.6678
13477SOL    HW142585   7.829   8.578   8.574 -0.2205  1.5918  0.1422
13477SOL    HW242586   7.920   8.566   8.454  0.5420 -0.6485  0.8915
13478SOL     OW42587   8.521   2.326   5.746  0.0031 -0.6416 -0.0427
13478SOL    HW142588   8.430   2.347   5.767 -0.2181  0.9525 -2.2383
13478SOL    HW242589   8.518   2.235   5.716 -1.2922  0.0093 -2.0717
13479SOL     OW42590   7.383   1.429   8.022 -0.5428 -0.0134  0.1483
13479SOL    HW142591   7.306   1.406   7.971 -0.1307  0.8821 -0.9145
13479SOL    HW242592   7.431   1.492   7.968  0.5041  0.0992  1.1443
13480SOL     OW42593   2.837   3.557   9.344 -0.1965 -0.4912 -0.4565
13480SOL    HW142594   2.750   3.572   9.307  0.1802  1.1528 -0.7404
13480SOL    HW242595   2.828   3.573   9.437 -0.3918 -1.2792 -0.3300
13481SOL     OW42596   1.125   2.464   2.927 -0.4616  0.4217 -0.1387
13481SOL    HW142597   1.169   2.548   2.934  0.5565 -0.0567 -0.5761
13481SOL    HW242598   1.045   2.481   2.877  0.5453  0.8422 -1.6534
13482SOL     OW42599   9.274   1.707   4.158  0.2102  0.2741 -0.4685
13482SOL    HW142600   9.339   1.765   4.198 -0.8659 -0.0157  1.8336
13482SOL    HW242601   9.320   1.624   4.146  0.3840  0.1567  0.8724
13483SOL     OW42602   0.435   3.279   9.297  0.1005 -0.5956  0.1433
13483SOL    HW142603   0.399   3.293   9.209  0.6748 -1.2120 -0.2009
13483SOL    HW242604   0.513   3.334   9.300 -0.5663  0.3485  0.7070
13484SOL     OW42605   9.144   7.420   4.939 -0.2760  0.2439  0.1336
13484SOL    HW142606   9.217   7.359   4.928  2.6174  3.5039 -0.2859
13484SOL    HW242607   9.151   7.450   5.029 -0.0080  1.8006 -0.3761
13485SOL     OW42608   0.603   9.499   2.259  0.6434 -0.4022  0.3904
13485SOL    HW142609   0.667   9.501   2.330 -0.9882 -0.7673  1.9100
13485SOL    HW242610   0.654   9.523   2.181  2.5271 -0.2497  1.6091
13486SOL     OW42611   5.761   4.824   3.298  0.1685  0.1627  0.3167
13486SOL    HW142612   5.798   4.892   3.243  1.6377  0.5207  1.6780
13486SOL    HW242613   5.826   4.810   3.366 -1.3471 -0.6303  1.6716
13487SOL     OW42614   4.914   7.178   1.531  0.4382  0.1541  0.2285
13487SOL    HW142615   4.974   7.240   1.573  0.8839  0.7718 -1.2554
13487SOL    HW242616   4.955   7.093   1.541 -0.4488 -0.0760  2.8059
13488SOL     OW42617   7.180   0.357   6.087 -0.0692 -0.3565  0.1444
13488SOL    HW142618   7.176   0.263   6.101  0.7991 -0.4690 -0.2823
13488SOL    HW242619   7.264   0.384   6.125 -1.1374  0.5628  1.9537
13489SOL     OW42620   3.966   4.658   2.817  0.0644 -0.4122 -0.1437
13489SOL    HW142621   3.905   4.726   2.790  0.6447 -0.2039 -0.9646
13489SOL    HW242622   4.011   4.694   2.893 -0.2213 -0.2230 -0.0632
13490SOL     OW42623   3.948   1.563   9.613  0.2347 -0.2842 -0.1360
13490SOL    HW142624   3.880   1.505   9.579 -0.7943  1.3348 -0.9731
13490SOL    HW242625   3.902   1.625   9.668  1.2625 -0.0265  0.4682
13491SOL     OW42626   9.075   6.400   0.783  0.2993 -0.0686 -0.2754
13491SOL    HW142627   8.992   6.359   0.759 -1.1739  2.8537 -0.5223
13491SOL    HW242628   9.099   6.358   0.866 -0.3911 -2.2743 -1.1148
13492SOL     OW42629   4.952   3.453   7.931  0.3104  0.2107 -0.3689
13492SOL    HW142630   5.005   3.463   8.010 -0.3032  1.8200 -0.1276
13492SOL    HW242631   5.012   3.416   7.866  1.4843  1.1323  0.1566
13493SOL     OW42632   0.728   0.554   6.296 -0.2078 -0.2334 -0.5700
13493SOL    HW142633   0.752   0.478   6.243  2.1505 -1.1665  1.5695
13493SOL    HW242634   0.754   0.530   6.385 -2.1581  1.9685  0.7373
13494SOL     OW42635   5.910   5.575   1.835 -0.1340 -0.1135 -0.4044
13494SOL    HW142636   5.871   5.662   1.830  0.0390 -0.0746 -1.2369
13494SOL    HW242637   5.836   5.515   1.827 -0.0441 -0.0420 -2.1349
13495SOL     OW42638   4.127   5.636   2.018 -0.2645 -0.2143 -0.0728
13495SOL    HW142639   4.113   5.705   2.083 -2.9978  0.5962 -1.3751
13495SOL    HW242640   4.041   5.622   1.980  0.6963 -2.7048 -1.5373
13496SOL     OW42641   0.167   2.807   7.235 -0.4327  0.3063  0.0506
13496SOL    HW142642   0.103   2.873   7.259 -1.6222 -1.0979  0.8942
13496SOL    HW242643   0.248   2.835   7.278 -1.3058  0.4298  1.6826
13497SOL     OW42644   7.768   1.977   7.328 -0.0229  0.1389 -0.2202
13497SOL    HW142645   7.689   1.985   7.274  0.3626 -0.5128 -0.9054
13497SOL    HW242646   7.752   2.035   7.402  0.0551  2.3047 -1.7758
13498SOL     OW42647   4.259   6.364   6.858  0.0420  0.6392 -0.1391
13498SOL    HW142648   4.295   6.332   6.775  2.3960 -0.7869  1.3119
13498SOL    HW242649   4.316   6.437   6.882 -1.1124  1.5642 -0.1033
13499SOL     OW42650   1.274   7.499   3.103  0.2133  0.0971  0.5290
13499SOL    HW142651   1.299   7.422   3.153  0.3554 -0.6686 -0.6957
13499SOL    HW242652   1.325   7.570   3.141  3.3561 -1.1498 -1.0089
13500SOL     OW42653   5.981   0.430   6.030  0.2640  0.0957 -0.3835
13500SOL    HW142654   5.969   0.495   5.961 -0.6262 -0.8067 -1.1013
13500SOL    HW242655   6.070   0.446   6.062  0.1484  1.5094 -0.6842
13501SOL     OW42656   4.599   8.521   3.572  0.5494 -0.1049  0.4101
13501SOL    HW142657   4.560   8.516   3.659  1.6947  1.1899  1.0365
13501SOL    HW242658   4.554   8.594   3.530 -0.1100 -0.8272 -0.1534
13502SOL     OW42659   5.536   8.155   2.837  0.7905 -0.4720 -0.6965
13502SOL    HW142660   5.575   8.117   2.759 -0.5462 -0.8278 -1.2108
13502SOL    HW242661   5.531   8.083   2.900  1.5125 -0.2756 -0.3969
13503SOL     OW42662   8.636   4.482   7.786  0.1616  0.2122 -0.5792
13503SOL    HW142663   8.632   4.567   7.742 -0.0994  0.0134 -0.9404
13503SOL    HW242664   8.676   4.501   7.871  0.8821  0.5602 -0.9897
13504SOL     OW42665   9.461   4.133   4.774  0.5607  0.1613  0.5896
13504SOL    HW142666   9.508   4.158   4.695  0.0991 -0.5498  0.0791
13504SOL    HW242667   9.525   4.083   4.825  0.8587  0.6241  0.6781
13505SOL     OW42668   7.981   5.228   6.281 -0.0821 -0.1967 -0.1850
13505SOL    HW142669   7.890   5.202   6.270  0.1758 -0.4895 -1.7678
13505SOL    HW242670   8.013   5.174   6.354 -1.2477  0.1726  0.6224
13506SOL     OW42671   8.354   0.001   4.199 -0.5779  0.1371  0.3518
13506SOL    HW142672   8.361   0.057   4.122  1.6083  0.3833  0.6702
13506SOL    HW242673   8.278  -0.054   4.181 -2.0263  2.3002 -0.5384
13507SOL     OW42674   1.108   3.533   1.748  0.0914  0.5012 -0.0694
13507SOL    HW142675   1.187   3.502   1.705 -1.8846 -1.5507 -2.4660
13507SOL    HW242676   1.090   3.468   1.816  0.5348  1.0651  0.5970
13508SOL     OW42677   6.113   5.141   3.093 -0.1821  0.3050 -0.2949
13508SOL    HW142678   6.190   5.098   3.058  0.6032  2.1067 -0.8766
13508SOL    HW242679   6.142   5.229   3.117 -1.8727  0.7799  0.2075
13509SOL     OW42680   0.026   5.462   3.252 -0.4630 -0.3419 -0.3569
13509SOL    HW142681  -0.030   5.536   3.275  1.8913  0.6542  3.0674
13509SOL    HW242682   0.004   5.394   3.316 -0.4750 -1.4801 -1.5276
13510SOL     OW42683   8.522   5.789   6.568  0.0871  0.0555  0.2440
13510SOL    HW142684   8.604   5.819   6.607  0.6407 -1.1546  0.0497
13510SOL    HW242685   8.544   5.771   6.477  0.0791 -2.0038  0.6138
13511SOL     OW42686   0.346   1.557   2.935  0.1835 -0.1556  0.2250
13511SOL    HW142687   0.336   1.467   2.903 -1.7139 -0.4388  1.4891
13511SOL    HW242688   0.416   1.551   3.000 -0.4628 -0.8915  0.8702
13512SOL     OW42689   3.567   3.779   0.276  0.1487 -0.3281  0.5526
13512SOL    HW142690   3.594   3.811   0.190  0.8855 -0.6835  0.6422
13512SOL    HW242691   3.590   3.686   0.274 -1.5369 -0.7663  0.4614
13513SOL     OW42692   7.469   0.245   6.168 -0.1780  0.3843 -0.1434
13513SOL    HW142693   7.442   0.337   6.177 -0.6244  0.2131  0.3506
13513SOL    HW242694   7.555   0.241   6.210  1.2667  1.2026 -2.8432
13514SOL     OW42695   3.320   2.404   8.208  0.4743 -0.3710  0.1456
13514SOL    HW142696   3.415   2.416   8.211  0.5436 -0.8335 -0.0416
13514SOL    HW242697   3.304   2.329   8.266 -0.1138  1.5332  2.5905
13515SOL     OW42698   7.513   4.618   9.081  0.3003 -0.2786 -0.0547
13515SOL    HW142699   7.520   4.560   9.005  1.3446 -0.0698 -0.1317
13515SOL    HW242700   7.597   4.664   9.084 -0.2516  0.7335  0.4093
13516SOL     OW42701   6.186   4.160   6.931 -0.2548 -0.0404  0.3408
13516SOL    HW142702   6.189   4.091   6.997  0.0867  2.1357  2.7545
13516SOL    HW242703   6.111   4.214   6.956  0.3932  1.3173 -0.5315
13517SOL     OW42704   7.823   0.824   2.566 -0.0381 -0.3484  0.4767
13517SOL    HW142705   7.822   0.896   2.629  0.0007  0.3318 -0.2658
13517SOL    HW242706   7.893   0.848   2.505  0.6619 -1.5374  0.7867
13518SOL     OW42707   6.669   5.876   4.935 -0.3293 -0.4552  0.0031
13518SOL    HW142708   6.640   5.860   5.025  1.6781  0.4078  0.8694
13518SOL    HW242709   6.744   5.817   4.923  0.7177  0.8822 -0.3367
13519SOL     OW42710   0.117   0.357   0.411 -0.4833  0.0683  0.4207
13519SOL    HW142711   0.126   0.296   0.339 -0.4803  0.5926 -0.0312
13519SOL    HW242712   0.030   0.396   0.399 -0.0196  1.0123  0.0098
13520SOL     OW42713   4.943   1.219   0.023  0.3972 -0.0824 -0.3497
13520SOL    HW142714   4.904   1.245   0.106  1.7488 -2.2212  1.0734
13520SOL    HW242715   4.869   1.196  -0.033 -0.5211  1.1440  0.3206
13521SOL     OW42716   6.436   5.968   4.832  0.0829  0.6890  0.5608
13521SOL    HW142717   6.487   5.913   4.891 -2.9647 -1.7116  1.2587
13521SOL    HW242718   6.409   5.909   4.761  0.2927  2.4785 -1.0782
13522SOL     OW42719   3.142   3.446   8.102 -0.6098 -0.6597 -0.0506
13522SOL    HW142720   3.191   3.513   8.151  0.0381 -0.4577 -0.9632
13522SOL    HW242721   3.191   3.365   8.117 -2.5059 -1.4449  2.7619
13523SOL     OW42722   8.172   4.321   5.522  0.1202  0.2150 -0.5402
13523SOL    HW142723   8.129   4.340   5.439  0.4531  2.5854 -0.2514
13523SOL    HW242724   8.212   4.235   5.510 -3.0293 -1.2243 -1.4519
13524SOL     OW42725   4.093   0.858   5.272 -0.3394 -0.0559 -0.0777
13524SOL    HW142726   4.119   0.950   5.275  1.3075 -0.4915  2.8648
13524SOL    HW242727   4.152   0.818   5.209  0.0930  0.5868 -0.0873
13525SOL     OW42728   4.395   2.086   6.006  0.3994  0.2459 -0.2248
13525SOL    HW142729   4.439   2.164   5.974 -1.5761  0.6394 -2.2081
13525SOL    HW242730   4.388   2.029   5.929  0.1257 -1.0945  0.7501
13526SOL     OW42731   2.155   7.606   8.844  1.2711 -0.3548 -0.2990
13526SOL    HW142732   2.172   7.599   8.750  0.2592 -1.3794 -0.4195
13526SOL    HW242733   2.118   7.521   8.868 -2.2043  1.1851  0.2293
13527SOL     OW42734   2.343   3.462   9.164  0.1032  0.1706 -0.7375
13527SOL    HW142735   2.293   3.536   9.129  1.1720  0.7439 -1.1076
13527SOL    HW242736   2.406   3.440   9.096  1.9789  1.0717  0.5960
13528SOL     OW42737   2.724   6.202   5.549 -0.1782 -0.2564 -0.3243
13528SOL    HW142738   2.647   6.250   5.579 -1.4131 -1.1443 -1.9004
13528SOL    HW242739   2.787   6.269   5.526 -0.4556  0.4901  0.9847
13529SOL     OW42740   6.199   9.037   5.020 -0.2366 -0.1513 -0.5019
13529SOL    HW142741   6.117   8.986   5.016  0.0610 -0.5789 -1.3639
13529SOL    HW242742   6.238   9.026   4.933  2.0340 -2.1324  0.6618
13530SOL     OW42743   0.933   5.236   9.266 -0.5590  0.2269 -0.4936
13530SOL    HW142744   0.881   5.282   9.200 -1.6116  0.1325  0.2398
13530SOL    HW242745   0.966   5.306   9.323 -1.1075  0.1775 -0.1110
13531SOL     OW42746   0.208   0.953   6.443  0.2932 -0.4043 -0.1077
13531SOL    HW142747   0.133   0.927   6.496  0.3862  1.4674  1.0413
13531SOL    HW242748   0.239   1.035   6.483  2.1005 -0.3932 -1.3812
13532SOL     OW42749   8.146   7.882   2.501  0.3371 -0.7625  0.3283
13532SOL    HW142750   8.145   7.872   2.597 -0.1127 -0.6159  0.3416
13532SOL    HW242751   8.094   7.960   2.485  0.7302 -0.5739 -0.0157
13533SOL     OW42752   0.501   6.342   2.778 -0.3241  0.0531 -0.3216
13533SOL    HW142753   0.506   6.288   2.699  1.1850  0.0426 -0.2587
13533SOL    HW242754   0.419   6.391   2.769 -1.0191 -1.2017 -1.0565
13534SOL     OW42755   8.328   4.512   3.878  0.2337  0.1428 -0.5585
13534SOL    HW142756   8.261   4.579   3.866  0.2995  0.1737 -0.7463
13534SOL    HW242757   8.316   4.482   3.969  1.4076  1.7493  0.1854
13535SOL     OW42758   4.449   8.071   5.715 -0.1904 -0.1189 -0.1527
13535SOL    HW142759   4.421   8.096   5.627 -0.2759  0.7121  0.1033
13535SOL    HW242760   4.482   8.152   5.754 -1.6752 -0.0968  1.1628
13536SOL     OW42761   6.123   7.332   2.331 -0.1818 -0.3785 -0.0045
13536SOL    HW142762   6.043   7.331   2.385  0.1609  0.2295  0.5289
13536SOL    HW242763   6.152   7.241   2.331  0.3606 -0.2415  1.6967
13537SOL     OW42764   3.303   7.884   6.718  0.4947  0.0880  0.1945
13537SOL    HW142765   3.220   7.852   6.753 -0.6441  2.3122 -0.2371
13537SOL    HW242766   3.364   7.878   6.791  0.1856 -2.1919  0.3377
13538SOL     OW42767   0.842   4.551   3.240  1.0410  0.2713  0.1517
13538SOL    HW142768   0.764   4.571   3.291  0.8044  2.7357 -1.0669
13538SOL    HW242769   0.897   4.500   3.301  0.2273  1.9581  2.4467
13539SOL     OW42770   4.914   0.336   5.791  0.4401 -0.0321  0.1175
13539SOL    HW142771   4.998   0.333   5.745 -0.3917 -1.5668 -1.4272
13539SOL    HW242772   4.865   0.404   5.746  0.1218 -0.5917 -0.4033
13540SOL     OW42773   9.278   2.322   8.000 -0.1765  0.7991 -0.1845
13540SOL    HW142774   9.215   2.265   8.045 -0.0586 -0.3985 -1.4869
13540SOL    HW242775   9.338   2.349   8.069  0.4207 -1.5676  0.3096
13541SOL     OW42776   2.218   4.046   3.684  0.3418  0.4367  0.4749
13541SOL    HW142777   2.238   3.989   3.610 -2.1495  0.3514 -0.2320
13541SOL    HW242778   2.233   4.135   3.651 -0.5952  0.3923 -0.1171
13542SOL     OW42779   0.281   2.956   6.682  0.2134 -0.7918 -0.5085
13542SOL    HW142780   0.309   2.903   6.756 -2.5127  1.9735  2.8372
13542SOL    HW242781   0.347   3.025   6.674 -0.0120 -0.4992  0.0964
13543SOL     OW42782   5.376   2.021   7.560 -0.4276  0.6366 -0.1979
13543SOL    HW142783   5.395   1.968   7.638  0.9054  1.2293 -0.0949
13543SOL    HW242784   5.430   2.099   7.571 -1.6914  1.6193 -0.7771
13544SOL     OW42785   9.392   7.423   1.611  0.8949 -0.6443 -0.1113
13544SOL    HW142786   9.476   7.446   1.649  0.9727  1.3464 -1.3703
13544SOL    HW242787   9.328   7.472   1.661  0.5579 -1.4424  0.2548
13545SOL     OW42788   6.805   8.487   7.380  0.1809 -0.4603 -0.4580
13545SOL    HW142789   6.712   8.500   7.398  0.4632  1.4239 -0.1019
13545SOL    HW242790   6.809   8.413   7.320 -1.4994 -0.9160 -0.0359
13546SOL     OW42791   1.056   8.179   8.383 -0.4474  0.3621 -0.0872
13546SOL    HW142792   1.130   8.119   8.378 -0.0343  0.9279 -1.1942
13546SOL    HW242793   1.095   8.265   8.398 -0.9275  0.5564  0.0678
13547SOL     OW42794   0.329   5.533   4.795 -0.5243 -0.1292  0.0059
13547SOL    HW142795   0.401   5.501   4.740 -0.7381 -1.3197  0.3950
13547SOL    HW242796   0.270   5.577   4.734  0.4356  0.7283 -0.3420
13548SOL     OW42797   2.293   7.896   6.344  0.4076  0.0012 -0.3403
13548SOL    HW142798   2.289   7.906   6.439  0.2623  1.0598 -0.4414
13548SOL    HW242799   2.201   7.889   6.317  0.3065  1.6636 -0.5614
13549SOL     OW42800   6.329   2.488   4.624 -0.3359  0.1802  1.0255
13549SOL    HW142801   6.259   2.537   4.667 -0.4848  0.0571  0.9256
13549SOL    HW242802   6.406   2.504   4.678 -0.1517  1.3481  0.4404
13550SOL     OW42803   0.968   7.392   2.843  0.1878  0.2329 -0.4277
13550SOL    HW142804   1.063   7.394   2.829  0.0691  0.2889 -1.2692
13550SOL    HW242805   0.943   7.484   2.851  0.3648  0.1785  1.0346
13551SOL     OW42806   0.252   3.895   8.987 -0.3847 -0.5532  0.3119
13551SOL    HW142807   0.272   3.984   8.959 -1.5551  0.2176  1.7475
13551SOL    HW242808   0.329   3.844   8.964  0.7376  1.0539  0.3707
13552SOL     OW42809   3.793   2.588   8.706  0.2494  0.2692 -0.2019
13552SOL    HW142810   3.874   2.628   8.736 -0.7454  1.2860  1.2551
13552SOL    HW242811   3.772   2.523   8.773 -0.0212 -0.1568 -0.6907
13553SOL     OW42812   8.263   5.027   7.151 -0.2888 -0.4780 -0.2922
13553SOL    HW142813   8.313   4.947   7.133 -0.6846 -0.5006 -1.3963
13553SOL    HW242814   8.293   5.089   7.085  2.1223  1.3197  2.2626
13554SOL     OW42815   0.283   3.734   8.318 -0.5021 -0.2427  0.2424
13554SOL    HW142816   0.220   3.670   8.351  0.5342 -1.3260  0.1854
13554SOL    HW242817   0.229   3.802   8.276 -1.6399 -0.8630  0.6552
13555SOL     OW42818   2.467   0.118   1.140  0.2044  0.1462  0.0915
13555SOL    HW142819   2.418   0.116   1.058  0.7293  0.2597 -0.2249
13555SOL    HW242820   2.554   0.148   1.116  0.3354  0.2777  0.7055
13556SOL     OW42821   7.880   6.606   9.455  0.2244  0.2126  0.0555
13556SOL    HW142822   7.926   6.530   9.491 -0.6391 -0.3522  0.0047
13556SOL    HW242823   7.949   6.661   9.418  0.8827 -0.4430  0.2906
13557SOL     OW42824   2.792   8.121   6.142  0.5051  0.4820  0.1082
13557SOL    HW142825   2.713   8.121   6.089  0.5394 -0.3769  0.0350
13557SOL    HW242826   2.769   8.070   6.220  1.0341  0.0341 -0.0134
13558SOL     OW42827   5.094   8.268   4.920 -0.0359  0.0810  0.2573
13558SOL    HW142828   5.084   8.355   4.959 -1.4856  0.4532 -0.8643
13558SOL    HW242829   5.117   8.286   4.829 -1.0268 -0.6736 -0.1587
13559SOL     OW42830   8.612   4.528   6.759 -0.3070  0.2183 -0.2249
13559SOL    HW142831   8.681   4.469   6.790  1.3966  1.7587 -0.8602
13559SOL    HW242832   8.607   4.596   6.827  1.2444  1.9235 -1.7022
13560SOL     OW42833   1.487   6.127   4.484 -0.4092  0.3169  0.4001
13560SOL    HW142834   1.421   6.118   4.416 -0.1670  0.4838  0.1364
13560SOL    HW242835   1.439   6.154   4.562 -1.0875 -2.4416  1.0555
13561SOL     OW42836   7.118   6.608   3.328 -0.2969 -0.4210  0.3482
13561SOL    HW142837   7.181   6.678   3.346 -0.6601 -0.1715  0.6677
13561SOL    HW242838   7.172   6.532   3.306  0.1065 -0.1133  0.2677
13562SOL     OW42839   4.614   0.948   1.129 -0.6036  0.3763  0.2753
13562SOL    HW142840   4.634   0.997   1.049  0.5118 -0.0449  0.2759
13562SOL    HW242841   4.696   0.906   1.152 -1.4719 -1.3749  0.3536
13563SOL     OW42842   8.015   4.917   0.766 -0.1617 -0.1458  0.6847
13563SOL    HW142843   7.971   4.858   0.828 -0.8616 -1.1903 -0.7594
13563SOL    HW242844   7.976   4.896   0.681  3.4995 -1.6492 -0.8546
13564SOL     OW42845   6.815   0.215   6.916 -0.2696  0.2522  0.2110
13564SOL    HW142846   6.891   0.273   6.915  0.4366 -0.6380  0.7083
13564SOL    HW242847   6.805   0.191   7.008  1.2749 -2.7265 -0.3002
13565SOL     OW42848   6.885   8.072   6.916 -0.1277 -0.6249  0.6474
13565SOL    HW142849   6.790   8.067   6.926 -0.2712 -0.8754 -0.6042
13565SOL    HW242850   6.900   8.148   6.859  0.3759 -0.8594  0.4537
13566SOL     OW42851   4.541   6.845   7.130  0.1655  0.0531  0.5733
13566SOL    HW142852   4.578   6.888   7.053 -1.3189  1.5898  0.6831
13566SOL    HW242853   4.447   6.854   7.121 -0.0658  0.0002  2.4253
13567SOL     OW42854   2.261   0.705   8.252 -0.1404 -0.4702 -0.1788
13567SOL    HW142855   2.290   0.618   8.224  3.9876  1.1600 -1.8597
13567SOL    HW242856   2.304   0.718   8.337 -0.5790 -0.0080 -0.0245
13568SOL     OW42857   7.955   2.748   3.918  0.3987  0.7671 -0.1763
13568SOL    HW142858   7.972   2.736   3.825 -0.0028  0.7101 -0.2437
13568SOL    HW242859   7.884   2.687   3.937  1.2680 -0.0878  0.4211
13569SOL     OW42860   2.459   4.392   0.488  0.1956 -0.5026  0.1079
13569SOL    HW142861   2.383   4.394   0.430  0.0997  1.7190  0.2173
13569SOL    HW242862   2.530   4.360   0.433 -0.0792  0.7274 -1.0086
13570SOL     OW42863   2.573   3.374   0.104  0.8432  0.0067 -0.3200
13570SOL    HW142864   2.550   3.283   0.087 -1.3382  0.4561  0.0271
13570SOL    HW242865   2.669   3.375   0.098  0.9316 -2.2985 -0.2635
13571SOL     OW42866   8.915   2.277   9.409  0.1531 -0.2503 -0.1211
13571SOL    HW142867   9.005   2.257   9.432  0.4239  1.0274  0.0089
13571SOL    HW242868   8.913   2.372   9.398 -1.4200 -0.0971  0.9977
13572SOL     OW42869   1.147   5.495   0.211  0.2911  0.5960 -0.3271
13572SOL    HW142870   1.154   5.472   0.304  0.0540  2.4879  0.1908
13572SOL    HW242871   1.237   5.495   0.180  0.3784  0.0278 -0.0966
13573SOL     OW42872   3.849   8.563   7.604  0.6471  0.3579 -0.3621
13573SOL    HW142873   3.917   8.511   7.562 -1.0844 -0.4390 -2.3891
13573SOL    HW242874   3.880   8.653   7.596  1.0438  0.1065 -2.1744
13574SOL     OW42875   1.163   2.726   8.180 -0.4377 -0.0664 -0.0834
13574SOL    HW142876   1.200   2.723   8.269  0.4524  0.0026 -0.4382
13574SOL    HW242877   1.136   2.817   8.170  1.0321  0.3614 -0.4743
13575SOL     OW42878   2.592   8.639   6.446 -0.1629  0.0031 -0.2977
13575SOL    HW142879   2.502   8.637   6.412  0.0104  1.3675 -0.9099
13575SOL    HW242880   2.582   8.637   6.541 -0.8117 -0.4287 -0.3688
13576SOL     OW42881   3.521   3.783   1.336  0.3488 -0.1937  0.3189
13576SOL    HW142882   3.437   3.808   1.298  0.8044 -1.6610 -1.8359
13576SOL    HW242883   3.501   3.765   1.428 -1.3589  0.9877  0.2088
13577SOL     OW42884   9.365   8.342   8.003  0.0826  0.3799 -0.1208
13577SOL    HW142885   9.292   8.305   8.052 -0.4442  0.0152 -1.1516
13577SOL    HW242886   9.407   8.402   8.064 -1.3024  0.8917  0.3676
13578SOL     OW42887   6.569   1.258   5.481 -0.3740 -0.1079  0.1282
13578SOL    HW142888   6.567   1.350   5.454 -0.5314 -0.8892 -2.8787
13578SOL    HW242889   6.641   1.220   5.431 -2.9369 -2.4516 -2.1343
13579SOL     OW42890   3.482   7.665   5.942  0.1293 -0.5119  0.0995
13579SOL    HW142891   3.468   7.748   5.896  2.1357 -0.0586  0.2152
13579SOL    HW242892   3.419   7.605   5.903 -1.2350  0.9989 -0.1366
13580SOL     OW42893   3.995   3.960   3.228  0.2026 -0.4382 -0.2711
13580SOL    HW142894   4.062   3.895   3.206  1.2644  0.3252  0.6200
13580SOL    HW242895   3.917   3.908   3.249  1.2244 -1.4771  1.1141
13581SOL     OW42896   5.364   2.706   3.749  0.2624  0.0986  0.2089
13581SOL    HW142897   5.459   2.694   3.743  0.0273 -1.6913 -0.5511
13581SOL    HW242898   5.340   2.744   3.664  0.1417 -0.7700 -0.1541
13582SOL     OW42899   9.321   7.375   3.315  0.1371  0.2884 -0.2606
13582SOL    HW142900   9.366   7.456   3.291 -1.9597  0.5747 -4.0581
13582SOL    HW242901   9.235   7.404   3.346  0.1680 -0.4652  0.5735
13583SOL     OW42902   4.861   8.707   1.181  0.5414  0.1456 -0.1831
13583SOL    HW142903   4.884   8.792   1.143 -0.8128  0.2396 -0.8299
13583SOL    HW242904   4.838   8.653   1.105 -1.9437  0.2454  0.4121
13584SOL     OW42905   3.569   0.795   2.567  0.3743 -0.3409 -0.2115
13584SOL    HW142906   3.643   0.764   2.515 -0.1318 -0.9162 -0.6019
13584SOL    HW242907   3.509   0.720   2.570  0.1422 -0.1285  0.7189
13585SOL     OW42908   7.037   0.779   0.409  0.1444 -0.3570  0.3221
13585SOL    HW142909   7.031   0.740   0.496 -0.3880  0.8378  0.8378
13585SOL    HW242910   7.071   0.708   0.354 -0.9677 -1.6154  1.1789
13586SOL     OW42911   4.537   2.180   7.698  0.4371 -0.7661  0.8269
13586SOL    HW142912   4.596   2.163   7.771  1.5733  2.3998  0.7971
13586SOL    HW242913   4.457   2.214   7.739 -0.6535 -3.0907  0.7502
13587SOL     OW42914   5.275   7.382   7.144 -0.0339 -0.1544 -0.7865
13587SOL    HW142915   5.220   7.324   7.091  0.9726 -2.1919  0.2466
13587SOL    HW242916   5.251   7.362   7.234  0.8591  0.5298 -0.3775
13588SOL     OW42917   9.461   7.122   2.154 -0.0140 -0.1048 -0.1699
13588SOL    HW142918   9.411   7.047   2.123  1.4737 -1.9587  1.5873
13588SOL    HW242919   9.437   7.130   2.246  1.6705 -0.0501  0.3013
13589SOL     OW42920   7.560   8.746   4.082  0.5099 -0.4688  0.6584
13589SOL    HW142921   7.510   8.826   4.101  1.2768  0.5848 -1.4324
13589SOL    HW242922   7.495   8.685   4.047  0.5779  1.0781 -2.5586
13590SOL     OW42923   9.181   9.559   5.027  0.0611 -0.3478  0.3046
13590SOL    HW142924   9.093   9.565   4.991  0.4627 -2.3602 -1.2035
13590SOL    HW242925   9.169   9.571   5.122 -1.4258  2.1009 -0.1165
13591SOL     OW42926   8.484   0.906   7.703  0.5095 -0.1335  0.1535
13591SOL    HW142927   8.488   0.814   7.674  2.1481 -0.1674  0.4307
13591SOL    HW242928   8.439   0.950   7.631 -1.8855 -1.3965  0.7574
13592SOL     OW42929   2.741   3.166   8.485 -0.0519  0.4279 -0.0437
13592SOL    HW142930   2.733   3.119   8.568  1.0522 -0.0263 -0.1721
13592SOL    HW242931   2.746   3.258   8.510  1.8130  0.2151  0.5557
13593SOL     OW42932   6.927   8.966   4.692 -0.1886  0.1141  0.7686
13593SOL    HW142933   6.863   8.957   4.622  0.7656  1.2899 -0.3027
13593SOL    HW242934   6.912   8.890   4.749 -0.8985 -0.9427 -0.7734
13594SOL     OW42935   2.741   1.558   5.089  0.3232 -0.0516  0.5996
13594SOL    HW142936   2.780   1.480   5.128  0.4374 -0.8740 -1.0849
13594SOL    HW242937   2.659   1.571   5.137 -0.7594 -2.4809 -0.4755
13595SOL     OW42938   5.252   2.349   4.253 -0.0479 -0.2706 -0.0868
13595SOL    HW142939   5.218   2.393   4.176  1.3676 -1.1337 -1.2538
13595SOL    HW242940   5.220   2.401   4.327 -1.9570  0.2131 -1.1935
13596SOL     OW42941   8.581   1.707   8.779  0.7503  0.4333  0.3085
13596SOL    HW142942   8.512   1.726   8.843 -1.2048  0.2335 -1.6145
13596SOL    HW242943   8.615   1.622   8.806  1.0058  1.0129  1.9090
13597SOL     OW42944   4.031   0.311   6.340 -0.3356  0.0859  0.1291
13597SOL    HW142945   4.116   0.288   6.304  0.3449  2.1046  0.3324
13597SOL    HW242946   4.025   0.259   6.420  1.1462  0.5766  0.6008
13598SOL     OW42947   0.816   4.818   2.330 -0.4074 -0.5259 -0.1914
13598SOL    HW142948   0.723   4.810   2.352 -0.4536 -1.6737 -0.7314
13598SOL    HW242949   0.858   4.745   2.375  0.3267  0.2815  0.4709
13599SOL     OW42950   7.452   3.076   5.972 -0.1107 -0.6768  0.5041
13599SOL    HW142951   7.532   3.080   5.920  0.7447 -0.6388  1.7790
13599SOL    HW242952   7.413   3.163   5.963 -0.4789 -0.9609 -0.8109
13600SOL     OW42953   0.263   4.063   7.986  0.2057  0.5051 -0.1835
13600SOL    HW142954   0.327   3.992   7.981 -0.6046 -0.1855 -2.0821
13600SOL    HW242955   0.236   4.076   7.895 -3.0082  0.1020  0.5945
13601SOL     OW42956   2.969   9.402   0.688 -0.2540 -0.2972  0.0808
13601SOL    HW142957   2.960   9.419   0.594 -0.0132 -1.9150 -0.2687
13601SOL    HW242958   3.043   9.456   0.716  1.3274 -1.6594 -1.2418
13602SOL     OW42959   9.596   2.955   2.272 -0.1462  0.0724 -0.2075
13602SOL    HW142960   9.543   2.916   2.203 -1.7547  0.8663  0.5364
13602SOL    HW242961   9.627   3.037   2.235  0.4745 -0.3320 -0.5978
13603SOL     OW42962   6.299   9.101   0.372  0.2040  0.4293  0.5200
13603SOL    HW142963   6.327   9.061   0.290 -2.9364  0.7855 -0.8620
13603SOL    HW242964   6.356   9.177   0.382  1.2163 -0.1140 -0.8545
13604SOL     OW42965   1.906   7.695   9.228 -0.0833  0.1488 -0.2503
13604SOL    HW142966   1.825   7.681   9.277  1.2253  0.1092  2.0868
13604SOL    HW242967   1.946   7.609   9.222  1.8439  0.6689  2.6985
13605SOL     OW42968   5.996   2.966   8.448 -0.1399 -0.2560 -0.3667
13605SOL    HW142969   5.977   2.895   8.387  0.2358  0.5918 -1.5072
13605SOL    HW242970   6.050   2.926   8.516  0.5928 -0.9318 -1.3211
13606SOL     OW42971   3.007   1.288   2.747 -0.0084  0.4332 -0.4879
13606SOL    HW142972   2.987   1.346   2.674  0.9443  1.8614  0.3316
13606SOL    HW242973   2.935   1.300   2.809  0.2384  0.8292 -0.2750
13607SOL     OW42974   1.104   5.266   0.046 -0.3342 -1.0861 -0.6701
13607SOL    HW142975   1.105   5.281  -0.049  1.9719 -0.8623 -0.6720
13607SOL    HW242976   1.122   5.352   0.084 -1.7171 -1.0802  0.0247
13608SOL     OW42977   2.631   7.838   7.047 -0.2094 -0.0434  0.4911
13608SOL    HW142978   2.663   7.751   7.025 -1.1509 -0.3637  0.3637
13608SOL    HW242979   2.709   7.885   7.077  0.3249 -0.8837  0.4512
13609SOL     OW42980   7.940   4.615   4.533 -0.5433  0.1569  0.0199
13609SOL    HW142981   7.865   4.662   4.570 -0.0764 -0.4942  1.8785
13609SOL    HW242982   7.905   4.530   4.507 -0.7261  0.3728 -0.4698
13610SOL     OW42983   4.242   0.240   8.487 -0.2748 -0.1994  0.1312
13610SOL    HW142984   4.213   0.189   8.412  0.5927  0.5178 -0.7288
13610SOL    HW242985   4.328   0.204   8.509 -0.8362 -0.8906  1.2683
13611SOL     OW42986   1.716   1.477   0.757  0.2154 -0.2221 -0.4684
13611SOL    HW142987   1.650   1.519   0.813  1.0800  0.6096 -0.0388
13611SOL    HW242988   1.747   1.548   0.701  0.4991 -0.6931 -0.9135
13612SOL     OW42989   5.577   9.325   3.049  0.0816 -0.0857  0.0024
13612SOL    HW142990   5.515   9.397   3.038  0.2927  0.0321 -0.4755
13612SOL    HW242991   5.602   9.302   2.959 -1.2090 -1.8202  0.0309
13613SOL     OW42992   3.869   8.326   9.245 -0.4794  0.2220 -0.2058
13613SOL    HW142993   3.859   8.283   9.160 -1.7296 -0.5073  0.2712
13613SOL    HW242994   3.963   8.321   9.263 -0.3612 -0.8072 -0.9526
13614SOL     OW42995   6.897   4.204   5.325  0.2349 -0.6842  0.1174
13614SOL    HW142996   6.809   4.171   5.304  0.6959 -1.5955 -0.4873
13614SOL    HW242997   6.955   4.130   5.304  1.2871  0.3964 -0.9294
13615SOL     OW42998   7.540   6.776   9.221  0.4110 -0.3559 -0.3167
13615SOL    HW142999   7.480   6.809   9.154  0.8520 -1.2807 -1.1787
13615SOL    HW243000   7.603   6.723   9.174  2.4199  1.2239  0.4616
13616SOL     OW43001   8.906   9.137   2.011 -0.4711  0.2224  0.2561
13616SOL    HW143002   8.866   9.076   1.949 -0.1840 -0.4292  0.6895
13616SOL    HW243003   9.000   9.130   1.994 -0.4114  0.2547  0.5593
13617SOL     OW43004   2.184   4.278   2.324  0.1752 -0.7260 -0.2624
13617SOL    HW143005   2.106   4.286   2.269  1.1676  1.3831 -1.4630
13617SOL    HW243006   2.245   4.225   2.273 -0.3890 -2.3918  0.6846
13618SOL     OW43007   2.693   3.647   1.714  0.2098 -0.1633 -0.3597
13618SOL    HW143008   2.692   3.662   1.808  0.3861 -1.8057 -0.0568
13618SOL    HW243009   2.686   3.734   1.675 -2.0693  0.4177  1.1601
13619SOL     OW43010   2.019   0.793   8.999  0.1705 -0.0478  0.6655
13619SOL    HW143011   1.995   0.770   8.909  2.5117 -0.0114 -0.0444
13619SOL    HW243012   1.997   0.885   9.007  0.8243  0.1990 -0.2285
13620SOL     OW43013   6.911   9.393   5.904  0.5967 -0.1144  0.2500
13620SOL    HW143014   7.002   9.420   5.898  0.4750  0.3340  0.3408
13620SOL    HW243015   6.913   9.297   5.906  1.1249 -0.0912  1.1923
13621SOL     OW43016   4.649   5.315   2.344 -0.0433  0.1044 -0.0600
13621SOL    HW143017   4.589   5.253   2.386  0.4949  1.2481  2.6279
13621SOL    HW243018   4.617   5.401   2.371  1.0142  0.8728 -1.1697
13622SOL     OW43019   5.806   9.309   8.213 -0.1042  0.4332 -0.1968
13622SOL    HW143020   5.857   9.287   8.135  0.8124  1.4088  0.0910
13622SOL    HW243021   5.727   9.256   8.206 -1.3312  2.3707 -3.1487
13623SOL     OW43022   3.570   3.593   7.672 -0.1718 -0.2451  0.2688
13623SOL    HW143023   3.526   3.602   7.588 -0.3799 -2.0093  0.1475
13623SOL    HW243024   3.663   3.591   7.650 -0.1439  0.7574  0.2500
13624SOL     OW43025   3.952   2.262   7.968  0.3322  0.5692  0.0692
13624SOL    HW143026   4.019   2.221   8.022 -0.6342 -0.3762  0.6069
13624SOL    HW243027   3.872   2.254   8.020 -0.6618 -0.5059 -1.5335
13625SOL     OW43028   6.856   7.695   5.619  0.1723  0.2187  0.3343
13625SOL    HW143029   6.840   7.602   5.607 -0.7719  0.3813  0.1950
13625SOL    HW243030   6.948   7.702   5.642  0.8312 -0.5627 -1.8843
13626SOL     OW43031   4.117   4.285   1.465  1.0054 -0.1509 -0.2284
13626SOL    HW143032   4.066   4.272   1.385 -1.3011  0.0040  1.1422
13626SOL    HW243033   4.132   4.379   1.470  0.7388 -0.1074 -0.2423
13627SOL     OW43034   0.693   4.118   0.841  0.0333 -0.1627  0.0298
13627SOL    HW143035   0.623   4.183   0.847 -0.4579 -0.6632 -0.1781
13627SOL    HW243036   0.726   4.128   0.752  1.8485  1.6932  0.8207
13628SOL     OW43037   5.552   2.710   6.259  0.2471 -0.4355 -0.2640
13628SOL    HW143038   5.522   2.759   6.335 -1.0256 -1.4157 -0.1002
13628SOL    HW243039   5.511   2.753   6.184  3.1599  1.8506 -0.7076
13629SOL     OW43040   7.165   3.746   3.708  0.0668 -0.2816  0.2134
13629SOL    HW143041   7.152   3.666   3.657 -1.4875  0.9466 -1.4337
13629SOL    HW243042   7.221   3.801   3.653 -1.0500  0.7856  0.1094
13630SOL     OW43043   5.171   3.943   2.492  0.1747 -0.0382  0.6462
13630SOL    HW143044   5.203   4.023   2.449  3.2216 -1.4345  0.0973
13630SOL    HW243045   5.169   3.965   2.585  1.4013  0.5691  0.5447
13631SOL     OW43046   8.838   8.598   5.760 -0.1258 -0.0137  0.0942
13631SOL    HW143047   8.842   8.691   5.780 -0.6335  0.2150 -0.8320
13631SOL    HW243048   8.923   8.579   5.719 -0.7526  0.4680 -1.4529
13632SOL     OW43049   7.016   2.126   6.231 -0.5583  0.6491  0.0421
13632SOL    HW143050   6.974   2.136   6.316  1.9885  0.9391  1.3637
13632SOL    HW243051   7.094   2.182   6.236  0.8099 -0.9559 -1.6681
13633SOL     OW43052   1.832   7.472   2.290  0.3758  0.0959  0.6577
13633SOL    HW143053   1.909   7.419   2.312  1.6211  0.2123 -2.7221
13633SOL    HW243054   1.767   7.409   2.261  1.5745  0.1415 -2.5791
13634SOL     OW43055   0.001   7.563   0.117  0.1228  0.2505  1.5410
13634SOL    HW143056   0.040   7.507   0.184  1.9409  1.1975  1.3504
13634SOL    HW243057  -0.031   7.503   0.050 -1.5206 -0.6985  3.1047
13635SOL     OW43058   1.081   5.706   6.234 -0.1416  0.0811 -0.3226
13635SOL    HW143059   1.049   5.681   6.321  1.5540 -0.4268  0.2043
13635SOL    HW243060   1.051   5.796   6.222  1.3337  0.9227  1.7201
13636SOL     OW43061   7.025   9.628   4.603  0.3704 -0.4395  0.3562
13636SOL    HW143062   7.018   9.540   4.638  2.0435 -0.8215 -0.1856
13636SOL    HW243063   7.008   9.685   4.678 -4.7769 -1.0390 -0.0325
13637SOL     OW43064   5.486   8.142   8.193 -0.5970 -0.2588 -0.7229
13637SOL    HW143065   5.561   8.151   8.251 -0.3042  1.7318 -1.3410
13637SOL    HW243066   5.423   8.090   8.244 -0.0914  0.8306  1.1216
13638SOL     OW43067   0.036   7.868   7.794  0.5079  0.1975  0.4836
13638SOL    HW143068   0.011   7.911   7.713  0.3494 -1.2386 -0.2641
13638SOL    HW243069  -0.017   7.911   7.862  0.4796  1.2557 -0.1915
13639SOL     OW43070   3.465   2.940   0.114 -0.7915 -0.2827 -0.3154
13639SOL    HW143071   3.384   2.890   0.110  0.2494 -1.9657 -2.9162
13639SOL    HW243072   3.523   2.887   0.168 -0.6935 -0.2911 -0.4282
13640SOL     OW43073   1.043   8.147   6.989 -0.5336 -0.3293 -0.7369
13640SOL    HW143074   0.951   8.140   6.963 -0.5635  1.8083 -1.3423
13640SOL    HW243075   1.091   8.112   6.914 -0.8161 -0.0223 -1.0666
13641SOL     OW43076   0.757   7.132   0.603  0.2581 -0.3603 -0.0227
13641SOL    HW143077   0.729   7.222   0.621  1.8305  0.0290  0.6145
13641SOL    HW243078   0.743   7.086   0.685 -0.2775 -0.6426 -0.2657
13642SOL     OW43079   7.831   2.994   4.865 -1.1270 -0.1770  0.5727
13642SOL    HW143080   7.809   2.901   4.860  0.7845 -0.6263 -3.3074
13642SOL    HW243081   7.815   3.027   4.777  1.8794  2.1876  0.7391
13643SOL     OW43082   5.208   5.674   4.833 -0.3715  0.7670 -0.3554
13643SOL    HW143083   5.270   5.602   4.816  1.4476  2.5295 -1.6889
13643SOL    HW243084   5.196   5.673   4.928 -0.0821 -1.0206 -0.2990
13644SOL     OW43085   7.601   1.106   3.033  0.1163  0.1130 -0.3155
13644SOL    HW143086   7.596   1.053   2.954 -1.7233 -1.5252  0.7989
13644SOL    HW243087   7.529   1.167   3.026 -0.6143 -0.6339  0.4551
13645SOL     OW43088   1.415   6.166   6.184 -0.6062 -0.2452  0.3339
13645SOL    HW143089   1.414   6.113   6.104 -0.4819 -0.1957  0.2998
13645SOL    HW243090   1.431   6.102   6.254  2.0134  0.0144  0.0800
13646SOL     OW43091   6.173   9.255   9.278 -0.1718  0.0935 -0.1106
13646SOL    HW143092   6.123   9.237   9.199 -2.2017  0.0471  1.0949
13646SOL    HW243093   6.154   9.347   9.297  1.9463  0.7156 -0.7323
13647SOL     OW43094   3.363   3.028   0.401  0.6183  0.2317 -0.3595
13647SOL    HW143095   3.278   3.071   0.400 -0.4754 -1.7851 -2.0440
13647SOL    HW243096   3.421   3.089   0.355 -0.1774  1.1049 -0.2323
13648SOL     OW43097   2.786   5.814   0.784  0.2218  0.2090 -0.5771
13648SOL    HW143098   2.784   5.763   0.865 -0.8800 -0.6176 -1.1022
13648SOL    HW243099   2.867   5.788   0.741  0.5270  0.2168 -0.0116
13649SOL     OW43100   2.398   3.096   9.531  0.4662 -0.1076 -0.0016
13649SOL    HW143101   2.452   3.098   9.610 -0.4700  1.3993  0.6402
13649SOL    HW243102   2.394   3.003   9.507  3.3617 -0.3086 -0.1324
13650SOL     OW43103   0.182   0.961   5.103 -0.4461 -0.0410 -0.1075
13650SOL    HW143104   0.245   0.975   5.174 -0.2273  0.9669 -0.4776
13650SOL    HW243105   0.232   0.976   5.023 -1.4783  2.4721 -0.3867
13651SOL     OW43106   8.719   0.945   8.572  0.1751 -0.1005 -0.1369
13651SOL    HW143107   8.650   0.900   8.522  0.3591 -2.0535  1.2864
13651SOL    HW243108   8.799   0.927   8.523  0.2542 -1.4185  0.4478
13652SOL     OW43109   8.572   5.180   1.786  1.2541 -0.5072 -0.3232
13652SOL    HW143110   8.579   5.177   1.691  1.6651  1.2273 -0.3804
13652SOL    HW243111   8.648   5.131   1.818  0.8532 -1.5032 -0.8658
13653SOL     OW43112   0.663   3.349   3.182 -0.7287  0.5148 -0.2156
13653SOL    HW143113   0.628   3.385   3.100  0.0335 -0.4102 -0.9803
13653SOL    HW243114   0.755   3.377   3.183 -0.5587 -0.0364 -0.0156
13654SOL     OW43115   7.476   3.560   9.344 -0.0322 -0.2329  0.1564
13654SOL    HW143116   7.464   3.477   9.389 -0.6790  0.5169  1.4306
13654SOL    HW243117   7.423   3.552   9.264 -1.2265 -0.5503  0.9506
13655SOL     OW43118   4.841   1.347   1.748  0.3355  0.0974  0.4802
13655SOL    HW143119   4.824   1.269   1.801 -0.4621  0.5358  0.8886
13655SOL    HW243120   4.936   1.351   1.742  0.4092 -0.4866  1.0860
13656SOL     OW43121   2.513   7.464   7.273  0.0781  0.4176 -0.7919
13656SOL    HW143122   2.426   7.448   7.234 -0.2195  2.1340 -0.9219
13656SOL    HW243123   2.494   7.511   7.354  0.8840  0.9656 -0.9134
13657SOL     OW43124   4.807   2.698   5.035 -0.4596  0.1648 -0.0129
13657SOL    HW143125   4.816   2.786   5.070  1.9201 -0.2013  0.4464
13657SOL    HW243126   4.810   2.710   4.940 -1.4281  0.6502 -0.0007
13658SOL     OW43127   5.196   2.519   9.450  0.6249 -0.5035 -0.0661
13658SOL    HW143128   5.132   2.586   9.425  2.1803 -0.2520 -4.0721
13658SOL    HW243129   5.158   2.437   9.419  1.5250 -0.5326 -1.1602
13659SOL     OW43130   4.424   0.219   3.744 -0.9886 -0.2275 -0.5759
13659SOL    HW143131   4.343   0.173   3.767 -1.0643  0.1307 -0.1088
13659SOL    HW243132   4.410   0.248   3.654 -1.5457  0.1668 -0.3725
13660SOL     OW43133   2.562   6.095   1.132 -0.1534  0.0277  0.1010
13660SOL    HW143134   2.527   6.022   1.184 -0.7415  0.0064 -0.3144
13660SOL    HW243135   2.487   6.128   1.083  0.5022 -0.3075 -1.1734
13661SOL     OW43136   0.782   8.145   1.642 -0.3073  0.4647  0.2024
13661SOL    HW143137   0.872   8.177   1.633 -0.6173  0.9973 -1.3997
13661SOL    HW243138   0.784   8.058   1.601 -0.5244  0.4952  0.1256
13662SOL     OW43139   4.963   4.088   4.713 -0.1587 -0.8481 -0.1040
13662SOL    HW143140   4.991   4.117   4.800 -0.7457 -4.2763  1.3692
13662SOL    HW243141   5.045   4.081   4.663  0.4636 -0.9808  0.8992
13663SOL     OW43142   4.397   6.101   1.719 -0.1936 -0.0669  0.0326
13663SOL    HW143143   4.399   6.005   1.712 -0.6839 -0.1857  1.2437
13663SOL    HW243144   4.438   6.119   1.804 -0.1521  0.7966 -0.1651
13664SOL     OW43145   7.397   8.388   5.755  0.1671  0.1632  0.3800
13664SOL    HW143146   7.440   8.320   5.807 -1.7443 -1.5594 -0.1528
13664SOL    HW243147   7.311   8.351   5.734 -0.1039  1.8359 -1.8307
13665SOL     OW43148   0.085   8.513   8.156 -0.5919  0.3514  0.4084
13665SOL    HW143149   0.079   8.426   8.117 -1.2258 -0.3262  1.9620
13665SOL    HW243150   0.072   8.573   8.082  0.0020 -0.8583 -0.6975
13666SOL     OW43151   7.600   5.838   0.417 -0.5128 -0.0197 -0.1057
13666SOL    HW143152   7.544   5.856   0.341 -1.1516 -0.7134  0.1992
13666SOL    HW243153   7.669   5.782   0.383 -0.5978 -0.0381 -0.2489
13667SOL     OW43154   3.551   7.466   1.323 -0.2678 -0.1488  0.3690
13667SOL    HW143155   3.460   7.470   1.294 -0.6604 -2.1582  1.1672
13667SOL    HW243156   3.595   7.410   1.258  0.5771  1.1929 -0.2925
13668SOL     OW43157   7.128   6.199   1.428 -0.1048  0.1485  0.0479
13668SOL    HW143158   7.109   6.164   1.341  0.0473 -2.2728  0.8954
13668SOL    HW243159   7.195   6.265   1.414  0.7916 -1.0518 -1.5768
13669SOL     OW43160   4.681   6.542   9.010  0.2527  0.0626 -0.2765
13669SOL    HW143161   4.678   6.507   9.099 -2.3845 -0.2117 -0.4013
13669SOL    HW243162   4.602   6.596   9.002 -0.1136 -0.6801 -2.7244
13670SOL     OW43163   3.344   7.549   7.081  0.3334  0.1608 -0.1690
13670SOL    HW143164   3.258   7.571   7.117 -0.3124  1.7143 -2.4007
13670SOL    HW243165   3.402   7.618   7.113  0.3055  0.1887 -0.1787
13671SOL     OW43166   0.174   4.119   7.733  0.5993 -0.0447  0.6165
13671SOL    HW143167   0.189   4.206   7.696 -1.8398  0.8166  1.4507
13671SOL    HW243168   0.112   4.078   7.673 -0.2334 -0.1958  1.5540
13672SOL     OW43169   3.585   2.054   0.484  0.5332  0.2064  0.1980
13672SOL    HW143170   3.501   2.045   0.440  0.3150  0.1626  0.6187
13672SOL    HW243171   3.616   2.141   0.458 -0.1961  0.7163  0.9699
13673SOL     OW43172   2.935   3.920   0.035  0.0167  0.0924  0.1436
13673SOL    HW143173   2.901   3.922   0.124 -1.9650 -0.0925 -0.5687
13673SOL    HW243174   2.983   4.003   0.026 -0.8107  0.6786  0.9801
13674SOL     OW43175   7.198   9.365   2.693  0.1243 -0.5097 -0.6573
13674SOL    HW143176   7.191   9.453   2.655 -0.3895 -0.2558  0.0145
13674SOL    HW243177   7.173   9.306   2.621  0.0850 -0.0844 -0.9963
13675SOL     OW43178   9.244   1.663   2.870  0.0279 -0.2175  0.1697
13675SOL    HW143179   9.167   1.684   2.924  1.9152 -1.6278  3.7939
13675SOL    HW243180   9.220   1.582   2.826 -1.2137  0.3773 -0.3037
13676SOL     OW43181   5.592   9.140   8.179  0.2422 -0.6388  0.2185
13676SOL    HW143182   5.532   9.145   8.105 -0.8639  1.4400  1.1755
13676SOL    HW243183   5.538   9.162   8.255  2.1219  1.0349  1.1578
13677SOL     OW43184   8.564   6.492   6.207 -0.1881 -0.6419 -0.3715
13677SOL    HW143185   8.587   6.579   6.239  0.4115 -1.5587  1.8329
13677SOL    HW243186   8.484   6.506   6.156 -0.0271  1.2033 -0.1690
13678SOL     OW43187   1.337   5.031   5.820  0.0258  0.3884  0.0385
13678SOL    HW143188   1.395   5.036   5.744  0.3160 -2.7800 -0.0984
13678SOL    HW243189   1.307   5.120   5.834  1.6387  1.4256 -2.4777
13679SOL     OW43190   0.081   6.261   7.152 -0.8499 -0.3292  0.1689
13679SOL    HW143191   0.117   6.345   7.181 -1.7322 -0.1070  0.6605
13679SOL    HW243192  -0.006   6.257   7.191 -0.8009 -1.5105  0.2127
13680SOL     OW43193   5.162   1.794   6.679  0.4131 -0.2136 -0.0375
13680SOL    HW143194   5.167   1.783   6.774  0.1878  2.2362  0.3176
13680SOL    HW243195   5.196   1.882   6.663  2.3799 -1.2914 -2.4755
13681SOL     OW43196   1.263   4.551   7.237 -0.3152  0.1027 -0.2253
13681SOL    HW143197   1.223   4.635   7.213 -0.8714  0.0259  0.4084
13681SOL    HW243198   1.333   4.574   7.297 -1.3911  0.0322  1.1018
13682SOL     OW43199   6.925   0.577   2.675 -0.7429 -0.3895  0.0093
13682SOL    HW143200   6.973   0.634   2.735  2.6136 -1.6103 -1.2702
13682SOL    HW243201   6.894   0.635   2.606 -1.1379  0.4475  0.8681
13683SOL     OW43202   4.422   8.364   4.354  0.2963 -0.3561 -0.1938
13683SOL    HW143203   4.500   8.334   4.400 -0.3994 -1.6783  0.1662
13683SOL    HW243204   4.385   8.285   4.314 -0.8906  0.2215 -0.3060
13684SOL     OW43205   3.642   7.299   1.098 -0.1070 -0.1463 -0.4376
13684SOL    HW143206   3.638   7.229   1.033 -1.5741 -2.1513  1.6467
13684SOL    HW243207   3.565   7.352   1.081 -0.8879 -1.0902  0.0509
13685SOL     OW43208   5.749   8.063   7.059  0.3718  0.1611  0.1845
13685SOL    HW143209   5.784   8.059   7.147 -0.7012 -0.6433  0.5875
13685SOL    HW243210   5.655   8.071   7.070  0.3821  2.8664 -0.8588
13686SOL     OW43211   0.531   4.619   3.272  0.2302  0.3950 -0.3373
13686SOL    HW143212   0.548   4.592   3.182 -1.6145  1.0430 -0.9369
13686SOL    HW243213   0.577   4.703   3.281  0.8650  0.0672 -0.4825
13687SOL     OW43214   0.273   6.522   3.583 -0.3716  0.0767  0.2426
13687SOL    HW143215   0.310   6.504   3.497 -1.6883  1.6899 -0.7274
13687SOL    HW243216   0.341   6.572   3.629  0.4666 -1.0869  0.2903
13688SOL     OW43217   7.017   4.952   5.893  1.0074  0.3819  0.8128
13688SOL    HW143218   7.020   4.862   5.861  0.1784  0.4920  0.4128
13688SOL    HW243219   6.926   4.966   5.920  0.4100  1.9841 -1.7327
13689SOL     OW43220   2.057   0.189   0.142  0.5151  0.4966 -0.0736
13689SOL    HW143221   1.968   0.153   0.144  0.3331  0.9485  0.6102
13689SOL    HW243222   2.054   0.258   0.076  0.7495 -0.4211 -1.0772
13690SOL     OW43223   8.864   7.964   7.560  0.1935 -0.0382 -0.4782
13690SOL    HW143224   8.818   7.941   7.640 -0.0007 -1.4681 -0.9674
13690SOL    HW243225   8.877   8.059   7.566 -1.7142  0.2318  0.2483
13691SOL     OW43226   9.439   6.766   6.422 -0.7120 -0.0658 -0.0214
13691SOL    HW143227   9.514   6.719   6.460  1.4137  2.8612 -0.2543
13691SOL    HW243228   9.405   6.819   6.494 -0.5769  0.9124 -0.6599
13692SOL     OW43229   8.063   3.546   7.801 -0.3208  0.4676 -0.3987
13692SOL    HW143230   7.993   3.489   7.766  2.0356 -1.7390 -1.9083
13692SOL    HW243231   8.091   3.597   7.725 -0.2134  1.2447  0.1661
13693SOL     OW43232   0.676   4.220   7.009 -0.5975  0.5369 -0.0916
13693SOL    HW143233   0.740   4.149   7.014  0.0507  1.1047 -0.1062
13693SOL    HW243234   0.686   4.267   7.092 -2.1134 -0.2764  0.6057
13694SOL     OW43235   1.827   6.591   5.264  0.1640 -0.2787  0.1847
13694SOL    HW143236   1.763   6.613   5.332  1.1073  1.5548  0.5353
13694SOL    HW243237   1.777   6.592   5.183 -0.3982  0.4843  0.5285
13695SOL     OW43238   3.213   3.486   9.442 -0.0514 -0.0875  0.3255
13695SOL    HW143239   3.155   3.515   9.512 -0.0408  0.4980  0.0920
13695SOL    HW243240   3.235   3.565   9.393  1.7840 -0.1233  1.0170
13696SOL     OW43241   5.678   2.773   9.536  0.2270 -0.0221 -0.1599
13696SOL    HW143242   5.738   2.819   9.594  0.9802  0.5981 -1.3853
13696SOL    HW243243   5.656   2.692   9.582  2.2865 -0.4272  0.1866
13697SOL     OW43244   0.861   2.796   1.083  0.2997 -0.6907 -0.0875
13697SOL    HW143245   0.776   2.761   1.056  0.1233  0.9333 -1.7928
13697SOL    HW243246   0.846   2.831   1.171 -0.4757 -1.4173  0.0822
13698SOL     OW43247   8.633   6.820   0.590 -0.0928 -0.0530  0.0352
13698SOL    HW143248   8.599   6.793   0.676 -0.2194 -0.5090 -0.1556
13698SOL    HW243249   8.668   6.907   0.605 -0.4292  0.0134  0.4755
13699SOL     OW43250   9.605   9.014   9.039  0.3323 -0.3005  0.3698
13699SOL    HW143251   9.697   9.007   9.015  0.9653  2.3374  1.7150
13699SOL    HW243252   9.605   9.044   9.130 -1.9555 -4.3038  1.9508
13700SOL     OW43253   9.307   2.367   2.873 -0.3373  0.2461  0.1398
13700SOL    HW143254   9.352   2.442   2.835 -0.4984 -0.0980 -0.7500
13700SOL    HW243255   9.226   2.403   2.909 -0.1591  0.5820  0.2110
13701SOL     OW43256   7.656   8.469   0.199  0.3267 -0.2080 -0.4944
13701SOL    HW143257   7.717   8.394   0.201 -0.4404 -0.8853 -1.6071
13701SOL    HW243258   7.615   8.468   0.285  1.2608 -0.2745 -0.0389
13702SOL     OW43259   3.424   4.939   3.273 -0.0995 -0.3123 -0.3266
13702SOL    HW143260   3.456   4.977   3.191  0.8915  1.6068  0.8744
13702SOL    HW243261   3.401   5.014   3.327 -2.0054 -1.5548  0.7159
13703SOL     OW43262   8.102   2.019   3.677  0.2543  0.1119  0.8205
13703SOL    HW143263   8.132   1.930   3.657  0.3255 -0.0513  1.6382
13703SOL    HW243264   8.109   2.066   3.593 -1.6916 -1.1556 -0.1324
13704SOL     OW43265   1.645   8.009   1.658 -0.0224 -0.0187  0.0787
13704SOL    HW143266   1.677   8.099   1.664  1.3259 -0.2298 -2.5062
13704SOL    HW243267   1.550   8.019   1.649 -0.0355  1.0450  1.1342
13705SOL     OW43268   2.429   5.326   3.466 -1.0195  0.2857 -0.1200
13705SOL    HW143269   2.348   5.360   3.427 -0.9138 -0.6929 -1.2400
13705SOL    HW243270   2.484   5.305   3.390  0.0221  0.2989  0.6203
13706SOL     OW43271   0.008   3.699   5.305 -0.3285 -0.4273 -0.5588
13706SOL    HW143272  -0.076   3.743   5.314 -0.6520 -1.2556  0.7674
13706SOL    HW243273   0.048   3.707   5.392  1.4477  0.8661 -1.4267
13707SOL     OW43274   4.450   7.362   8.675 -0.0880  0.0128  0.0574
13707SOL    HW143275   4.368   7.354   8.724 -0.8308  1.1290 -0.9764
13707SOL    HW243276   4.461   7.456   8.661 -0.4597 -0.3079 -2.8121
13708SOL     OW43277   1.310   4.002   8.706  0.6399  0.2072  0.0096
13708SOL    HW143278   1.321   4.096   8.697  0.3823  0.3403  0.9978
13708SOL    HW243279   1.216   3.988   8.696  0.7507 -0.0274 -0.7717
13709SOL     OW43280   1.669   3.114   8.943  0.0582  0.1650  0.0732
13709SOL    HW143281   1.657   3.183   9.008  1.0513 -0.1758  0.6368
13709SOL    HW243282   1.654   3.032   8.990 -0.0966 -0.0512 -0.3392
13710SOL     OW43283   0.920   0.449   4.236 -0.4197  0.6046 -0.4708
13710SOL    HW143284   0.915   0.455   4.331 -1.3678 -0.0087 -0.4734
13710SOL    HW243285   1.005   0.408   4.219 -1.1781 -1.3296  0.2221
13711SOL     OW43286   3.498   4.854   6.997 -0.3466 -0.3529 -0.5789
13711SOL    HW143287   3.563   4.792   6.963 -1.1854 -1.5409 -0.0708
13711SOL    HW243288   3.514   4.857   7.091 -0.0972  0.4944 -0.6338
13712SOL     OW43289   9.262   0.341   8.007 -0.1493  0.0735 -0.0205
13712SOL    HW143290   9.213   0.392   7.942 -0.8598 -0.8154 -0.2043
13712SOL    HW243291   9.200   0.275   8.038  0.3313  0.1866  1.2282
13713SOL     OW43292   7.118   4.081   9.469 -0.1437  0.3097  0.3311
13713SOL    HW143293   7.162   4.007   9.510 -2.0116  0.2465  2.3980
13713SOL    HW243294   7.081   4.046   9.388 -0.4925 -0.8755  0.9850
13714SOL     OW43295   1.499   2.505   3.205 -0.0934  0.8315  0.6546
13714SOL    HW143296   1.424   2.521   3.262 -0.4287 -0.2509  0.5368
13714SOL    HW243297   1.572   2.550   3.248 -0.2481 -0.2564  2.1587
13715SOL     OW43298   7.885   7.305   0.759 -0.7513 -0.0913  0.1289
13715SOL    HW143299   7.954   7.240   0.746 -2.3049 -1.7318 -0.2016
13715SOL    HW243300   7.890   7.327   0.853  0.8672  0.6487 -0.0865
13716SOL     OW43301   3.487   1.152   2.900 -0.2935  0.1246  0.0764
13716SOL    HW143302   3.503   1.156   2.994 -0.2086 -0.3644  0.0893
13716SOL    HW243303   3.392   1.156   2.891 -0.4792 -2.2694  0.3590
13717SOL     OW43304   1.562   1.481   6.886 -0.4696 -0.5621 -0.4442
13717SOL    HW143305   1.600   1.564   6.917 -0.7357 -1.5238  2.9510
13717SOL    HW243306   1.628   1.444   6.828  0.1804  1.4676 -1.0662
13718SOL     OW43307   0.354   0.232   8.975  0.4646 -0.7313  0.5029
13718SOL    HW143308   0.335   0.260   8.885  0.5219 -1.4202  0.2713
13718SOL    HW243309   0.386   0.142   8.966  1.1341 -0.5653  1.1530
13719SOL     OW43310   5.068   5.389   5.296 -0.6568  0.5354  0.3923
13719SOL    HW143311   5.078   5.324   5.366  0.7305 -0.1859 -0.4159
13719SOL    HW243312   5.017   5.345   5.228 -0.3188  0.5185  0.1419
13720SOL     OW43313   3.334   6.844   3.005  0.3565 -0.1079 -0.8426
13720SOL    HW143314   3.405   6.865   3.065 -1.2265 -1.1616  1.5540
13720SOL    HW243315   3.378   6.814   2.926  2.6101 -1.4453  0.8038
13721SOL     OW43316   9.375   1.347   5.381  0.6598  0.2329  0.1731
13721SOL    HW143317   9.337   1.282   5.440 -1.1229  1.2799  0.2640
13721SOL    HW243318   9.462   1.363   5.415  0.6455 -1.1263  0.9241
13722SOL     OW43319   1.747   2.565   6.329 -0.2592 -0.7264  0.1672
13722SOL    HW143320   1.811   2.499   6.302  0.7498  0.1036  0.4494
13722SOL    HW243321   1.780   2.597   6.414 -1.1639 -0.4264  0.4222
13723SOL     OW43322   4.167   9.023   1.347 -0.3442 -0.2960  0.5758
13723SOL    HW143323   4.211   9.105   1.325 -0.5908  0.1967  1.7884
13723SOL    HW243324   4.074   9.047   1.353 -0.2506 -0.2370  2.5524
13724SOL     OW43325   2.297   1.263   6.540 -0.0463 -0.2154 -0.2363
13724SOL    HW143326   2.295   1.348   6.496 -0.7796 -0.6492 -1.0857
13724SOL    HW243327   2.206   1.232   6.536  0.4724 -1.7151 -1.3398
13725SOL     OW43328   3.554   3.925   2.478 -0.0276 -0.1571 -0.8096
13725SOL    HW143329   3.625   3.900   2.419  0.0350 -0.2224 -0.7069
13725SOL    HW243330   3.508   3.994   2.432  0.1338 -0.0792 -0.8570
13726SOL     OW43331   0.877   0.063   5.152 -0.5000  0.7536  0.2816
13726SOL    HW143332   0.823   0.002   5.102 -0.1439  0.4241  0.3023
13726SOL    HW243333   0.929   0.008   5.210  0.3915  1.0233 -0.2436
13727SOL     OW43334   4.852   4.832   6.982  0.2328 -0.0394 -0.5714
13727SOL    HW143335   4.828   4.871   7.066  1.7705 -0.2369 -0.0004
13727SOL    HW243336   4.808   4.747   6.982  0.4938 -0.1857  0.2053
13728SOL     OW43337   2.325   7.884   2.873  0.2770 -0.1436  0.0168
13728SOL    HW143338   2.241   7.894   2.827 -0.7065  1.0102  1.9171
13728SOL    HW243339   2.381   7.952   2.836 -0.1657  0.1412 -0.1413
13729SOL     OW43340   0.921   7.555   5.343 -0.3673  0.7825 -0.0458
13729SOL    HW143341   0.944   7.616   5.413  3.0558 -1.0983  0.6650
13729SOL    HW243342   0.898   7.474   5.388 -0.9353  0.3486 -1.0683
13730SOL     OW43343   6.711   4.439   6.760  0.4149  0.5321 -0.3683
13730SOL    HW143344   6.636   4.391   6.725  1.6016 -0.5570 -1.6092
13730SOL    HW243345   6.685   4.466   6.848 -0.3955 -2.4093  0.4190
13731SOL     OW43346   3.056   8.200   1.358  0.2034 -0.2984  0.7061
13731SOL    HW143347   3.131   8.252   1.387  0.8248 -0.2027 -0.9770
13731SOL    HW243348   2.981   8.257   1.374  0.9861  1.8444 -2.4016
13732SOL     OW43349   7.667   2.198   3.756 -0.5913 -0.6701  0.4398
13732SOL    HW143350   7.627   2.115   3.783 -0.1284 -0.5225  1.6380
13732SOL    HW243351   7.741   2.209   3.815 -0.6107  0.5752  0.2531
13733SOL     OW43352   0.082   1.617   2.454 -0.3322 -0.7718 -0.0752
13733SOL    HW143353   0.013   1.584   2.397 -2.6469  2.5003  0.5243
13733SOL    HW243354   0.038   1.630   2.539  1.1825  0.7675  0.5267
13734SOL     OW43355   9.238   1.966   8.992  0.4597 -0.0592 -0.5311
13734SOL    HW143356   9.330   1.995   8.986  0.1916  0.5455 -3.0952
13734SOL    HW243357   9.204   1.977   8.903 -2.4805  0.9539  0.5886
13735SOL     OW43358   9.116   5.939   4.379 -0.0683 -0.2272 -0.2521
13735SOL    HW143359   9.144   5.986   4.458  0.4519  0.2536 -0.7146
13735SOL    HW243360   9.073   5.861   4.412 -0.7000  0.4333  0.5302
13736SOL     OW43361   1.984   2.264   9.186  0.3374 -0.0613  0.2429
13736SOL    HW143362   1.998   2.330   9.118 -1.6760 -0.1429 -0.3315
13736SOL    HW243363   2.029   2.186   9.154  1.3721  0.5643  0.1448
13737SOL     OW43364   1.331   0.998   0.481  0.0988  0.3831  0.5323
13737SOL    HW143365   1.249   1.047   0.488  0.1759  0.9192 -1.6173
13737SOL    HW243366   1.399   1.065   0.483  0.2380  0.3726 -1.8216
13738SOL     OW43367   1.614   5.349   2.831 -0.4342  0.3847  0.0077
13738SOL    HW143368   1.523   5.370   2.853 -0.3312  0.3104  0.5182
13738SOL    HW243369   1.657   5.339   2.916  0.4073  1.8971 -0.2203
13739SOL     OW43370   0.336   7.808   3.563 -0.4062 -0.4122  0.0674
13739SOL    HW143371   0.369   7.851   3.642  1.2348 -1.7197  0.1540
13739SOL    HW243372   0.252   7.850   3.546 -0.1564  0.8555  1.7133
13740SOL     OW43373   5.392   6.537   7.915 -0.1428  0.2367  0.4585
13740SOL    HW143374   5.394   6.570   8.005 -0.2153 -1.5462  1.1652
13740SOL    HW243375   5.308   6.491   7.909  0.8184 -1.5806  0.2445
13741SOL     OW43376   4.439   5.815   5.406  0.0667  0.1111  0.1988
13741SOL    HW143377   4.436   5.801   5.312 -1.4565  0.4663  0.1663
13741SOL    HW243378   4.501   5.887   5.418  0.3495 -0.0051 -0.5038
13742SOL     OW43379   9.280   5.705   3.814  0.7534  0.0281 -0.4521
13742SOL    HW143380   9.372   5.686   3.830  0.3864  0.3534  2.6970
13742SOL    HW243381   9.270   5.797   3.838 -0.2985  0.1741 -1.3737
13743SOL     OW43382   1.930   6.046   3.788 -0.1197 -0.0957  0.0189
13743SOL    HW143383   1.835   6.057   3.785 -0.3152 -1.3845  0.6515
13743SOL    HW243384   1.953   6.012   3.702 -0.3960 -0.8039  0.2161
13744SOL     OW43385   6.423   9.193   1.984 -0.4566 -0.0742 -0.1694
13744SOL    HW143386   6.480   9.262   2.018 -1.1558  1.8891 -2.7125
13744SOL    HW243387   6.364   9.238   1.924 -3.6580 -2.2825  1.0848
13745SOL     OW43388   5.378   7.091   1.351 -0.0894 -0.1505  0.4375
13745SOL    HW143389   5.387   7.149   1.427  0.7459  0.1242  0.1339
13745SOL    HW243390   5.383   7.149   1.275 -0.4465 -0.4793  0.1607
13746SOL     OW43391   5.768   6.948   1.020 -0.0212 -0.0640 -0.9322
13746SOL    HW143392   5.812   6.997   1.089 -0.5130 -0.2830 -0.4577
13746SOL    HW243393   5.702   6.895   1.066 -0.6544  0.1218 -1.6102
13747SOL     OW43394   6.092   7.581   8.208 -0.1186  0.2383 -0.0776
13747SOL    HW143395   6.146   7.593   8.130  0.0871  0.3903  0.0881
13747SOL    HW243396   6.146   7.529   8.268  0.2731  1.3026  0.5198
13748SOL     OW43397   4.366   6.322   5.025  0.0715 -0.2457 -0.0136
13748SOL    HW143398   4.435   6.357   5.081  0.3512  0.3003 -0.6912
13748SOL    HW243399   4.392   6.344   4.936 -1.9604  1.8215 -0.1868
13749SOL     OW43400   7.987   3.202   1.692 -0.4542 -0.7736  0.0272
13749SOL    HW143401   7.899   3.197   1.654 -0.0187 -1.4462 -0.9680
13749SOL    HW243402   8.043   3.223   1.617  0.1265  0.5681  0.8216
13750SOL     OW43403   8.174   2.032   5.601 -0.4519 -0.0334 -0.0344
13750SOL    HW143404   8.178   2.062   5.510 -3.1445  2.5607  0.5457
13750SOL    HW243405   8.251   2.070   5.643 -0.2075  0.3387 -0.8084
13751SOL     OW43406   3.520   4.414   6.559  0.1143 -0.5634 -0.2124
13751SOL    HW143407   3.590   4.452   6.506  0.1625 -1.0120 -0.4740
13751SOL    HW243408   3.448   4.402   6.497 -0.2174 -0.0574  0.0651
13752SOL     OW43409   3.626   7.798   2.247  0.0259  0.4242 -0.0677
13752SOL    HW143410   3.636   7.893   2.244 -4.2527  1.0552 -1.4017
13752SOL    HW243411   3.552   7.783   2.306  0.5546 -2.0995  0.0796
13753SOL     OW43412   2.674   3.601   7.596  0.1773 -0.2811  0.4447
13753SOL    HW143413   2.684   3.647   7.513 -0.2594  0.9605  1.0491
13753SOL    HW243414   2.761   3.603   7.636  0.0136  0.7383  0.7984
13754SOL     OW43415   9.301   2.792   9.248 -0.1993 -0.6969 -0.4734
13754SOL    HW143416   9.349   2.709   9.241 -0.0139 -0.5999 -0.3506
13754SOL    HW243417   9.355   2.846   9.306 -1.6766 -1.4566  1.7543
13755SOL     OW43418   6.071   0.698   9.023  0.4043 -0.3884  0.0626
13755SOL    HW143419   6.051   0.792   9.016 -0.1648 -0.3874  1.4934
13755SOL    HW243420   6.167   0.695   9.021  0.4260  0.0660 -1.4952
13756SOL     OW43421   3.880   8.755   0.807 -0.7709  0.8821  0.1332
13756SOL    HW143422   3.813   8.687   0.811  0.9885 -1.0506 -1.2371
13756SOL    HW243423   3.868   8.795   0.720  0.4578 -0.2087 -0.5733
13757SOL     OW43424   3.634   9.094   2.488 -0.6344 -0.3423  0.0004
13757SOL    HW143425   3.641   9.105   2.583  0.9843  2.3002 -0.3415
13757SOL    HW243426   3.568   9.157   2.461 -1.9460 -1.8853 -0.5843
13758SOL     OW43427   5.699   8.550   4.655 -0.4484  0.2206  0.4022
13758SOL    HW143428   5.751   8.496   4.596 -1.0487 -1.0232  0.9710
13758SOL    HW243429   5.676   8.492   4.727 -2.8227  0.6146  0.0549
13759SOL     OW43430   0.727   6.679   0.913  0.1783  0.2898 -0.2811
13759SOL    HW143431   0.706   6.589   0.887  0.1985 -0.0519  0.8253
13759SOL    HW243432   0.647   6.710   0.956  0.7290  0.1866  0.8615
13760SOL     OW43433   3.875   9.210   8.833  0.0686 -0.2661 -1.0623
13760SOL    HW143434   3.820   9.271   8.883  0.3243 -0.4675 -0.5199
13760SOL    HW243435   3.963   9.249   8.835 -0.3060  0.8459 -3.2424
13761SOL     OW43436   2.658   7.806   4.616  0.0234  0.2836  0.2896
13761SOL    HW143437   2.736   7.763   4.580  0.1423  0.2598  0.5765
13761SOL    HW243438   2.625   7.859   4.543 -0.1352 -0.3096 -0.0756
13762SOL     OW43439   1.553   8.988   4.157 -0.1096 -0.5002  0.5465
13762SOL    HW143440   1.599   9.065   4.125 -0.1953 -1.2748 -1.6035
13762SOL    HW243441   1.558   8.995   4.253  2.5257  0.5993  0.4254
13763SOL     OW43442   4.492   9.596   2.416  0.0513 -0.3155 -0.1179
13763SOL    HW143443   4.409   9.601   2.464 -0.5188 -4.1249 -0.4215
13763SOL    HW243444   4.554   9.642   2.472 -1.8583  1.0032  1.0471
13764SOL     OW43445   9.241   5.000   8.699 -0.6188  0.2755  0.1501
13764SOL    HW143446   9.296   5.030   8.626 -0.6984  0.8426  0.3182
13764SOL    HW243447   9.152   5.006   8.665 -0.6091 -0.3384 -0.0126
13765SOL     OW43448   8.032   5.520   5.196 -0.4324  0.0034  0.2448
13765SOL    HW143449   8.078   5.531   5.113  4.3065 -3.3449  2.0126
13765SOL    HW243450   8.042   5.605   5.240 -1.0857  1.1250 -1.6695
13766SOL     OW43451   4.532   4.711   8.609  0.0964 -0.3473 -0.7046
13766SOL    HW143452   4.503   4.797   8.577  1.9491  0.0974 -1.3486
13766SOL    HW243453   4.473   4.690   8.680 -2.0140  0.2630 -2.1854
13767SOL     OW43454   7.363   0.001   0.076  0.0503 -0.6237 -0.9552
13767SOL    HW143455   7.446  -0.009   0.122 -0.5166 -0.5888  0.1077
13767SOL    HW243456   7.326  -0.087   0.075 -0.2740 -0.4910 -0.6934
13768SOL     OW43457   0.647   8.547   6.782  0.0762  0.0089  0.0667
13768SOL    HW143458   0.641   8.617   6.847  1.5459 -0.7268  1.0671
13768SOL    HW243459   0.633   8.466   6.832 -1.1785 -0.4603 -0.9923
13769SOL     OW43460   4.510   1.978   2.684  0.0995  0.3606  0.1732
13769SOL    HW143461   4.497   1.973   2.779  0.7608  1.3861  0.3421
13769SOL    HW243462   4.536   1.890   2.658 -0.2702  0.0268  0.9189
13770SOL     OW43463   8.388   3.198   4.336  0.1421 -0.2685  0.7401
13770SOL    HW143464   8.334   3.124   4.367 -0.7900  0.4190  0.8125
13770SOL    HW243465   8.451   3.158   4.277 -0.7368 -1.0536  0.3055
13771SOL     OW43466   3.145   7.092   9.325  0.4979 -0.0606 -0.1176
13771SOL    HW143467   3.066   7.038   9.321  0.6543 -0.4043  1.1242
13771SOL    HW243468   3.217   7.029   9.334  0.7420  0.3203  0.6419
13772SOL     OW43469   6.786   9.260   4.386 -0.6158  0.2725  0.0445
13772SOL    HW143470   6.702   9.266   4.342 -0.6584  0.1047  0.1024
13772SOL    HW243471   6.775   9.308   4.468 -1.4909 -1.9688  1.3369
13773SOL     OW43472   9.101   3.066   5.510  0.2213  0.2992 -0.3541
13773SOL    HW143473   9.196   3.055   5.512  0.3278  0.8081 -1.8096
13773SOL    HW243474   9.083   3.105   5.425 -1.3374 -0.1273 -0.2472
13774SOL     OW43475   4.635   1.186   6.615  0.6274  0.2706 -0.3289
13774SOL    HW143476   4.558   1.214   6.566  1.1176  1.8907 -0.2368
13774SOL    HW243477   4.656   1.099   6.579 -0.6289  0.2469 -1.0565
13775SOL     OW43478   1.297   1.125   1.152  0.3804 -0.2861 -0.2322
13775SOL    HW143479   1.303   1.031   1.140 -0.0937 -0.2126 -1.1574
13775SOL    HW243480   1.204   1.145   1.142  0.6084  0.4013 -1.1231
13776SOL     OW43481   6.702   3.263   0.246 -0.0780 -0.3729  0.4428
13776SOL    HW143482   6.612   3.253   0.278 -0.4598 -0.4926 -0.6232
13776SOL    HW243483   6.711   3.357   0.229  1.2312  0.2732  3.9453
13777SOL     OW43484   5.239   5.922   0.409 -0.4673  0.0542  0.4888
13777SOL    HW143485   5.277   5.908   0.322  0.5176 -0.8844  1.0397
13777SOL    HW243486   5.145   5.921   0.394 -0.3502  2.4883 -0.9258
13778SOL     OW43487   7.847   7.767   6.675 -0.0242 -0.3599 -0.5712
13778SOL    HW143488   7.931   7.758   6.630 -0.9924 -1.1242 -2.3288
13778SOL    HW243489   7.807   7.844   6.634 -0.5568 -0.5431 -0.3943
13779SOL     OW43490   9.587   4.903   0.775 -0.0876  0.2323 -0.0251
13779SOL    HW143491   9.642   4.980   0.761  0.3270  0.0589  0.6169
13779SOL    HW243492   9.649   4.831   0.787 -0.4516 -0.0044  0.4797
13780SOL     OW43493   7.076   5.620   5.989 -0.5871 -0.2352  0.2047
13780SOL    HW143494   7.165   5.594   5.965 -0.8693 -1.0147 -0.0088
13780SOL    HW243495   7.028   5.620   5.906 -1.2354 -1.5967  0.5606
13781SOL     OW43496   7.153   7.846   4.159  0.2345  0.1835 -0.4458
13781SOL    HW143497   7.063   7.855   4.129  0.2737  0.3086 -0.5284
13781SOL    HW243498   7.199   7.805   4.085  0.1699 -0.2147 -0.2706
13782SOL     OW43499   2.307   1.237   0.383  0.3029 -0.7347 -0.4832
13782SOL    HW143500   2.278   1.322   0.351 -1.1772 -2.1140 -3.1491
13782SOL    HW243501   2.361   1.257   0.459 -0.7531  2.5026 -0.4438
13783SOL     OW43502   6.826   4.829   0.256 -0.0833 -0.7117  0.4258
13783SOL    HW143503   6.830   4.779   0.175  1.9406 -0.5486  0.3794
13783SOL    HW243504   6.754   4.788   0.305  0.2669 -2.4236 -0.3953
13784SOL     OW43505   9.115   1.269   6.318  0.1703 -0.1450  0.2620
13784SOL    HW143506   9.097   1.363   6.328 -0.3229  0.0430 -1.9767
13784SOL    HW243507   9.130   1.239   6.408 -2.1915  1.5649  1.3603
13785SOL     OW43508   8.117   8.368   2.507  0.3054 -0.3348  0.5789
13785SOL    HW143509   8.071   8.285   2.497  1.0000 -0.5803 -0.7615
13785SOL    HW243510   8.209   8.344   2.517  0.6251  0.2856 -0.7085
13786SOL     OW43511   2.961   8.362   7.621  0.1347 -0.1297  0.0757
13786SOL    HW143512   3.046   8.320   7.613  1.2500  1.7732  1.2478
13786SOL    HW243513   2.922   8.322   7.699  0.2939 -0.4417 -0.0051
13787SOL     OW43514   4.052   1.175   8.885 -0.1651 -0.3855 -0.3057
13787SOL    HW143515   4.002   1.256   8.872 -0.5105 -0.6430 -0.5829
13787SOL    HW243516   4.036   1.152   8.977 -1.6031 -1.1538 -0.7192
13788SOL     OW43517   5.442   9.625   1.941 -0.6182 -0.2588  0.2271
13788SOL    HW143518   5.358   9.600   1.901 -0.1371 -1.1020 -0.2884
13788SOL    HW243519   5.433   9.718   1.961 -0.6265  0.4045 -2.4873
13789SOL     OW43520   5.944   9.595   7.327 -0.4800 -0.1650  0.5043
13789SOL    HW143521   5.983   9.511   7.304 -1.2966 -0.1425 -1.0999
13789SOL    HW243522   5.909   9.581   7.415 -0.7921 -1.5840  0.1884
13790SOL     OW43523   1.249   6.702   7.623 -0.2312 -0.5299  0.2977
13790SOL    HW143524   1.199   6.621   7.620 -0.6078 -0.3391  1.1195
13790SOL    HW243525   1.193   6.764   7.670 -0.4818  0.6081 -1.4196
13791SOL     OW43526   6.831   8.470   8.017  0.0758  0.0057  0.1132
13791SOL    HW143527   6.830   8.388   7.968  0.5221  0.2972 -0.3961
13791SOL    HW243528   6.750   8.514   7.991  1.3720  1.2024 -2.2092
13792SOL     OW43529   9.557   6.822   8.705 -0.7834  0.6316  0.4740
13792SOL    HW143530   9.619   6.882   8.746  0.8824  0.4944 -1.6974
13792SOL    HW243531   9.571   6.739   8.751  2.1184  0.0862 -1.1752
13793SOL     OW43532   4.540   5.712   8.366  0.0023  0.0295  0.1353
13793SOL    HW143533   4.601   5.644   8.337  0.1803  0.0248  0.5059
13793SOL    HW243534   4.473   5.715   8.299 -0.0903 -0.6301  0.1934
13794SOL     OW43535   1.284   2.676   9.298  0.4040  0.5997 -0.1679
13794SOL    HW143536   1.306   2.768   9.279  0.2786  0.6982  0.1670
13794SOL    HW243537   1.212   2.656   9.238  0.6553  0.6167 -0.4781
13795SOL     OW43538   6.362   8.268   2.917  0.2395 -0.3066  0.5958
13795SOL    HW143539   6.408   8.197   2.874 -0.0863 -1.1173  1.5469
13795SOL    HW243540   6.390   8.347   2.871  0.3119 -1.0864 -0.7249
13796SOL     OW43541   9.541   6.409   6.854 -0.1497 -0.6839  0.5053
13796SOL    HW143542   9.614   6.385   6.797 -0.6389 -0.8792 -0.0468
13796SOL    HW243543   9.565   6.494   6.889  0.3054 -0.7099  0.2581
13797SOL     OW43544   9.282   1.320   1.157 -0.6059  0.0303  0.1935
13797SOL    HW143545   9.239   1.311   1.072 -1.9009 -0.7787  0.8940
13797SOL    HW243546   9.321   1.235   1.173 -4.2784 -1.5042  2.3598
13798SOL     OW43547   5.879   4.164   8.197  0.6841  0.4850 -0.5395
13798SOL    HW143548   5.839   4.156   8.283  1.1769 -0.8961 -0.4202
13798SOL    HW243549   5.886   4.074   8.165  0.5267  0.9708 -2.0203
13799SOL     OW43550   6.683   1.238   1.976 -0.1829 -0.0658 -0.1893
13799SOL    HW143551   6.771   1.222   1.942  0.3702 -0.3071  1.2599
13799SOL    HW243552   6.672   1.333   1.968  1.8956  0.6589  3.2261
13800SOL     OW43553   1.592   3.382   8.113 -0.6661 -0.1268 -0.0371
13800SOL    HW143554   1.685   3.371   8.133 -1.0404 -0.1600  1.7760
13800SOL    HW243555   1.592   3.432   8.031  0.9379 -1.3185 -0.8190
13801SOL     OW43556   4.819   7.809   3.936 -0.2998 -0.1824 -0.0456
13801SOL    HW143557   4.799   7.719   3.910 -2.6294  0.7190 -1.7454
13801SOL    HW243558   4.914   7.816   3.928 -0.1052 -2.3542 -0.2456
13802SOL     OW43559   3.669   1.662   5.565  0.0151 -0.0109  0.0708
13802SOL    HW143560   3.676   1.620   5.480  0.6013 -0.0630  0.1393
13802SOL    HW243561   3.588   1.712   5.561 -0.9948 -1.5686  0.1769
13803SOL     OW43562   0.512   4.380   8.350  0.2255 -0.5050 -0.1500
13803SOL    HW143563   0.477   4.337   8.272  0.2216 -0.0735 -0.3883
13803SOL    HW243564   0.527   4.308   8.412 -1.1025 -0.7078 -0.0261
13804SOL     OW43565   7.570   0.655   4.322  0.2890 -0.6353  0.1480
13804SOL    HW143566   7.620   0.669   4.402  1.1483 -1.6779 -0.1841
13804SOL    HW243567   7.636   0.641   4.254 -0.3085 -4.3713  0.1045
13805SOL     OW43568   6.124   0.982   0.500  0.1378  0.2963 -0.4932
13805SOL    HW143569   6.154   1.072   0.514  0.4710  0.0651  0.3195
13805SOL    HW243570   6.039   0.978   0.545 -0.3710  0.4843 -1.4043
13806SOL     OW43571   2.394   4.305   7.941 -0.3122  0.1712  0.1042
13806SOL    HW143572   2.408   4.313   7.847  0.7116  1.9687  0.3557
13806SOL    HW243573   2.341   4.382   7.963 -0.4220 -0.1591  1.0178
13807SOL     OW43574   8.072   3.444   4.007  0.6928 -0.4158 -0.5500
13807SOL    HW143575   8.075   3.514   4.073  0.6447  0.5523 -1.5530
13807SOL    HW243576   8.128   3.376   4.042  1.4426  0.4837  0.0463
13808SOL     OW43577   7.042   5.500   5.245 -0.6096  0.2637  0.6469
13808SOL    HW143578   7.002   5.586   5.257 -0.7689  0.8813 -3.0285
13808SOL    HW243579   6.982   5.453   5.187  1.6017 -0.5445 -1.1764
13809SOL     OW43580   7.797   9.159   0.808  0.5069 -0.0146  0.0142
13809SOL    HW143581   7.766   9.181   0.896 -0.0660 -2.6036  0.5487
13809SOL    HW243582   7.887   9.130   0.820  1.0005  1.2132 -0.5477
13810SOL     OW43583   5.356   5.252   7.464 -0.2551 -0.6987  0.4382
13810SOL    HW143584   5.297   5.318   7.426  1.9470  0.8088 -0.5562
13810SOL    HW243585   5.324   5.169   7.428 -0.3650  0.3281 -2.0720
13811SOL     OW43586   2.981   7.618   9.539  0.6111 -0.1626 -0.0125
13811SOL    HW143587   2.974   7.697   9.592  2.5075 -0.3554  0.6033
13811SOL    HW243588   2.935   7.639   9.457  0.2632  1.2104  0.5140
13812SOL     OW43589   2.295   4.323   7.638 -0.1045 -0.5300  0.2883
13812SOL    HW143590   2.241   4.398   7.665 -0.8926 -0.5786 -1.0810
13812SOL    HW243591   2.375   4.362   7.604 -2.0488  0.1397 -4.2647
13813SOL     OW43592   4.061   1.391   7.051  0.6618 -0.6120 -0.3881
13813SOL    HW143593   3.977   1.372   7.093  1.3519 -1.3921  0.7358
13813SOL    HW243594   4.126   1.358   7.114  1.8849  1.9461 -0.1943
13814SOL     OW43595   0.834   9.297   8.811 -0.0123  0.5074 -0.0771
13814SOL    HW143596   0.793   9.320   8.727 -0.6610  0.8170  0.3150
13814SOL    HW243597   0.781   9.225   8.845 -0.0525  0.7082  0.2933
13815SOL     OW43598   0.998   7.932   8.983  0.6272 -0.1215 -0.1615
13815SOL    HW143599   1.012   7.999   9.050  0.7194 -1.3457  1.1065
13815SOL    HW243600   0.904   7.935   8.965  0.3220 -0.7252  1.1402
13816SOL     OW43601   0.908   2.190   7.104  0.0956  0.0516  0.2232
13816SOL    HW143602   0.968   2.151   7.040  0.2491  1.3929 -0.4765
13816SOL    HW243603   0.879   2.271   7.064 -0.2469  0.6555  1.6280
13817SOL     OW43604   2.496   1.960   8.321 -0.2136 -0.4965 -0.0112
13817SOL    HW143605   2.528   1.877   8.286 -1.1865 -1.2509  0.8274
13817SOL    HW243606   2.511   1.955   8.415  1.0299  0.8971 -0.0957
13818SOL     OW43607   1.943   2.120   9.611 -0.1377 -0.0292 -0.5464
13818SOL    HW143608   1.961   2.163   9.695  1.8966  1.3023 -1.5814
13818SOL    HW243609   2.010   2.053   9.604 -1.1860 -1.1150 -0.5080
13819SOL     OW43610   3.097   6.198   6.235 -0.3808 -0.5908  0.1239
13819SOL    HW143611   3.137   6.284   6.220 -1.0486 -0.5589 -1.7312
13819SOL    HW243612   3.065   6.202   6.325 -0.8665  1.3195 -0.0859
13820SOL     OW43613   5.897   4.409   1.283 -0.3389 -0.3604 -0.6577
13820SOL    HW143614   5.827   4.342   1.285 -0.4385 -0.2388  0.0256
13820SOL    HW243615   5.943   4.397   1.365 -1.0932  1.2009  0.0169
13821SOL     OW43616   2.302   7.937   3.649  1.1151 -0.2203  0.0155
13821SOL    HW143617   2.332   7.966   3.563 -0.4255 -1.5042 -1.0141
13821SOL    HW243618   2.371   7.877   3.679  1.2843 -0.3896 -0.6919
13822SOL     OW43619   9.323   5.680   8.305 -0.5812 -0.1458  0.1748
13822SOL    HW143620   9.318   5.585   8.291 -0.2883 -0.2107  0.5136
13822SOL    HW243621   9.234   5.711   8.286 -0.9065 -0.6004  0.8977
13823SOL     OW43622   5.208   5.015   7.394 -0.2276  0.3027 -0.8779
13823SOL    HW143623   5.168   4.953   7.333 -1.9188  0.5419 -0.0808
13823SOL    HW243624   5.254   4.961   7.458  0.8743  0.0219 -1.8726
13824SOL     OW43625   3.026   6.110   8.794 -0.4096  0.0700 -0.1469
13824SOL    HW143626   3.032   6.016   8.810  0.1483  0.3813  1.6376
13824SOL    HW243627   3.114   6.143   8.809 -0.6799  0.9417 -0.4014
13825SOL     OW43628   3.651   2.626   9.025  0.3851  0.1189  0.3288
13825SOL    HW143629   3.608   2.690   8.968 -0.0156 -0.5719 -0.1515
13825SOL    HW243630   3.677   2.555   8.967 -2.2175 -1.7628  1.3137
13826SOL     OW43631   5.765   0.058   3.239 -0.1021 -0.4661  0.1402
13826SOL    HW143632   5.693   0.080   3.298  0.3793  0.6189  0.3686
13826SOL    HW243633   5.832   0.020   3.296  0.2594  0.3372  0.2649
13827SOL     OW43634   6.314   3.672   1.724 -0.0185 -0.1294 -0.0349
13827SOL    HW143635   6.342   3.697   1.812  0.7967  0.7105 -0.5171
13827SOL    HW243636   6.220   3.690   1.722  0.1091  0.6020  0.4181
13828SOL     OW43637   2.611   6.466   2.210 -0.2315 -0.2787 -0.3734
13828SOL    HW143638   2.548   6.418   2.262 -0.3699 -1.0448 -1.2331
13828SOL    HW243639   2.559   6.530   2.161 -0.3271 -0.7738 -0.9281
13829SOL     OW43640   3.718   4.652   8.567 -0.2670  0.2369 -0.1154
13829SOL    HW143641   3.654   4.634   8.498 -0.3752 -3.0887  0.7074
13829SOL    HW243642   3.673   4.713   8.626 -2.4656 -1.4171  0.0505
13830SOL     OW43643   6.838   3.995   6.749  0.6921  0.3255  0.3517
13830SOL    HW143644   6.851   3.983   6.655  0.4796 -0.4986  0.4247
13830SOL    HW243645   6.753   3.955   6.767  0.9419  0.0701  0.9768
13831SOL     OW43646   4.739   1.163   9.505  0.2045 -0.1038 -0.6041
13831SOL    HW143647   4.719   1.125   9.420  0.5670  0.1856 -0.8199
13831SOL    HW243648   4.654   1.174   9.547  0.1730 -2.7098  0.1486
13832SOL     OW43649   5.491   1.965   4.157  0.9462 -0.0985 -1.0009
13832SOL    HW143650   5.399   1.950   4.135  0.4209  1.1222  0.1944
13832SOL    HW243651   5.511   2.049   4.117 -0.1209  2.3490  2.9513
13833SOL     OW43652   7.243   6.699   1.650  0.4818  0.0316  0.6038
13833SOL    HW143653   7.226   6.651   1.731 -0.3058  0.5559  0.7546
13833SOL    HW243654   7.274   6.785   1.679 -0.3295  0.4130  0.3600
13834SOL     OW43655   5.840   1.751   1.932 -0.0882 -0.0046  0.3407
13834SOL    HW143656   5.854   1.835   1.976 -0.6876  0.9991 -1.2951
13834SOL    HW243657   5.915   1.742   1.873  0.7137 -1.3403  1.5087
13835SOL     OW43658   5.838   9.206   8.479 -0.0311 -0.1386 -0.1943
13835SOL    HW143659   5.879   9.123   8.457  0.4869  0.0638  0.0014
13835SOL    HW243660   5.851   9.260   8.401 -1.0969 -0.4987 -0.6506
13836SOL     OW43661   4.446   6.891   4.066 -0.1706 -0.4058 -0.3309
13836SOL    HW143662   4.482   6.838   4.137 -1.4080 -0.5507  0.2040
13836SOL    HW243663   4.362   6.851   4.046 -0.9876  1.1455 -0.1415
13837SOL     OW43664   8.805   5.784   5.427 -0.4153  0.2428  0.3334
13837SOL    HW143665   8.877   5.842   5.403 -1.0636  1.0039  0.1996
13837SOL    HW243666   8.726   5.833   5.406 -0.9812 -0.6333  0.3568
13838SOL     OW43667   0.227   8.083   8.910 -0.2074 -0.1200 -0.0369
13838SOL    HW143668   0.249   8.173   8.889 -0.8403  0.1809  0.5571
13838SOL    HW243669   0.243   8.035   8.829 -1.6584  0.8468 -0.9377
13839SOL     OW43670   8.570   5.557   5.570 -0.0893  0.2481  0.1437
13839SOL    HW143671   8.539   5.471   5.600 -0.5228  0.2231 -0.3533
13839SOL    HW243672   8.503   5.618   5.602 -1.2598  0.0807 -1.8012
13840SOL     OW43673   7.275   5.830   5.831  0.1260  0.1121  0.9447
13840SOL    HW143674   7.233   5.746   5.810  1.5869 -0.8327  1.5967
13840SOL    HW243675   7.294   5.824   5.925 -0.2896  1.4394  1.1220
13841SOL     OW43676   2.918   3.274   6.978 -0.5175 -0.3688 -0.0268
13841SOL    HW143677   2.834   3.279   7.025  0.7129  1.2747  2.2273
13841SOL    HW243678   2.962   3.198   7.016 -0.3236 -0.2362  0.0136
13842SOL     OW43679   9.435   0.364   2.462 -0.1273 -0.2655 -0.6630
13842SOL    HW143680   9.486   0.324   2.533 -0.2669 -1.9292 -1.4371
13842SOL    HW243681   9.499   0.412   2.410  0.6708 -2.1134 -1.4729
13843SOL     OW43682   6.399   1.894   4.971  0.1390 -0.3278 -0.2167
13843SOL    HW143683   6.407   1.799   4.961  2.2951 -0.0859 -1.3191
13843SOL    HW243684   6.474   1.918   5.025  0.3105  0.8982 -0.9777
13844SOL     OW43685   5.519   3.305   4.323 -0.5500 -0.1545  0.1889
13844SOL    HW143686   5.594   3.280   4.377  0.8059  1.4914 -0.8295
13844SOL    HW243687   5.513   3.400   4.333 -1.5880 -0.0890 -0.8743
13845SOL     OW43688   6.623   5.721   2.038 -0.1360  0.1232  0.0586
13845SOL    HW143689   6.711   5.713   2.002  0.4116  0.6302  1.2315
13845SOL    HW243690   6.595   5.631   2.054  0.0883 -0.0503 -0.5019
13846SOL     OW43691   6.272   6.998   4.040  0.4100 -0.2909  0.1235
13846SOL    HW143692   6.293   6.991   3.947  0.2510 -2.0158  0.1821
13846SOL    HW243693   6.202   6.934   4.053  0.0042  0.3798  1.3097
13847SOL     OW43694   2.836   3.650   3.064  0.7134 -0.1016  0.5673
13847SOL    HW143695   2.813   3.656   3.157 -0.0767  2.7745  0.3055
13847SOL    HW243696   2.755   3.674   3.018  1.3335 -0.6147 -0.8380
13848SOL     OW43697   4.689   0.492   5.747 -0.2454  0.1477 -0.3930
13848SOL    HW143698   4.680   0.568   5.689 -0.2110 -0.1548 -0.7988
13848SOL    HW243699   4.600   0.458   5.757 -0.2526  0.2031 -0.2568
13849SOL     OW43700   9.272   8.889   2.149 -0.2287 -0.9703  0.3022
13849SOL    HW143701   9.215   8.856   2.081  0.5959  0.0497 -0.9329
13849SOL    HW243702   9.341   8.823   2.157 -0.1687 -0.9578 -0.0815
13850SOL     OW43703   9.056   5.930   6.027 -0.0463  0.0136  0.0651
13850SOL    HW143704   9.142   5.967   6.045 -0.7738  1.7545  0.2051
13850SOL    HW243705   9.005   6.004   5.993 -1.2395 -1.1730 -0.8389
13851SOL     OW43706   7.194   6.956   3.581  0.0755  0.5222  0.3538
13851SOL    HW143707   7.194   6.887   3.514 -2.0640 -0.0112  0.8120
13851SOL    HW243708   7.125   6.929   3.642 -0.7692  3.0183  0.5986
13852SOL     OW43709   8.708   4.869   4.973 -0.3272 -0.0676 -0.6404
13852SOL    HW143710   8.709   4.964   4.961  2.0264  0.0260 -0.1693
13852SOL    HW243711   8.800   4.846   4.983 -0.9386 -2.2887  0.2571
13853SOL     OW43712   7.611   2.401   0.375 -0.1111 -0.2444 -0.3871
13853SOL    HW143713   7.541   2.355   0.329 -0.9614  2.5725 -2.1990
13853SOL    HW243714   7.611   2.489   0.336  1.0567  1.4858  3.1065
13854SOL     OW43715   3.237   3.084   8.881 -0.0822  0.3259 -0.7527
13854SOL    HW143716   3.236   3.179   8.872  2.1645  0.4831 -0.0570
13854SOL    HW243717   3.220   3.069   8.974 -0.1384  0.0709 -0.8044
13855SOL     OW43718   9.520   4.333   2.824  0.3148  0.1279 -0.3976
13855SOL    HW143719   9.483   4.309   2.909 -3.1346  3.4787 -0.6722
13855SOL    HW243720   9.506   4.256   2.769  0.9203 -1.4409  1.5411
13856SOL     OW43721   0.418   6.748   3.696  0.0961  0.1665  0.1582
13856SOL    HW143722   0.350   6.809   3.725  1.7014  2.6156 -0.9427
13856SOL    HW243723   0.487   6.755   3.762  0.5538  0.0208 -0.2986
13857SOL     OW43724   4.269   0.999   6.109 -1.2915 -0.0660 -0.2005
13857SOL    HW143725   4.231   0.919   6.145 -1.7971  0.0825 -0.3953
13857SOL    HW243726   4.199   1.064   6.114 -0.1328  1.1276  2.4020
13858SOL     OW43727   4.044   1.722   7.280  0.3323  0.4125 -0.1948
13858SOL    HW143728   4.078   1.807   7.307  1.7442 -0.7474  1.9180
13858SOL    HW243729   4.088   1.703   7.197  1.1694  1.0540  0.0996
13859SOL     OW43730   1.013   7.985   5.057 -0.1119 -0.2129  0.3151
13859SOL    HW143731   1.032   7.978   4.964 -0.0791 -1.6254  0.3966
13859SOL    HW243732   1.099   7.992   5.099  0.0943 -2.4260  0.3972
13860SOL     OW43733   7.853   4.680   2.926 -0.0444  0.8870 -0.1278
13860SOL    HW143734   7.783   4.689   2.860 -1.5179  0.1944  1.2794
13860SOL    HW243735   7.902   4.603   2.898 -0.5897  0.6579 -0.4798
13861SOL     OW43736   8.814   6.742   7.157  0.1294 -0.0330  0.0315
13861SOL    HW143737   8.800   6.763   7.065 -0.0834 -0.3058  0.0035
13861SOL    HW243738   8.736   6.694   7.184  0.3093 -0.1856  0.2846
13862SOL     OW43739   6.698   8.923   9.185  0.2370  0.1139 -0.1866
13862SOL    HW143740   6.641   8.858   9.225  1.2430 -1.7983 -1.7158
13862SOL    HW243741   6.654   8.946   9.102  0.3809  0.6517 -0.1212
13863SOL     OW43742   2.076   7.720   5.386 -0.6421  0.6894  0.3442
13863SOL    HW143743   1.990   7.757   5.367 -1.3491 -0.5613  1.0085
13863SOL    HW243744   2.080   7.639   5.336  0.2260  0.8020  0.2049
13864SOL     OW43745   6.460   2.563   5.566  0.4088  0.0590  0.1816
13864SOL    HW143746   6.480   2.510   5.489  0.5056 -4.3286  2.9112
13864SOL    HW243747   6.543   2.569   5.613 -0.2043  0.3235  1.2585
13865SOL     OW43748   9.578   7.813   1.417  0.6254  0.0525 -0.0147
13865SOL    HW143749   9.493   7.810   1.461  0.9115  0.2814  0.5615
13865SOL    HW243750   9.625   7.886   1.458  1.6700 -1.0056  0.7364
13866SOL     OW43751   2.045   0.992   8.115 -0.3786  0.4002  0.0983
13866SOL    HW143752   2.042   1.015   8.208  0.3373  0.5961  0.0839
13866SOL    HW243753   1.955   0.969   8.092 -0.7024  1.1089  0.6457
13867SOL     OW43754   3.507   7.095   7.066  1.0350  0.5142  0.0695
13867SOL    HW143755   3.538   7.022   7.119  0.0510  0.2230  0.2620
13867SOL    HW243756   3.471   7.055   6.987  1.2851  0.8555 -0.2241
13868SOL     OW43757   7.327   4.488   9.517  0.2118 -0.2125  0.1176
13868SOL    HW143758   7.329   4.495   9.612 -0.1068 -0.5306  0.1503
13868SOL    HW243759   7.326   4.393   9.500  1.4470 -0.1812 -0.2274
13869SOL     OW43760   5.866   3.320   2.429  0.6806  0.3478  0.4275
13869SOL    HW143761   5.835   3.315   2.339 -0.1127 -0.0880  0.7116
13869SOL    HW243762   5.816   3.252   2.475  0.6511  0.9508  1.3093
13870SOL     OW43763   1.232   1.570   7.370  0.0047  0.4800 -0.1009
13870SOL    HW143764   1.316   1.525   7.377 -0.6582 -0.5629  1.9470
13870SOL    HW243765   1.168   1.508   7.405 -1.1768  2.3620  1.3373
13871SOL     OW43766   8.510   2.795   9.409 -0.0532  0.2006  0.0043
13871SOL    HW143767   8.457   2.825   9.335 -0.3795  0.1772  0.2232
13871SOL    HW243768   8.447   2.753   9.468 -0.1183  1.8229  1.1558
13872SOL     OW43769   6.046   1.860   8.344 -0.3056 -0.2029  0.1914
13872SOL    HW143770   6.054   1.801   8.419 -2.7754  0.0446  0.7083
13872SOL    HW243771   6.077   1.944   8.377 -0.7733 -0.2421  0.7378
13873SOL     OW43772   4.094   0.679   8.662 -0.0242  0.3526 -0.2635
13873SOL    HW143773   4.102   0.773   8.679 -1.7435  0.8981 -2.0922
13873SOL    HW243774   4.006   0.657   8.693 -0.6498 -0.0355 -2.1977
13874SOL     OW43775   9.321   3.898   4.973 -0.6194 -0.1550 -0.6404
13874SOL    HW143776   9.283   3.883   4.886 -0.7880  0.5094 -0.6874
13874SOL    HW243777   9.409   3.863   4.967 -0.3991  0.4872 -1.2990
13875SOL     OW43778   0.016   6.027   5.020 -0.3095  0.1545  0.5807
13875SOL    HW143779   0.081   6.046   4.953  0.9553 -0.7181  1.5246
13875SOL    HW243780   0.058   6.052   5.102 -0.7371 -1.4081  1.3105
13876SOL     OW43781   0.147   8.514   0.017  0.0069  0.5102 -0.3043
13876SOL    HW143782   0.166   8.592  -0.035  1.6242 -1.0237 -2.1980
13876SOL    HW243783   0.226   8.500   0.069 -0.1305 -0.0346 -0.2361
13877SOL     OW43784   7.826   5.784   5.015  0.2831 -0.1230 -0.4696
13877SOL    HW143785   7.867   5.733   4.946  0.2768  0.0408 -0.5928
13877SOL    HW243786   7.897   5.835   5.053  0.3626 -0.5026 -0.0962
13878SOL     OW43787   6.503   6.438   3.566 -0.0869  0.5497  0.3723
13878SOL    HW143788   6.593   6.443   3.597  0.2848 -2.3232  0.0408
13878SOL    HW243789   6.506   6.474   3.477  0.7229  0.5089  0.3741
13879SOL     OW43790   6.716   3.191   5.167  0.9020  0.3162  0.0984
13879SOL    HW143791   6.743   3.282   5.155  0.8272  0.2072 -1.0325
13879SOL    HW243792   6.638   3.197   5.221 -0.4330  1.1456 -1.7842
13880SOL     OW43793   6.557   8.295   0.872  0.0432  0.0882  0.5402
13880SOL    HW143794   6.479   8.249   0.902 -1.7582 -0.2426 -3.8895
13880SOL    HW243795   6.628   8.233   0.885 -1.1999 -1.3528  0.7395
13881SOL     OW43796   2.168   5.406   3.392 -0.2160  0.2245  0.2884
13881SOL    HW143797   2.132   5.470   3.331  1.2987 -1.0742 -2.1525
13881SOL    HW243798   2.117   5.326   3.376 -0.0522 -0.0462  1.0382
13882SOL     OW43799   1.215   0.136   3.687 -0.6394 -0.5718  0.5121
13882SOL    HW143800   1.150   0.073   3.654  0.1382 -1.4609  0.6374
13882SOL    HW243801   1.288   0.130   3.625 -1.2702  1.5683 -0.5164
13883SOL     OW43802   9.024   0.700   3.810 -0.1552  0.0758  0.7167
13883SOL    HW143803   9.033   0.728   3.901 -1.3436  1.3743  0.4807
13883SOL    HW243804   8.945   0.646   3.809  0.9994 -1.6602  0.7953
13884SOL     OW43805   1.221   8.881   8.711 -0.4000  0.3580 -0.4575
13884SOL    HW143806   1.273   8.803   8.693 -0.4761  0.6247 -1.9696
13884SOL    HW243807   1.276   8.954   8.684 -1.6152  0.6360 -2.3778
13885SOL     OW43808   3.196   5.130   0.990  0.7412  0.0093 -0.2574
13885SOL    HW143809   3.271   5.162   0.940  0.6625 -0.7015 -0.8490
13885SOL    HW243810   3.122   5.139   0.930  0.4881 -0.0418  0.0417
13886SOL     OW43811   0.636   3.005   2.325 -0.4197 -0.3849 -0.0410
13886SOL    HW143812   0.583   2.926   2.334 -0.0321 -0.5945  0.4341
13886SOL    HW243813   0.599   3.066   2.388 -1.2870  0.1399 -1.0273
13887SOL     OW43814   7.072   6.786   2.926  0.0870  0.2470 -0.0560
13887SOL    HW143815   7.002   6.779   2.860 -0.3324 -0.0888  0.4171
13887SOL    HW243816   7.027   6.771   3.009  0.6244  0.6260  0.3039
13888SOL     OW43817   1.257   0.277   3.178 -0.4626  0.2485 -0.0923
13888SOL    HW143818   1.303   0.310   3.255  1.5001  0.5097 -1.3118
13888SOL    HW243819   1.293   0.190   3.164  0.3675  0.8074 -1.6026
13889SOL     OW43820   7.152   0.225   8.344 -0.2697 -0.0958 -0.6816
13889SOL    HW143821   7.074   0.228   8.398  0.4153 -0.7990  0.3984
13889SOL    HW243822   7.208   0.295   8.377  0.4589 -0.9910  0.0524
13890SOL     OW43823   2.833   5.078   3.153  0.2026 -0.0753 -0.2980
13890SOL    HW143824   2.762   5.094   3.215 -0.6239  0.4509 -1.3505
13890SOL    HW243825   2.813   5.135   3.078  1.1403 -0.7270 -1.0677
13891SOL     OW43826   1.979   4.068   3.390  0.3597  0.6660 -0.0842
13891SOL    HW143827   2.043   4.139   3.398  0.5619  1.1578 -4.1198
13891SOL    HW243828   2.021   4.005   3.332 -1.9423 -0.0917 -1.0365
13892SOL     OW43829   9.308   4.140   8.809 -0.0823 -0.0798  0.1311
13892SOL    HW143830   9.267   4.094   8.735 -1.4176  0.0920  0.7230
13892SOL    HW243831   9.349   4.071   8.861 -0.7398 -0.4349  0.1917
13893SOL     OW43832   4.952   5.144   5.391  0.1259  0.1717 -0.1668
13893SOL    HW143833   5.024   5.094   5.427 -0.5485 -0.6659  0.0469
13893SOL    HW243834   4.945   5.115   5.300 -1.3705 -1.4589  0.4178
13894SOL     OW43835   5.130   1.088   6.662 -0.1793 -0.0927  0.0438
13894SOL    HW143836   5.122   1.180   6.687  0.2639  0.2676 -1.0819
13894SOL    HW243837   5.156   1.090   6.570 -1.7675 -1.3673 -0.4736
13895SOL     OW43838   8.230   1.681   6.211 -0.4386 -0.2324  0.2187
13895SOL    HW143839   8.292   1.754   6.198 -0.0476 -0.6714 -0.4503
13895SOL    HW243840   8.164   1.694   6.142 -1.8296  0.9555  1.6966
13896SOL     OW43841   4.559   4.628   0.007  0.1590  0.0486  0.0006
13896SOL    HW143842   4.499   4.632  -0.067 -0.6932 -0.7660  0.6263
13896SOL    HW243843   4.608   4.710   0.003 -1.4800  1.0616 -0.1253
13897SOL     OW43844   7.208   7.157   6.267 -0.0998  0.0554 -0.4854
13897SOL    HW143845   7.124   7.203   6.262 -1.2010 -1.8734 -0.4661
13897SOL    HW243846   7.243   7.181   6.352 -0.4756  1.1025 -0.6077
13898SOL     OW43847   4.916   6.360   0.184  0.0401  0.4720  0.1007
13898SOL    HW143848   4.894   6.331   0.272 -1.8053  0.1414 -0.4183
13898SOL    HW243849   4.938   6.280   0.137 -0.1605  0.5007 -0.0448
13899SOL     OW43850   5.680   3.809   6.079  0.6921  0.3369 -0.3907
13899SOL    HW143851   5.685   3.733   6.136 -1.0991  0.9413  0.6689
13899SOL    HW243852   5.596   3.799   6.034  0.7588  1.3189 -0.7589
13900SOL     OW43853   8.115   5.243   2.880 -0.4784  1.0052  0.1593
13900SOL    HW143854   8.203   5.246   2.843 -1.0090  0.8085 -1.1664
13900SOL    HW243855   8.063   5.300   2.824 -2.4757 -3.1981 -2.8373
13901SOL     OW43856   4.363   0.621   1.219  0.5678 -0.5190  0.1254
13901SOL    HW143857   4.317   0.576   1.290  0.0365 -1.4800 -0.7946
13901SOL    HW243858   4.384   0.707   1.254 -1.4370 -0.2545  0.7758
13902SOL     OW43859   0.729   3.402   6.818  0.4675  0.0858  0.5007
13902SOL    HW143860   0.663   3.450   6.867  0.7446  0.8786  0.1112
13902SOL    HW243861   0.717   3.310   6.844 -1.0154  0.1639  0.1535
13903SOL     OW43862   1.637   3.172   8.375 -0.0248 -0.0072  0.0897
13903SOL    HW143863   1.642   3.078   8.357  0.0955 -0.1679  0.9397
13903SOL    HW243864   1.574   3.205   8.310 -0.1177 -0.6795 -0.1726
13904SOL     OW43865   3.690   8.536   8.212 -0.3413  0.0983 -0.1574
13904SOL    HW143866   3.766   8.480   8.229 -1.3881 -1.5156 -0.5586
13904SOL    HW243867   3.694   8.554   8.119 -0.6061 -0.2569 -0.2412
13905SOL     OW43868   7.547   3.083   2.589  0.0667  0.0110  0.0175
13905SOL    HW143869   7.501   3.014   2.541 -2.0279 -0.1789  2.1205
13905SOL    HW243870   7.632   3.044   2.610  0.6306 -0.2878 -2.4574
13906SOL     OW43871   5.795   1.103   8.265 -0.1511  0.1274  0.3510
13906SOL    HW143872   5.783   1.180   8.210 -0.5998 -0.2185 -0.0374
13906SOL    HW243873   5.723   1.044   8.242 -1.4201  0.7061  2.5809
13907SOL     OW43874   4.310   1.869   9.259 -0.1109 -0.1487  0.3738
13907SOL    HW143875   4.309   1.944   9.200 -0.8290  0.1549  0.7617
13907SOL    HW243876   4.403   1.859   9.282  0.6924 -2.1345 -3.0856
13908SOL     OW43877   8.465   6.085   8.594  0.2718  0.2707 -0.6143
13908SOL    HW143878   8.533   6.128   8.542  0.3613  0.5665 -0.2590
13908SOL    HW243879   8.453   6.142   8.670  2.6376 -1.8077  1.5366
13909SOL     OW43880   3.826   2.556   7.948  0.4232  0.3237 -0.2158
13909SOL    HW143881   3.813   2.502   7.871 -1.5410  0.3986  0.0273
13909SOL    HW243882   3.756   2.621   7.945  0.8735  0.9150  1.1348
13910SOL     OW43883   5.024   5.962   2.757 -0.1652 -0.7918 -0.0262
13910SOL    HW143884   5.028   5.867   2.764 -1.4512 -0.9432 -1.0146
13910SOL    HW243885   5.084   5.984   2.687 -0.4450 -0.9565 -0.3192
13911SOL     OW43886   1.088   0.589   5.591 -0.4101 -0.3802  0.0170
13911SOL    HW143887   1.044   0.673   5.604  0.0985 -0.1386  0.1829
13911SOL    HW243888   1.048   0.531   5.657 -1.4873 -0.5607 -0.7634
13912SOL     OW43889   5.373   4.160   5.162  0.0308  0.0667  0.4312
13912SOL    HW143890   5.437   4.125   5.224  1.1138  1.9650  0.4594
13912SOL    HW243891   5.357   4.088   5.101 -0.2503 -1.4820  2.2656
13913SOL     OW43892   3.352   1.914   0.851 -0.4772 -0.2606 -0.6446
13913SOL    HW143893   3.310   1.834   0.883 -1.8599  0.8720  0.5539
13913SOL    HW243894   3.285   1.981   0.862  1.4960  1.5845  0.9532
13914SOL     OW43895   3.540   0.578   8.944  0.1566 -0.0731  0.0913
13914SOL    HW143896   3.504   0.641   8.882  1.8498  0.0758 -0.7984
13914SOL    HW243897   3.635   0.592   8.940  0.4398 -1.4390  1.2252
13915SOL     OW43898   1.070   3.779   6.626 -0.0638 -0.0838  0.5278
13915SOL    HW143899   1.084   3.763   6.532  1.5079  1.4800  0.4316
13915SOL    HW243900   0.981   3.749   6.642  0.7248 -3.4895 -0.6893
13916SOL     OW43901   8.111   3.311   8.915 -0.5219 -0.0712  0.0939
13916SOL    HW143902   8.122   3.305   9.010 -0.0862 -2.7125 -0.0480
13916SOL    HW243903   8.193   3.349   8.884  0.3707 -1.5004  0.6185
13917SOL     OW43904   7.659   4.017   1.807 -0.4556 -0.7302  0.0243
13917SOL    HW143905   7.623   3.930   1.826 -0.6840 -0.6192  0.0987
13917SOL    HW243906   7.583   4.069   1.782 -0.5025 -0.2042  1.2147
13918SOL     OW43907   7.283   9.254   4.886 -0.1304 -0.3051  0.2199
13918SOL    HW143908   7.379   9.261   4.889 -0.0252 -0.9095 -1.2477
13918SOL    HW243909   7.266   9.168   4.849 -1.2825 -0.8248  1.8581
13919SOL     OW43910   1.080   1.033   6.564 -0.1205  0.3174  0.2714
13919SOL    HW143911   1.128   1.070   6.639  0.9970  1.8628 -1.1452
13919SOL    HW243912   1.142   0.970   6.526 -1.6137 -2.4041  2.0313
13920SOL     OW43913   9.582   8.298   8.462 -0.1710  0.6293 -0.6195
13920SOL    HW143914   9.538   8.365   8.514  0.6415 -0.1405  1.1366
13920SOL    HW243915   9.675   8.316   8.474  0.0683 -0.8420 -0.0209
13921SOL     OW43916   9.376   1.409   7.327  0.2442 -0.0406 -0.9820
13921SOL    HW143917   9.310   1.344   7.304 -0.9391  0.5559  0.5764
13921SOL    HW243918   9.326   1.486   7.354  1.5748  0.5097  0.0259
13922SOL     OW43919   4.394   4.619   0.472  0.2198  0.7336 -0.0645
13922SOL    HW143920   4.407   4.587   0.383 -0.9498  1.2598 -0.4505
13922SOL    HW243921   4.310   4.666   0.468 -0.3306 -0.0547  1.5428
13923SOL     OW43922   7.756   3.293   0.114  0.4522  0.1409  0.2369
13923SOL    HW143923   7.824   3.328   0.172  0.1432  0.3855  0.4550
13923SOL    HW243924   7.674   3.313   0.158  0.1738  0.9948 -0.6291
13924SOL     OW43925   4.278   8.044   7.269 -0.0746  0.2730  0.1523
13924SOL    HW143926   4.265   7.949   7.268  0.9706  0.1074  0.7350
13924SOL    HW243927   4.331   8.062   7.191 -0.3106  0.3912  0.0171
13925SOL     OW43928   6.191   1.070   3.141 -0.1265  0.2941  0.0767
13925SOL    HW143929   6.192   0.986   3.188 -0.1764  0.0688 -0.3187
13925SOL    HW243930   6.281   1.102   3.147 -0.8226  2.0418  3.4295
13926SOL     OW43931   0.656   6.166   1.602 -0.4149  0.1712 -0.5002
13926SOL    HW143932   0.681   6.225   1.531 -1.2024 -2.0090 -2.7629
13926SOL    HW243933   0.714   6.090   1.591  0.8185  0.5308  2.5158
13927SOL     OW43934   9.232   8.418   5.809  0.2782 -0.6653 -0.0436
13927SOL    HW143935   9.259   8.368   5.887  1.9861  0.6149  0.2506
13927SOL    HW243936   9.312   8.460   5.780 -0.7491  0.4305 -1.3687
13928SOL     OW43937   0.957   6.539   7.146 -0.0416  0.1580 -0.1172
13928SOL    HW143938   0.886   6.476   7.131  1.2591 -2.0532  2.0999
13928SOL    HW243939   0.935   6.614   7.092 -1.9803 -1.9988 -2.5749
13929SOL     OW43940   6.028   6.846   1.241 -0.4749 -0.0596  0.1774
13929SOL    HW143941   5.990   6.866   1.327 -0.7452 -1.1402  0.3235
13929SOL    HW243942   6.121   6.870   1.250 -0.3253 -0.9182  1.0422
13930SOL     OW43943   2.751   8.295   1.772  0.2560 -0.2377 -0.0830
13930SOL    HW143944   2.748   8.250   1.856  0.1519  0.3435  0.2293
13930SOL    HW243945   2.843   8.322   1.763  0.4556 -1.0434 -0.5601
13931SOL     OW43946   8.542   0.848   6.326  0.2131  0.1694 -0.2865
13931SOL    HW143947   8.498   0.763   6.331  0.7424 -0.0602  2.1105
13931SOL    HW243948   8.475   0.908   6.294 -1.3332 -0.5041  1.4714
13932SOL     OW43949   4.748   4.160   3.872 -0.0019 -0.3846 -0.0714
13932SOL    HW143950   4.732   4.236   3.928  0.5038 -0.8692  0.7660
13932SOL    HW243951   4.725   4.189   3.784 -1.0003  0.3485  0.4119
13933SOL     OW43952   1.236   3.086   0.128 -0.1251 -0.6119  0.3934
13933SOL    HW143953   1.293   3.011   0.111 -2.4115 -2.7486  1.4069
13933SOL    HW243954   1.281   3.136   0.196  1.2104 -1.3764  0.0955
13934SOL     OW43955   0.943   2.583   8.074  0.1046 -0.2363 -0.0356
13934SOL    HW143956   0.944   2.487   8.075  1.0956 -0.2363 -0.2249
13934SOL    HW243957   1.012   2.609   8.135 -1.8164  0.4043  2.0254
13935SOL     OW43958   5.685   2.897   1.805  0.1256 -0.1661  0.4408
13935SOL    HW143959   5.618   2.950   1.762  0.1823 -0.1472  0.3770
13935SOL    HW243960   5.753   2.960   1.829  0.2238 -0.2208  0.3034
13936SOL     OW43961   6.506   4.307   4.421 -0.1428 -0.0503 -0.4734
13936SOL    HW143962   6.548   4.271   4.500 -0.8497 -0.6075 -0.3435
13936SOL    HW243963   6.462   4.232   4.381 -2.6379  0.8331  0.4320
13937SOL     OW43964   4.863   6.634   2.787 -0.2558  0.0737  0.2225
13937SOL    HW143965   4.929   6.703   2.795 -1.9594  1.8496 -0.2535
13937SOL    HW243966   4.883   6.593   2.702  0.9060 -0.2062  0.6069
13938SOL     OW43967   8.200   1.284   7.008  0.2160 -0.3249 -0.1821
13938SOL    HW143968   8.283   1.255   6.969  1.6867 -0.3974  2.7269
13938SOL    HW243969   8.225   1.318   7.094 -2.8039 -0.3375  0.7970
13939SOL     OW43970   6.584   8.463   3.784  0.5027  0.1244 -0.3363
13939SOL    HW143971   6.547   8.550   3.767  1.7702  0.7435 -0.0466
13939SOL    HW243972   6.675   8.480   3.808  0.2721 -1.1347  1.6761
13940SOL     OW43973   1.838   7.020   1.421  0.1168  0.4482  0.1748
13940SOL    HW143974   1.825   7.094   1.480  0.8129  0.0535  0.8279
13940SOL    HW243975   1.885   7.057   1.346  1.8573  0.3900  1.1880
13941SOL     OW43976   5.519   7.043   3.530 -0.6362  0.0106  0.5370
13941SOL    HW143977   5.434   7.022   3.569 -1.3474  2.5471  0.5137
13941SOL    HW243978   5.543   7.128   3.569  1.0844  0.1596 -0.7266
13942SOL     OW43979   3.496   3.782   9.463  0.3281 -0.5762  0.2165
13942SOL    HW143980   3.534   3.699   9.493  1.3253 -0.5915 -1.0242
13942SOL    HW243981   3.421   3.756   9.410  0.0926 -0.6407  0.5757
13943SOL     OW43982   0.091   0.920   4.765  0.8208 -0.2146 -0.1698
13943SOL    HW143983   0.160   0.947   4.826  0.4247  1.0445 -0.2552
13943SOL    HW243984   0.069   0.999   4.717 -0.4045 -0.6957 -0.4366
13944SOL     OW43985   3.896   2.201   3.905 -0.2902 -0.4382 -0.4333
13944SOL    HW143986   3.950   2.270   3.944  0.4215 -0.9637 -0.4605
13944SOL    HW243987   3.847   2.245   3.836  1.6890 -0.3203 -1.8532
13945SOL     OW43988   4.211   3.432   8.238 -0.2136  0.2897  0.7969
13945SOL    HW143989   4.257   3.482   8.170  1.0990  1.0951  2.2092
13945SOL    HW243990   4.129   3.479   8.251 -0.7206 -0.1658 -0.5421
13946SOL     OW43991   6.001   4.998   7.284 -0.0759  0.0775 -0.1683
13946SOL    HW143992   6.014   4.905   7.266 -0.4421 -0.3912  1.7607
13946SOL    HW243993   5.907   5.012   7.274  0.0715  0.4209 -1.1550
13947SOL     OW43994   8.287   0.061   4.636  0.3476  0.1099 -0.2967
13947SOL    HW143995   8.241   0.095   4.714  1.9372  0.8677  0.3455
13947SOL    HW243996   8.216   0.034   4.578 -0.9128 -0.5050  1.4121
13948SOL     OW43997   6.293   3.321   6.544  0.7143  0.8857 -0.0219
13948SOL    HW143998   6.305   3.300   6.452 -0.1681  2.0719 -0.4179
13948SOL    HW243999   6.326   3.410   6.554 -1.8891  1.9231  0.1360
13949SOL     OW44000   5.385   6.544   0.517 -0.0759  0.1228 -0.0380
13949SOL    HW144001   5.369   6.546   0.422  0.8712  0.9092 -0.1925
13949SOL    HW244002   5.409   6.454   0.535  0.2025  0.0714 -0.6294
13950SOL     OW44003   4.844   8.421   2.886 -0.1312  0.0898  0.4516
13950SOL    HW144004   4.811   8.353   2.828 -0.7850 -1.0329  2.0684
13950SOL    HW244005   4.770   8.479   2.901 -0.8507 -1.1995  2.3228
13951SOL     OW44006   6.772   8.274   2.446  0.6370  0.3145  0.0180
13951SOL    HW144007   6.788   8.317   2.362  2.2716  0.8830  0.5811
13951SOL    HW244008   6.738   8.344   2.502 -1.1893 -0.2320 -0.3432
13952SOL     OW44009   6.115   4.393   6.713  0.4652  0.0907 -0.5037
13952SOL    HW144010   6.167   4.318   6.684  1.8844  0.0549  1.8406
13952SOL    HW244011   6.027   4.376   6.680  0.9473 -2.1673 -0.7678
13953SOL     OW44012   8.037   4.903   1.446  0.3333  0.0182 -0.1603
13953SOL    HW144013   7.964   4.856   1.487  0.6740 -0.9023 -0.5842
13953SOL    HW244014   8.043   4.985   1.495  1.6188 -1.6023  2.6128
13954SOL     OW44015   3.473   3.001   2.985  0.3365  0.2063 -0.1274
13954SOL    HW144016   3.386   3.011   2.947  0.0474  1.4089  0.7811
13954SOL    HW244017   3.484   2.907   2.996 -1.5013  0.0903  1.1466
13955SOL     OW44018   6.931   5.025   1.240 -0.1106 -0.4121  0.0245
13955SOL    HW144019   6.993   4.956   1.219  2.8007  1.6056  1.3279
13955SOL    HW244020   6.908   5.011   1.332 -0.0211 -0.0605  0.1056
13956SOL     OW44021   7.776   2.118   3.216 -0.6270 -0.4490 -0.0291
13956SOL    HW144022   7.842   2.183   3.192  0.7223 -1.3141  1.2283
13956SOL    HW244023   7.721   2.163   3.280  0.0483 -0.3982  0.5231
13957SOL     OW44024   1.229   9.385   1.608  0.4121 -0.0969  0.4013
13957SOL    HW144025   1.162   9.381   1.676 -1.4752 -1.5422 -1.4043
13957SOL    HW244026   1.275   9.301   1.614 -0.8559 -0.9530 -1.0488
13958SOL     OW44027   5.731   3.705   2.164  0.0992 -0.1315 -0.5995
13958SOL    HW144028   5.660   3.642   2.166  0.0408 -0.0618 -0.4357
13958SOL    HW244029   5.745   3.729   2.256  2.7072 -2.8097 -0.1533
13959SOL     OW44030   2.592   3.671   0.235  0.0985 -0.0387 -0.2877
13959SOL    HW144031   2.602   3.577   0.254 -0.3518  0.2529  1.5536
13959SOL    HW244032   2.669   3.711   0.276 -0.2093  0.4923 -0.2271
13960SOL     OW44033   1.447   4.540   0.982 -0.1411  0.1130 -0.3713
13960SOL    HW144034   1.404   4.454   0.979  2.1115 -1.1730  1.3562
13960SOL    HW244035   1.423   4.581   0.899  0.5106 -3.1029 -2.3491
13961SOL     OW44036   4.065   1.740   7.712  0.2435 -0.3853  0.0247
13961SOL    HW144037   4.121   1.747   7.634  0.4488 -1.1264  0.0948
13961SOL    HW244038   4.073   1.648   7.739  2.2302  0.3553  2.4123
13962SOL     OW44039   7.929   8.957   1.431  0.2011  0.2430  0.0202
13962SOL    HW144040   7.839   8.969   1.462  0.4685  0.2324  0.8187
13962SOL    HW244041   7.946   8.863   1.439 -0.7669 -0.3139 -3.1248
13963SOL     OW44042   9.215   3.822   2.526 -0.0973 -0.0976 -0.0908
13963SOL    HW144043   9.146   3.854   2.467 -1.1065 -2.1212 -0.0880
13963SOL    HW244044   9.177   3.831   2.614 -0.0091 -0.4148 -0.0199
13964SOL     OW44045   1.015   2.932   0.879  0.1535  0.0143  0.0639
13964SOL    HW144046   0.977   2.873   0.945  0.6845 -0.2265  0.1615
13964SOL    HW244047   0.970   3.015   0.892 -0.4249 -0.2978  0.0950
13965SOL     OW44048   6.141   0.296   3.237 -0.4650 -0.5924 -0.0255
13965SOL    HW144049   6.194   0.312   3.159 -0.0483 -1.4896  0.0568
13965SOL    HW244050   6.153   0.202   3.255  0.6120 -0.1439  1.9439
13966SOL     OW44051   2.725   5.615   3.973 -0.6029 -0.5508  0.2254
13966SOL    HW144052   2.663   5.675   3.931  0.8255  0.3391 -0.7334
13966SOL    HW244053   2.742   5.654   4.058  0.6238  0.7107 -0.5468
13967SOL     OW44054   7.823   5.099   1.124  0.3196  0.0054  0.3659
13967SOL    HW144055   7.897   5.050   1.159 -0.5340 -0.8833  0.9995
13967SOL    HW244056   7.771   5.122   1.201 -0.3512  0.1065 -0.1069
13968SOL     OW44057   2.011   2.277   0.181  0.2184  0.4743  0.0548
13968SOL    HW144058   2.078   2.345   0.190 -1.1937  1.9115  0.0490
13968SOL    HW244059   1.967   2.276   0.266 -1.9550  1.9964 -0.9528
13969SOL     OW44060   7.719   2.435   7.173 -0.3043 -0.5427 -0.4535
13969SOL    HW144061   7.654   2.378   7.214 -0.7818  0.0694 -0.3493
13969SOL    HW244062   7.669   2.492   7.115 -0.0131  0.6785  0.4512
13970SOL     OW44063   1.981   5.455   6.141 -0.4563  0.2004  0.1061
13970SOL    HW144064   2.001   5.548   6.142  1.7641 -0.2101 -0.8709
13970SOL    HW244065   1.967   5.432   6.233 -0.3538  1.3576  0.4159
13971SOL     OW44066   0.688   2.737   4.265  0.1878 -0.0918  0.4750
13971SOL    HW144067   0.741   2.686   4.204  1.7599  2.4681 -0.4226
13971SOL    HW244068   0.722   2.712   4.351 -0.0206 -1.5238  0.1795
13972SOL     OW44069   5.793   4.318   0.876 -0.3317 -0.1576 -0.1047
13972SOL    HW144070   5.879   4.299   0.915 -0.2098 -0.0587 -0.3226
13972SOL    HW244071   5.798   4.410   0.849  0.0423 -0.5533 -1.4912
13973SOL     OW44072   6.357   5.724   2.860  0.0582 -0.3516 -0.1031
13973SOL    HW144073   6.299   5.687   2.927  2.7076 -1.6738  1.6457
13973SOL    HW244074   6.317   5.699   2.777 -2.7559  0.3527  0.9141
13974SOL     OW44075   6.813   8.486   3.928  0.0102 -0.2059  0.2574
13974SOL    HW144076   6.889   8.459   3.876  0.2284  0.4508  0.2247
13974SOL    HW244077   6.824   8.580   3.939 -2.2240  0.4201 -2.0828
13975SOL     OW44078   4.233   0.141   2.007  0.7277  0.1431 -0.4290
13975SOL    HW144079   4.263   0.219   2.052 -4.3802  2.6619 -0.6030
13975SOL    HW244080   4.182   0.093   2.072  0.7364 -1.0752 -1.2694
13976SOL     OW44081   0.794   5.781   8.158  0.3459 -0.3260 -0.5138
13976SOL    HW144082   0.738   5.709   8.189  0.9384 -0.5201  0.1323
13976SOL    HW244083   0.846   5.743   8.087  3.3654 -1.7137  2.1960
13977SOL     OW44084   7.661   4.759   6.231  0.2553 -0.5947  0.0648
13977SOL    HW144085   7.742   4.733   6.275  0.8784  0.6506 -0.2979
13977SOL    HW244086   7.606   4.793   6.301 -0.2687 -2.1161  0.4256
13978SOL     OW44087   7.541   5.076   0.826 -0.1954  0.2759 -0.0954
13978SOL    HW144088   7.636   5.080   0.837 -0.3040  0.4623  0.8975
13978SOL    HW244089   7.507   5.131   0.897 -1.0626 -0.2954 -0.0616
13979SOL     OW44090   6.191   0.393   5.335 -0.0158  0.0945  0.3407
13979SOL    HW144091   6.246   0.459   5.292 -1.3193  0.7502 -0.4113
13979SOL    HW244092   6.119   0.444   5.373 -1.1488 -0.8906 -0.4079
13980SOL     OW44093   5.292   9.364   7.587 -0.3112 -0.7306 -0.0431
13980SOL    HW144094   5.228   9.299   7.616  0.3428 -0.9938  0.8124
13980SOL    HW244095   5.371   9.314   7.569  0.2182 -0.1747  0.6924
13981SOL     OW44096   2.337   1.876   9.539 -0.0082 -0.2923  0.3980
13981SOL    HW144097   2.408   1.859   9.601 -0.4906 -0.5788  0.8837
13981SOL    HW244098   2.380   1.884   9.454  0.4547 -2.0664  0.4326
13982SOL     OW44099   6.978   4.008   7.177 -0.1483  0.2577  0.3147
13982SOL    HW144100   7.070   4.031   7.165  0.2660 -0.7853  1.2691
13982SOL    HW244101   6.932   4.091   7.174  0.9283  0.8893  0.7081
13983SOL     OW44102   9.477   2.582   7.362  0.3697 -0.4497  0.1083
13983SOL    HW144103   9.493   2.593   7.455 -0.5548  1.1255  0.1120
13983SOL    HW244104   9.414   2.511   7.356  2.1233 -2.1068  0.5015
13984SOL     OW44105   3.726   7.525   5.703  0.9549  0.3433 -0.3821
13984SOL    HW144106   3.654   7.500   5.760 -1.3278  4.5816 -0.9770
13984SOL    HW244107   3.801   7.535   5.762  0.5046 -1.7890  0.6518
13985SOL     OW44108   2.511   0.552   8.898 -0.4381  0.0889 -0.0149
13985SOL    HW144109   2.513   0.642   8.866  1.2419  0.3533  0.7396
13985SOL    HW244110   2.578   0.549   8.966 -0.0189 -1.8914 -0.4523
13986SOL     OW44111   2.907   2.319   6.929 -0.2929 -0.4294  0.5485
13986SOL    HW144112   2.878   2.340   7.018  1.5583  0.5167  0.9952
13986SOL    HW244113   2.831   2.336   6.873 -0.8889  0.9460  1.7211
13987SOL     OW44114   2.619   6.788   4.296  0.3811  0.0558  0.1896
13987SOL    HW144115   2.600   6.793   4.203  1.0367 -0.3961  0.0199
13987SOL    HW244116   2.562   6.718   4.329 -1.4815  1.6700  0.5948
13988SOL     OW44117   5.353   6.251   3.553 -0.2702  0.1817 -0.5476
13988SOL    HW144118   5.290   6.317   3.526  1.8423  1.8500 -1.6947
13988SOL    HW244119   5.346   6.247   3.648 -1.7523  0.6377 -0.6251
13989SOL     OW44120   8.874   3.456   1.701  0.3758 -0.2135  0.2997
13989SOL    HW144121   8.879   3.379   1.645 -0.2196  0.4957 -0.7559
13989SOL    HW244122   8.787   3.454   1.739  0.0970  0.3140 -0.2970
13990SOL     OW44123   4.117   9.523   8.456  0.6260  0.6546  0.4324
13990SOL    HW144124   4.141   9.432   8.476 -3.0919 -0.8949 -1.3502
13990SOL    HW244125   4.163   9.542   8.374  1.2743  0.3508  0.7145
13991SOL     OW44126   7.636   9.625   7.842 -0.3901  0.4509  0.1984
13991SOL    HW144127   7.615   9.607   7.750  0.7718 -1.3148  0.2516
13991SOL    HW244128   7.708   9.566   7.863 -1.5908 -0.2617  2.6754
13992SOL     OW44129   4.466   0.623   8.149 -0.9947  0.3025  0.3466
13992SOL    HW144130   4.557   0.652   8.148 -1.5615  2.2070  0.8087
13992SOL    HW244131   4.441   0.623   8.056 -0.4931 -0.4292  0.1968
13993SOL     OW44132   3.264   5.914   9.554  0.8148  0.2245  0.2499
13993SOL    HW144133   3.223   5.906   9.468  2.2704 -1.6407 -0.3309
13993SOL    HW244134   3.277   6.008   9.566 -2.1181  0.8006 -0.1823
13994SOL     OW44135   7.650   7.005   0.379 -0.2935 -0.6290  0.0889
13994SOL    HW144136   7.659   6.970   0.468  0.4754 -2.0633 -0.5171
13994SOL    HW244137   7.683   6.935   0.323 -0.3282  0.4394 -1.3065
13995SOL     OW44138   0.761   9.165   2.940  0.0277 -0.3544  0.0012
13995SOL    HW144139   0.853   9.149   2.923  0.7143  3.2588 -0.4522
13995SOL    HW244140   0.752   9.160   3.035  1.5491  2.3858  0.4112
13996SOL     OW44141   7.445   2.589   0.584 -0.1146  0.0704  0.0069
13996SOL    HW144142   7.372   2.542   0.624 -0.8397  1.5333  0.4466
13996SOL    HW244143   7.490   2.522   0.532  0.1495 -1.5998  2.2537
13997SOL     OW44144   5.783   0.913   3.842  0.0259  0.0265  0.2036
13997SOL    HW144145   5.769   0.877   3.929  0.7598  3.3161  1.8209
13997SOL    HW244146   5.705   0.888   3.793 -1.7117  0.3596  2.6248
13998SOL     OW44147   8.055   6.599   4.187  0.1546  0.1190 -0.4764
13998SOL    HW144148   8.040   6.674   4.129 -0.5617  0.3139 -0.0489
13998SOL    HW244149   7.974   6.548   4.181  1.0383 -1.2303 -1.6303
13999SOL     OW44150   0.484   5.745   7.123 -0.1468 -0.3615 -0.0209
13999SOL    HW144151   0.400   5.705   7.100  0.1271 -2.6579  2.5214
13999SOL    HW244152   0.471   5.777   7.212  0.7265  2.4211 -0.7805
14000SOL     OW44153   4.108   7.289   5.907 -0.0879  0.0118 -0.7605
14000SOL    HW144154   4.045   7.226   5.942 -2.4067  1.9873 -1.1721
14000SOL    HW244155   4.185   7.280   5.964 -0.8283 -2.2270 -0.0237
14001SOL     OW44156   8.972   0.980   6.678  0.2458 -0.1704 -0.6175
14001SOL    HW144157   8.918   1.057   6.692 -0.8872 -1.1165  0.4955
14001SOL    HW244158   8.938   0.941   6.597  0.7004  0.3905 -1.0817
14002SOL     OW44159   5.578   6.769   3.816  0.1204  0.3664  0.0457
14002SOL    HW144160   5.501   6.806   3.859 -1.0454  1.3106 -2.6342
14002SOL    HW244161   5.545   6.696   3.765  0.9451  0.8789 -1.2716
14003SOL     OW44162   3.611   4.472   2.837  0.1284 -0.4872 -0.2968
14003SOL    HW144163   3.543   4.451   2.901 -0.0731 -1.1728 -0.7245
14003SOL    HW244164   3.679   4.517   2.887 -0.4475 -0.1780  0.2146
14004SOL     OW44165   3.126   1.371   4.992 -0.0577 -0.2012 -0.5335
14004SOL    HW144166   3.210   1.365   5.038  0.4740 -0.0120 -1.4687
14004SOL    HW244167   3.066   1.405   5.058  0.5618 -0.4525  0.1851
14005SOL     OW44168   2.240   1.495   9.291 -0.1400  0.2537 -0.2694
14005SOL    HW144169   2.207   1.585   9.302  1.8947  0.8651  1.4681
14005SOL    HW244170   2.246   1.483   9.196 -0.5910  1.9062 -0.5373
14006SOL     OW44171   0.152   6.464   2.709  0.5853 -0.2317  0.6951
14006SOL    HW144172   0.146   6.522   2.785 -0.4097  0.4324  0.1279
14006SOL    HW244173   0.235   6.487   2.668 -0.7960  2.5223 -0.8434
14007SOL     OW44174   6.700   3.509   9.258 -0.2873 -0.3508  0.0027
14007SOL    HW144175   6.683   3.529   9.350 -1.7870 -2.2445  0.2266
14007SOL    HW244176   6.613   3.507   9.219  0.3005 -0.0665 -1.3484
14008SOL     OW44177   0.509   0.688   3.092  0.1737 -0.2056 -0.0600
14008SOL    HW144178   0.427   0.669   3.048  0.6990 -0.6062 -0.8992
14008SOL    HW244179   0.511   0.626   3.165 -0.7390  0.5196  0.6005
14009SOL     OW44180   9.214   1.925   3.628  0.0506  0.4882 -0.1845
14009SOL    HW144181   9.149   1.984   3.669  0.1685 -1.0174  2.4086
14009SOL    HW244182   9.229   1.858   3.694  0.1763 -2.3204 -2.8649
14010SOL     OW44183   4.483   0.000   1.022  0.1821  0.0990 -0.5906
14010SOL    HW144184   4.423   0.073   1.006  0.2285  0.4739  0.8145
14010SOL    HW244185   4.465  -0.062   0.952 -0.7816  0.8830 -1.0574
14011SOL     OW44186   4.694   1.406   5.956  0.0913  0.4587 -0.3077
14011SOL    HW144187   4.680   1.499   5.935  0.8710  0.4305 -0.9706
14011SOL    HW244188   4.772   1.382   5.907 -0.3055 -0.6505 -0.4094
14012SOL     OW44189   0.525   8.152   6.514  0.1094  0.2419 -0.5468
14012SOL    HW144190   0.454   8.092   6.491 -0.7090  1.5137 -1.4435
14012SOL    HW244191   0.483   8.221   6.565  0.6552  1.1015 -1.2215
14013SOL     OW44192   2.761   4.972   6.835 -0.7876  0.1361 -0.7512
14013SOL    HW144193   2.729   4.911   6.902  0.1416  0.4616  0.0046
14013SOL    HW244194   2.683   5.018   6.806 -1.3801 -0.8083 -0.7190
14014SOL     OW44195   0.479   9.059   2.096  0.0419  0.5723  0.4140
14014SOL    HW144196   0.468   9.061   2.191 -0.6154  0.4599  0.3437
14014SOL    HW244197   0.492   9.150   2.072 -0.9407  0.7479  0.4916
14015SOL     OW44198   1.698   6.298   0.679 -0.2275 -0.2953 -0.4968
14015SOL    HW144199   1.679   6.210   0.646 -1.2703  0.5770 -2.3646
14015SOL    HW244200   1.658   6.357   0.615 -0.1330  1.5532  1.0543
14016SOL     OW44201   1.036   7.550   3.692 -0.6925  0.0595 -0.7574
14016SOL    HW144202   0.949   7.509   3.692  0.0188 -1.5472 -0.8177
14016SOL    HW244203   1.023   7.636   3.730 -2.2589 -0.2867 -0.4566
14017SOL     OW44204   2.222   3.412   1.431 -0.3382  0.1015  0.7666
14017SOL    HW144205   2.179   3.342   1.382 -0.8645  0.7565  0.2629
14017SOL    HW244206   2.234   3.482   1.367 -0.8995  0.9156  1.5242
14018SOL     OW44207   6.661   6.888   7.424 -0.2317  0.4280  0.0599
14018SOL    HW144208   6.620   6.884   7.510 -1.3045 -1.8809 -0.4919
14018SOL    HW244209   6.589   6.909   7.364  0.2007  0.4894 -0.4458
14019SOL     OW44210   3.785   5.190   8.116 -0.5598 -0.6105 -0.4602
14019SOL    HW144211   3.745   5.238   8.044 -2.8982 -0.8241  0.5834
14019SOL    HW244212   3.860   5.244   8.143 -0.8373  0.4658 -1.7518
14020SOL     OW44213   6.071   3.413   7.732  0.7336 -0.4972  0.3125
14020SOL    HW144214   6.050   3.340   7.672  2.9739 -0.2187 -0.9229
14020SOL    HW244215   6.079   3.371   7.818  1.5385 -1.6803 -0.2964
14021SOL     OW44216   4.714   5.988   2.247  0.5797 -0.0438  0.3151
14021SOL    HW144217   4.623   6.015   2.233 -0.2011 -2.0578  1.0927
14021SOL    HW244218   4.729   5.920   2.181  0.6133 -1.5523  1.8060
14022SOL     OW44219   7.642   4.785   6.946 -0.5097 -0.4168 -0.5184
14022SOL    HW144220   7.564   4.808   6.996  0.0043 -0.1632  0.1867
14022SOL    HW244221   7.686   4.719   7.000 -0.8293 -1.4371 -1.4719
14023SOL     OW44222   3.740   6.967   6.188 -0.3174 -0.3039  0.3405
14023SOL    HW144223   3.647   6.955   6.169  0.2900 -0.9418 -2.9017
14023SOL    HW244224   3.775   6.878   6.197 -0.2788 -0.0523  3.6269
14024SOL     OW44225   8.129   6.697   8.312 -0.1312  0.4073 -0.5545
14024SOL    HW144226   8.053   6.678   8.256 -1.1376 -1.7145  1.3696
14024SOL    HW244227   8.196   6.636   8.281 -0.4994 -0.3664  0.1343
14025SOL     OW44228   4.891   7.786   2.633 -0.0389 -0.1362 -0.2116
14025SOL    HW144229   4.975   7.756   2.600  0.0658 -0.0473 -0.0303
14025SOL    HW244230   4.912   7.863   2.686 -0.1177 -0.6357  0.5770
14026SOL     OW44231   2.487   8.984   3.295 -0.0773  0.2645  0.2009
14026SOL    HW144232   2.395   8.988   3.272  0.0399 -0.7499 -0.5090
14026SOL    HW244233   2.528   9.054   3.245  0.0185 -1.2991 -2.0596
14027SOL     OW44234   1.325   8.980   3.009  0.5800  0.0601  0.1924
14027SOL    HW144235   1.347   9.027   3.089  1.1911 -0.6859  0.4680
14027SOL    HW244236   1.393   8.914   2.999 -0.0524 -0.5338 -0.3878
14028SOL     OW44237   8.897   0.349   5.882  0.0625 -0.2194 -0.7007
14028SOL    HW144238   8.893   0.443   5.863  0.5059 -0.3545 -1.5229
14028SOL    HW244239   8.815   0.330   5.926 -0.3947  0.3998 -1.2639
14029SOL     OW44240   0.160   6.826   5.759 -0.1088 -0.8717  0.0541
14029SOL    HW144241   0.207   6.743   5.749  2.0670  0.2410  0.3463
14029SOL    HW244242   0.180   6.875   5.679  0.8862  0.3615  0.9974
14030SOL     OW44243   2.425   0.934   1.787  0.1122 -0.2300 -0.0229
14030SOL    HW144244   2.355   0.976   1.838 -1.7744 -1.8197 -1.1786
14030SOL    HW244245   2.390   0.848   1.766  2.4408 -1.0590 -0.7203
14031SOL     OW44246   8.063   2.861   8.552 -0.0016  0.7241  0.1932
14031SOL    HW144247   8.106   2.791   8.601  0.9744  0.5795 -0.8306
14031SOL    HW244248   7.993   2.891   8.610 -2.9601 -3.6063 -0.6248
14032SOL     OW44249   3.594   6.304   0.029  0.1691  0.6745 -0.1210
14032SOL    HW144250   3.654   6.317   0.103 -0.9651  1.9631  0.6312
14032SOL    HW244251   3.619   6.220  -0.008  2.4709  1.1900  0.1156
14033SOL     OW44252   3.825   8.543   1.228 -0.1380 -0.5260  0.2034
14033SOL    HW144253   3.800   8.454   1.203 -1.7375  0.2237 -1.0567
14033SOL    HW244254   3.746   8.579   1.270  1.2915 -0.5029  3.1325
14034SOL     OW44255   6.113   9.510   9.347  0.3249  0.3021  0.0872
14034SOL    HW144256   6.126   9.485   9.438 -2.7206 -0.7833  0.3471
14034SOL    HW244257   6.070   9.595   9.351  2.0156  1.2293 -0.4764
14035SOL     OW44258   0.655   7.109   9.586  0.5595  0.1880 -0.0876
14035SOL    HW144259   0.567   7.087   9.556  0.3721 -0.6903  1.0268
14035SOL    HW244260   0.692   7.162   9.515  0.0064 -1.4184 -1.6380
14036SOL     OW44261   6.293   1.058   1.470  0.3459  0.1819 -0.1735
14036SOL    HW144262   6.280   1.125   1.404 -1.1916 -1.5324 -1.7170
14036SOL    HW244263   6.205   1.029   1.494  0.9458 -1.2825  0.4358
14037SOL     OW44264   7.708   5.112   6.749  0.3257 -0.0955  0.1268
14037SOL    HW144265   7.680   5.021   6.734  1.1584 -0.2569 -0.4854
14037SOL    HW244266   7.794   5.118   6.709 -0.1003  1.2312 -0.6440
14038SOL     OW44267   7.437   4.263   9.123 -0.6235  0.6759  0.5934
14038SOL    HW144268   7.443   4.212   9.203 -1.2457  0.2441  0.3665
14038SOL    HW244269   7.440   4.354   9.152 -0.6406  0.5193  1.0847
14039SOL     OW44270   5.223   4.219   2.170  0.3141 -0.0966 -0.6486
14039SOL    HW144271   5.300   4.180   2.130  1.9826  1.3702  0.9427
14039SOL    HW244272   5.208   4.300   2.122  2.0039  1.4024  1.1836
14040SOL     OW44273   0.461   1.634   0.207  0.5355 -0.1049 -0.6803
14040SOL    HW144274   0.370   1.610   0.190 -0.6569  1.9538  1.9636
14040SOL    HW244275   0.472   1.718   0.161  1.1082 -0.3454 -0.9871
14041SOL     OW44276   2.734   1.905   7.025 -0.0352 -0.3776  0.6185
14041SOL    HW144277   2.734   1.906   7.121 -0.8882  0.1598  0.6229
14041SOL    HW244278   2.654   1.857   7.002 -1.4445  2.0358  0.1883
14042SOL     OW44279   1.238   2.765   1.802  0.2664  0.4926 -0.1520
14042SOL    HW144280   1.165   2.773   1.864  1.4862  0.5701  1.3241
14042SOL    HW244281   1.241   2.850   1.758 -0.1004  0.7358  0.2812
14043SOL     OW44282   5.886   2.975   0.693  0.2461 -0.4506  0.3888
14043SOL    HW144283   5.888   2.986   0.788 -1.0429 -2.1882  0.6692
14043SOL    HW244284   5.971   3.007   0.664  1.9685 -2.7172  2.4952
14044SOL     OW44285   6.884   5.965   4.145  0.0475  0.4881 -0.0832
14044SOL    HW144286   6.812   5.908   4.171 -1.3563  2.0953 -0.2737
14044SOL    HW244287   6.901   5.941   4.054  0.8280 -0.9349  0.4014
14045SOL     OW44288   3.143   6.712   0.279 -0.0159  0.0596  0.0168
14045SOL    HW144289   3.236   6.734   0.288  0.3971 -2.0702  2.0799
14045SOL    HW244290   3.125   6.722   0.186  1.0851  4.5236  0.0395
14046SOL     OW44291   2.699   6.531   3.428  0.6318  0.0623  0.0246
14046SOL    HW144292   2.659   6.611   3.394  1.2711 -0.4913 -2.2147
14046SOL    HW244293   2.791   6.553   3.441  0.9032 -0.4012 -1.0213
14047SOL     OW44294   9.316   8.737   6.601  0.2096 -0.0530 -0.3036
14047SOL    HW144295   9.340   8.797   6.530 -2.3674 -1.0607 -2.1953
14047SOL    HW244296   9.271   8.664   6.557  1.6329 -2.5374  2.0766
14048SOL     OW44297   2.847   8.842   4.035  0.6967 -0.3605  0.8957
14048SOL    HW144298   2.804   8.759   4.012 -0.3144  0.2513  0.5179
14048SOL    HW244299   2.786   8.886   4.094  0.1815  1.0774 -0.6241
14049SOL     OW44300   9.349   4.159   1.273 -0.2419 -0.3081 -0.2502
14049SOL    HW144301   9.413   4.110   1.326 -0.2549 -0.1829 -0.1180
14049SOL    HW244302   9.380   4.150   1.183 -0.4747 -0.9156 -0.2727
14050SOL     OW44303   5.128   6.362   1.905 -0.2066 -0.3167 -0.3935
14050SOL    HW144304   5.038   6.334   1.924 -0.3426  0.4415  0.1595
14050SOL    HW244305   5.180   6.330   1.978 -0.0495 -0.6319 -0.6414
14051SOL     OW44306   2.698   4.268   2.789  0.4584  0.1746  0.4695
14051SOL    HW144307   2.793   4.269   2.795  0.5008  2.6563  0.7138
14051SOL    HW244308   2.668   4.249   2.878  0.7654  0.6600  0.6818
14052SOL     OW44309   9.200   6.103   0.888  1.0909 -0.5877 -0.1196
14052SOL    HW144310   9.162   6.018   0.909  1.6346 -0.3653  1.9577
14052SOL    HW244311   9.158   6.128   0.806 -2.5628 -0.7918  1.4839
14053SOL     OW44312   5.498   0.869   6.487  0.1478 -0.8624 -0.0049
14053SOL    HW144313   5.496   0.858   6.582 -0.9462  0.2062  0.1099
14053SOL    HW244314   5.565   0.937   6.472 -0.1256 -0.5812  0.0492
14054SOL     OW44315   6.486   8.978   4.037 -0.7021  0.1608  0.0531
14054SOL    HW144316   6.556   9.006   3.977  1.1134  0.2163  2.0544
14054SOL    HW244317   6.429   9.054   4.045  0.2685  0.9103  0.0564
14055SOL     OW44318   5.563   1.718   0.476  0.2024  0.1031 -0.1855
14055SOL    HW144319   5.568   1.625   0.457  1.7992  0.1021  0.0831
14055SOL    HW244320   5.617   1.730   0.555 -0.3513  1.1880  0.0606
14056SOL     OW44321   3.357   8.504   5.394  0.5021  0.3142  0.2990
14056SOL    HW144322   3.353   8.509   5.489 -0.5726  1.1354  0.2353
14056SOL    HW244323   3.377   8.593   5.366  0.2752  0.1964 -0.2573
14057SOL     OW44324   1.253   4.332   2.541 -0.1188  0.0789 -0.2965
14057SOL    HW144325   1.164   4.297   2.530 -0.1329 -0.1799  0.5940
14057SOL    HW244326   1.276   4.365   2.454 -1.7258  1.6657 -0.1826
14058SOL     OW44327   8.257   2.626   7.501  0.5489 -0.3290 -0.0826
14058SOL    HW144328   8.180   2.622   7.558  1.7119  0.9399  1.6915
14058SOL    HW244329   8.321   2.569   7.544  2.3337  2.5678  1.4866
14059SOL     OW44330   6.956   5.843   2.832 -1.0340 -0.1223 -0.0687
14059SOL    HW144331   7.007   5.922   2.816  0.5596 -0.8155  1.2131
14059SOL    HW244332   7.016   5.771   2.809 -2.7154 -1.0051 -2.0067
14060SOL     OW44333   4.275   5.410   2.231  0.1760  0.4669  0.2651
14060SOL    HW144334   4.179   5.419   2.237  0.1902 -0.1521  2.7276
14060SOL    HW244335   4.289   5.350   2.158 -1.1378  2.4039 -1.7093
14061SOL     OW44336   0.868   7.039   5.003 -0.1731  0.2106 -0.2736
14061SOL    HW144337   0.875   7.025   4.908  0.4164  1.6608 -0.4682
14061SOL    HW244338   0.919   6.968   5.041  0.8863  0.4872 -1.1156
14062SOL     OW44339   9.321   6.712   4.256 -0.0469  0.4419 -0.3249
14062SOL    HW144340   9.284   6.693   4.170 -0.4112  1.6041 -0.4359
14062SOL    HW244341   9.298   6.803   4.273  1.5104  0.7635  0.2468
14063SOL     OW44342   7.864   2.183   3.970 -0.1546 -0.1412 -0.0216
14063SOL    HW144343   7.847   2.089   3.972  1.4000 -0.4369  1.0658
14063SOL    HW244344   7.959   2.190   3.961 -0.3234  1.3539 -1.0342
14064SOL     OW44345   0.161   5.149   6.829  0.0605  0.1822 -0.0370
14064SOL    HW144346   0.199   5.230   6.794 -0.0873 -0.3310 -1.4696
14064SOL    HW244347   0.220   5.123   6.900  0.8825  0.8226 -0.4722
14065SOL     OW44348   4.839   6.133   8.715 -0.2203  0.1052 -0.3296
14065SOL    HW144349   4.787   6.197   8.764 -1.7121 -1.5873  0.4206
14065SOL    HW244350   4.823   6.155   8.623  1.1734  2.1910 -0.1631
14066SOL     OW44351   0.311   1.507   0.902  0.1078 -0.2952  0.0539
14066SOL    HW144352   0.396   1.478   0.869  0.7985  1.9110 -0.2102
14066SOL    HW244353   0.248   1.468   0.842  0.8852 -2.0222  0.2919
14067SOL     OW44354   8.363   5.051   0.356  0.2254 -0.1506 -0.2198
14067SOL    HW144355   8.426   5.028   0.425 -0.6722 -2.4119 -0.0913
14067SOL    HW244356   8.278   5.024   0.390 -0.6068  1.1219 -1.1683
14068SOL     OW44357   2.240   3.570   1.210  0.0574 -0.5085  0.2789
14068SOL    HW144358   2.229   3.555   1.116 -0.4512 -0.1977  0.2826
14068SOL    HW244359   2.319   3.623   1.217 -0.7276  0.7394 -0.0967
14069SOL     OW44360   1.237   6.031   3.319 -0.4899  0.0682  0.2355
14069SOL    HW144361   1.305   6.021   3.253 -1.8298 -1.2138 -1.0238
14069SOL    HW244362   1.284   6.054   3.399  1.3478 -0.2357 -0.7113
14070SOL     OW44363   1.003   5.083   0.999 -0.0148 -0.5965 -0.0823
14070SOL    HW144364   1.004   5.011   1.062 -0.5633 -1.3725 -0.9354
14070SOL    HW244365   1.046   5.047   0.921 -0.0629  0.0880 -0.4331
14071SOL     OW44366   9.033   1.954   1.566 -0.0648 -0.4069 -0.0906
14071SOL    HW144367   9.114   1.959   1.618 -0.0643  2.3554 -0.2093
14071SOL    HW244368   9.063   1.927   1.479  0.5619 -0.5988  0.1765
14072SOL     OW44369   5.753   4.904   0.361  0.7948 -0.1524  0.1022
14072SOL    HW144370   5.684   4.853   0.402 -0.8017  0.6858 -1.3924
14072SOL    HW244371   5.714   4.935   0.279  2.5933  1.2526 -0.2840
14073SOL     OW44372   8.603   6.839   5.535 -0.0708  0.4453  0.1915
14073SOL    HW144373   8.698   6.833   5.535 -0.0324  0.7301 -0.8953
14073SOL    HW244374   8.580   6.877   5.620  0.8258  0.9745  0.2028
14074SOL     OW44375   1.877   1.903   5.091  0.5923  0.1082  0.5264
14074SOL    HW144376   1.865   1.819   5.047  1.3984 -0.1973  0.8733
14074SOL    HW244377   1.790   1.924   5.126 -0.3079  0.7925 -1.8960
14075SOL     OW44378   0.390   6.871   6.316 -0.0548  0.0411 -0.9779
14075SOL    HW144379   0.378   6.867   6.410  0.4205  2.3807 -0.7389
14075SOL    HW244380   0.485   6.864   6.303 -0.0960 -0.0393 -1.2408
14076SOL     OW44381   8.707   9.503   5.494  0.2099 -0.4024  0.0824
14076SOL    HW144382   8.739   9.521   5.582  1.5505  2.2500 -0.8552
14076SOL    HW244383   8.613   9.491   5.504  0.4525 -0.9575  1.9566
14077SOL     OW44384   7.984   8.269   6.219  0.1466 -0.1349  0.1575
14077SOL    HW144385   8.019   8.290   6.133 -1.5047  0.7906 -0.3500
14077SOL    HW244386   7.930   8.345   6.242 -1.6190 -1.4927  0.7740
14078SOL     OW44387   6.890   9.028   0.886 -0.4305 -0.1040  0.1764
14078SOL    HW144388   6.794   9.025   0.885 -0.4687  0.9446  0.0653
14078SOL    HW244389   6.915   9.002   0.797 -0.6663  0.7800 -0.1636
14079SOL     OW44390   7.247   7.139   2.441  0.5443 -0.5762 -0.2120
14079SOL    HW144391   7.189   7.071   2.474 -0.8093  1.3530  1.6541
14079SOL    HW244392   7.328   7.128   2.490  0.5222 -1.1513 -0.3036
14080SOL     OW44393   3.355   1.742   9.217 -0.5259 -0.4840 -0.1330
14080SOL    HW144394   3.430   1.777   9.265 -0.8764  1.4514 -0.9327
14080SOL    HW244395   3.295   1.712   9.286  0.0380 -0.0466  0.5676
14081SOL     OW44396   3.581   9.409   7.685  0.3887 -0.1493 -0.2670
14081SOL    HW144397   3.536   9.361   7.616 -0.7216  1.4993 -0.7410
14081SOL    HW244398   3.668   9.426   7.649  0.5635 -1.1510 -0.3650
14082SOL     OW44399   1.851   9.631   7.962 -0.2730  0.2714  0.3455
14082SOL    HW144400   1.897   9.559   7.920  0.0160  0.4387  0.3693
14082SOL    HW244401   1.788   9.661   7.897 -0.8097 -0.3895  0.5532
14083SOL     OW44402   3.659   3.365   6.734 -0.0303  0.3145  0.4851
14083SOL    HW144403   3.631   3.274   6.738 -2.9910  1.1026  0.1640
14083SOL    HW244404   3.687   3.385   6.824  3.0141 -1.4394  0.0849
14084SOL     OW44405   6.564   3.388   4.427  0.6922  0.1006  0.1182
14084SOL    HW144406   6.619   3.438   4.487 -0.7305  0.9810  0.7589
14084SOL    HW244407   6.561   3.441   4.347  1.3873 -0.3289 -0.1937
14085SOL     OW44408   1.199   7.210   0.343  0.7709  0.5166  0.6672
14085SOL    HW144409   1.166   7.162   0.418  1.8880 -0.1468  0.7674
14085SOL    HW244410   1.132   7.275   0.323  0.4154  0.6366  2.1727
14086SOL     OW44411   3.511   3.242   7.891 -0.6152 -0.0037 -0.1056
14086SOL    HW144412   3.438   3.180   7.885  0.7489 -1.6162 -0.8213
14086SOL    HW244413   3.574   3.198   7.949 -0.0857  1.2309  0.2736
14087SOL     OW44414   8.325   5.915   5.422  0.0235  0.0435 -0.5585
14087SOL    HW144415   8.320   6.010   5.416  0.1571 -0.0391 -3.4914
14087SOL    HW244416   8.238   5.888   5.452 -0.1659  1.0549 -0.1675
14088SOL     OW44417   1.172   3.896   2.216  0.4446 -0.1932  0.4675
14088SOL    HW144418   1.188   3.977   2.264  3.9518 -0.2453 -0.3455
14088SOL    HW244419   1.119   3.922   2.141  0.9263  1.2293  0.6029
14089SOL     OW44420   7.574   4.433   9.345  0.0268  0.0509  0.1260
14089SOL    HW144421   7.602   4.524   9.354 -1.2807  0.5834 -0.9046
14089SOL    HW244422   7.510   4.421   9.416  1.6465 -0.7201  1.5430
14090SOL     OW44423   0.812   1.140   5.356  0.5081 -0.0373 -0.5229
14090SOL    HW144424   0.888   1.147   5.299  0.5858 -1.2898 -0.6000
14090SOL    HW244425   0.738   1.129   5.295  0.6619 -1.9867 -0.4146
14091SOL     OW44426   6.855   4.870   5.356 -0.0022 -0.1968  0.5126
14091SOL    HW144427   6.797   4.832   5.290  0.9254 -2.2065  0.7825
14091SOL    HW244428   6.943   4.855   5.322  0.4400  1.7660  0.6684
14092SOL     OW44429   2.112   2.319   2.094 -0.6006  0.0559 -0.0117
14092SOL    HW144430   2.160   2.305   2.012  1.4161  0.7888  0.9755
14092SOL    HW244431   2.033   2.366   2.068 -0.3465 -0.3313 -1.5984
14093SOL     OW44432   6.239   1.307   4.742  0.3786 -0.4404 -0.0035
14093SOL    HW144433   6.273   1.359   4.815 -1.3464  0.3831  0.2508
14093SOL    HW244434   6.167   1.257   4.780 -1.2344  0.7820 -1.3024
14094SOL     OW44435   8.536   4.897   8.873 -0.2891 -0.4258 -0.0540
14094SOL    HW144436   8.447   4.901   8.910 -0.1496 -0.9676  0.3596
14094SOL    HW244437   8.530   4.947   8.792 -0.8042  0.1260  0.3082
14095SOL     OW44438   5.211   4.034   1.797  0.4716  0.4975  1.0621
14095SOL    HW144439   5.258   3.985   1.729  0.6402  0.4215  1.2319
14095SOL    HW244440   5.240   3.994   1.879  0.0537  0.3997  1.1674
14096SOL     OW44441   6.230   9.269   7.965  0.0955 -0.5568  0.6000
14096SOL    HW144442   6.224   9.296   7.873  0.2623 -2.4016 -0.0071
14096SOL    HW244443   6.320   9.239   7.975 -0.1183 -1.0275  1.1639
14097SOL     OW44444   7.759   4.283   8.636 -0.5087  0.2432  0.0057
14097SOL    HW144445   7.694   4.241   8.693  0.3995 -2.7189 -0.9727
14097SOL    HW244446   7.716   4.287   8.550  0.6780 -2.4365 -0.8388
14098SOL     OW44447   0.954   2.020   1.922 -0.2281 -0.6009 -0.0258
14098SOL    HW144448   0.974   2.027   1.829  0.2298 -0.6429  0.0651
14098SOL    HW244449   0.860   2.007   1.926 -0.0633 -2.2469 -0.5727
14099SOL     OW44450   4.845   1.887   6.783 -0.2465  0.1416 -0.0418
14099SOL    HW144451   4.933   1.858   6.759  1.5152  4.6090  0.1039
14099SOL    HW244452   4.787   1.842   6.721  2.2737 -1.6980 -1.2407
14100SOL     OW44453   0.306   8.802   6.471 -0.3871  0.4583 -0.2566
14100SOL    HW144454   0.262   8.869   6.524 -0.2254  0.4090 -0.0556
14100SOL    HW244455   0.366   8.851   6.415  0.8005  0.4005  0.9144
14101SOL     OW44456   5.754   9.316   1.943 -0.1167 -0.2806  0.1797
14101SOL    HW144457   5.691   9.245   1.931 -0.0286 -0.7827  2.2804
14101SOL    HW244458   5.821   9.279   2.001  1.2647  0.7506 -0.6978
14102SOL     OW44459   4.178   7.536   4.966  0.3066  0.4620 -0.1640
14102SOL    HW144460   4.246   7.557   5.030  1.0264 -3.0652  0.4307
14102SOL    HW244461   4.103   7.508   5.018  0.3802 -1.0084 -0.8136
14103SOL     OW44462   7.334   8.774   4.492  0.5052 -0.3266 -0.1635
14103SOL    HW144463   7.322   8.717   4.416  1.9663 -0.0877 -0.6113
14103SOL    HW244464   7.368   8.716   4.560 -2.2273 -0.8660  0.8821
14104SOL     OW44465   4.418   9.157   2.184  0.4268  0.0995  0.7122
14104SOL    HW144466   4.436   9.134   2.093  1.3326  0.0100  0.9092
14104SOL    HW244467   4.477   9.230   2.202  0.3410  0.0327  1.2736
14105SOL     OW44468   7.235   4.312   6.375 -0.0739 -0.2453  0.1797
14105SOL    HW144469   7.227   4.324   6.469  1.1719  1.9492  0.0942
14105SOL    HW244470   7.268   4.397   6.343  0.5192 -1.2491 -2.0899
14106SOL     OW44471   6.118   3.250   8.346 -0.5017 -0.4995  0.3563
14106SOL    HW144472   6.100   3.158   8.366 -2.1961 -0.1722  0.5199
14106SOL    HW244473   6.207   3.250   8.311 -0.0981 -2.0538  1.2908
14107SOL     OW44474   9.485   3.345   5.896 -0.8258 -0.0923 -0.0224
14107SOL    HW144475   9.464   3.333   5.989 -0.6670 -1.1303 -0.1150
14107SOL    HW244476   9.429   3.282   5.850 -1.1986  0.6949 -0.6759
14108SOL     OW44477   1.785   7.252   0.221  0.4370  0.0861  0.0386
14108SOL    HW144478   1.766   7.342   0.247 -1.6437 -0.5481  0.9296
14108SOL    HW244479   1.881   7.246   0.224  0.6772  2.4338 -0.7350
14109SOL     OW44480   7.767   6.883   4.729 -0.2360  0.4484 -0.9505
14109SOL    HW144481   7.751   6.824   4.655 -2.1800 -2.1323  1.2959
14109SOL    HW244482   7.704   6.954   4.718 -0.4274  0.1488 -1.8367
14110SOL     OW44483   4.167   9.384   5.224  0.2451  0.7410  0.1476
14110SOL    HW144484   4.125   9.391   5.139  1.4068 -0.0899 -0.5236
14110SOL    HW244485   4.238   9.448   5.221  2.2458 -1.3854 -0.7558
14111SOL     OW44486   7.606   6.025   5.257  0.1828  0.6837 -0.5472
14111SOL    HW144487   7.580   5.940   5.223  1.0947 -0.1961  0.8418
14111SOL    HW244488   7.525   6.076   5.259 -0.7781 -0.7997  0.4050
14112SOL     OW44489   5.174   7.361   7.894  0.1675  0.2478 -0.0185
14112SOL    HW144490   5.151   7.400   7.978  1.3463  0.9970 -0.0215
14112SOL    HW244491   5.098   7.376   7.839 -0.5455 -0.0767  0.8420
14113SOL     OW44492   1.971   6.842   3.053  0.1685  0.1428 -0.1723
14113SOL    HW144493   2.009   6.802   2.974 -2.0279 -0.3775 -1.0341
14113SOL    HW244494   1.969   6.935   3.034 -3.7368 -0.2230 -2.4590
14114SOL     OW44495   4.631   0.762   9.426  0.1988 -0.4576  0.3895
14114SOL    HW144496   4.592   0.783   9.342  0.2661 -0.7721  0.2775
14114SOL    HW244497   4.559   0.771   9.489 -0.3904 -2.2395  0.0294
14115SOL     OW44498   5.987   1.214   5.409 -0.0381 -0.0539  0.2529
14115SOL    HW144499   6.051   1.182   5.473  0.4650  0.1130 -0.1570
14115SOL    HW244500   6.007   1.164   5.329 -0.9097 -0.5364  0.3314
14116SOL     OW44501   0.041   2.552   6.192 -0.1149 -0.0469 -0.2507
14116SOL    HW144502  -0.035   2.495   6.201 -0.7743  0.7418 -0.7081
14116SOL    HW244503   0.006   2.641   6.194  0.6813  0.3222 -1.3424
14117SOL     OW44504   8.071   1.031   3.548 -0.3518 -0.0507 -0.0506
14117SOL    HW144505   8.021   1.043   3.468 -1.5248 -1.5236  0.4084
14117SOL    HW244506   8.156   0.999   3.519  0.2127  1.9397 -0.8067
14118SOL     OW44507   2.440   9.061   1.878  0.1230 -0.5729 -0.1572
14118SOL    HW144508   2.441   9.121   1.804 -0.0473 -2.8972 -2.1895
14118SOL    HW244509   2.528   9.024   1.880  0.6146  0.5653  1.8646
14119SOL     OW44510   5.067   2.127   7.123 -0.3595 -0.4486  0.1705
14119SOL    HW144511   5.149   2.080   7.137  1.8189  2.0921 -2.5568
14119SOL    HW244512   5.065   2.193   7.192  1.0058  0.6921 -0.8116
14120SOL     OW44513   7.922   9.437   3.974 -0.0272  0.0125 -0.6057
14120SOL    HW144514   7.849   9.483   4.015 -1.9448 -1.2672 -2.3788
14120SOL    HW244515   7.891   9.348   3.962  1.8007 -0.5517 -1.5210
14121SOL     OW44516   7.384   0.687   4.570 -0.0976  0.1216 -0.2182
14121SOL    HW144517   7.372   0.711   4.479 -1.0288 -1.1686 -0.4678
14121SOL    HW244518   7.478   0.695   4.586 -0.1864  2.5912 -0.6037
14122SOL     OW44519   7.591   7.098   5.442  0.1990  0.0806  0.7290
14122SOL    HW144520   7.624   7.089   5.531 -1.1217  0.5487  1.3034
14122SOL    HW244521   7.507   7.051   5.443 -0.8210  1.8043  0.3361
14123SOL     OW44522   3.368   7.742   9.488  0.9426  0.2862  0.2971
14123SOL    HW144523   3.426   7.802   9.533 -0.5078  0.9692  1.3244
14123SOL    HW244524   3.337   7.791   9.411  0.4511  0.5369  0.6511
14124SOL     OW44525   5.881   4.768   4.747  0.0035 -0.0035  0.0717
14124SOL    HW144526   5.876   4.754   4.652  1.6969  0.4302 -0.1224
14124SOL    HW244527   5.953   4.711   4.775 -1.1961 -0.9584  1.2908
14125SOL     OW44528   6.292   9.341   1.520  0.4712 -0.0686  0.2442
14125SOL    HW144529   6.291   9.429   1.482 -1.0409 -0.1472  0.0222
14125SOL    HW244530   6.214   9.299   1.484 -0.2804 -0.6145  2.3625
14126SOL     OW44531   3.995   9.401   3.789 -0.2680  0.3030 -0.4391
14126SOL    HW144532   4.059   9.344   3.748 -1.0536 -0.1444 -1.0747
14126SOL    HW244533   3.943   9.343   3.845 -0.7858  0.4693 -0.7400
14127SOL     OW44534   6.392   0.001   2.208  0.8019  0.0245  0.3732
14127SOL    HW144535   6.461  -0.020   2.272 -0.3412 -2.1153  0.9939
14127SOL    HW244536   6.338   0.066   2.253  2.5581  2.0746 -0.2872
14128SOL     OW44537   0.107   5.883   4.029  0.2738  0.2301  0.1267
14128SOL    HW144538   0.130   5.862   3.938 -1.5376 -0.8183 -0.1361
14128SOL    HW244539   0.174   5.840   4.081  0.5957 -0.2625 -0.6783
14129SOL     OW44540   4.965   9.564   8.449 -0.1560 -0.2606 -0.1478
14129SOL    HW144541   4.967   9.619   8.370 -0.8734 -1.9730 -1.4223
14129SOL    HW244542   5.056   9.542   8.465  0.0390  0.4503 -0.2431
14130SOL     OW44543   2.330   0.262   1.308  0.4268 -0.1634 -0.3523
14130SOL    HW144544   2.371   0.201   1.246 -0.2728  0.9734 -2.0095
14130SOL    HW244545   2.390   0.337   1.310  0.5683 -0.2984  0.5502
14131SOL     OW44546   5.732   4.441   2.904 -0.0056 -0.3755  0.4417
14131SOL    HW144547   5.815   4.484   2.883 -0.6630  2.0543  2.2842
14131SOL    HW244548   5.736   4.427   2.999 -1.8878  0.3250  0.6647
14132SOL     OW44549   2.291   5.801   1.162  0.3133  0.1984  0.4534
14132SOL    HW144550   2.245   5.729   1.119  0.9395 -0.1882  0.4163
14132SOL    HW244551   2.368   5.817   1.107  1.0394 -0.1956  1.3231
14133SOL     OW44552   9.500   1.550   5.721  0.2885  0.2454  0.1407
14133SOL    HW144553   9.460   1.468   5.748 -1.0557  0.0672 -2.1932
14133SOL    HW244554   9.486   1.609   5.795 -0.7603 -0.9678  0.9370
14134SOL     OW44555   0.593   3.513   1.917  0.1390 -0.1609  0.0941
14134SOL    HW144556   0.645   3.533   1.995  0.2760  1.3094 -0.3528
14134SOL    HW244557   0.507   3.553   1.936  1.0592  3.0131 -1.7133
14135SOL     OW44558   5.246   2.025   0.826  0.2850  0.2299 -0.6013
14135SOL    HW144559   5.241   2.069   0.911  1.8746  0.0193 -0.3766
14135SOL    HW244560   5.338   2.030   0.802 -0.1449  0.3037 -2.3429
14136SOL     OW44561   5.288   0.898   6.809 -0.2166  0.6065  0.5021
14136SOL    HW144562   5.269   0.970   6.750  2.2313 -0.4160 -1.7289
14136SOL    HW244563   5.216   0.837   6.796 -0.6000  1.1743 -0.1053
14137SOL     OW44564   6.077   8.601   9.032 -0.2413 -0.8287 -0.0320
14137SOL    HW144565   6.132   8.525   9.017  1.6506  0.4666 -0.1049
14137SOL    HW244566   6.046   8.627   8.946 -2.2309 -2.3797  0.1439
14138SOL     OW44567   7.516   7.400   8.918 -0.0260  0.1472 -0.6003
14138SOL    HW144568   7.491   7.491   8.933 -0.2377  0.1141 -0.7337
14138SOL    HW244569   7.530   7.364   9.005  0.3668  0.3920 -0.5638
14139SOL     OW44570   2.561   6.157   1.568  0.6732 -0.0689 -0.2635
14139SOL    HW144571   2.536   6.249   1.567 -1.6660 -0.6330 -0.7218
14139SOL    HW244572   2.580   6.138   1.660 -0.9261  0.4161  0.2060
14140SOL     OW44573   7.946   3.570   3.178 -0.1474  0.6512 -0.0909
14140SOL    HW144574   8.038   3.574   3.149  0.2314 -0.1460  0.9530
14140SOL    HW244575   7.951   3.558   3.272 -1.3513  1.3385  0.0736
14141SOL     OW44576   3.088   9.353   6.060  0.2158 -0.0915 -0.2313
14141SOL    HW144577   3.055   9.422   6.117 -1.5641 -0.4809 -0.7483
14141SOL    HW244578   3.172   9.387   6.027  0.4158  0.8742  1.2059
14142SOL     OW44579   3.219   8.194   2.443  0.4091  0.4768 -0.3522
14142SOL    HW144580   3.290   8.226   2.498  0.5545 -0.0928 -0.2122
14142SOL    HW244581   3.167   8.138   2.500  0.4518  0.0371 -0.7425
14143SOL     OW44582   3.719   0.013   5.104 -0.2599  0.1058 -0.9156
14143SOL    HW144583   3.750  -0.006   5.192 -3.5964  1.8993  0.8475
14143SOL    HW244584   3.644  -0.045   5.092 -1.0340  1.2291 -1.7361
14144SOL     OW44585   4.061   8.199   2.628 -0.0961  0.4760 -0.3577
14144SOL    HW144586   4.137   8.145   2.647  0.8311  1.9368  0.2792
14144SOL    HW244587   3.991   8.137   2.609  0.7627 -0.9487  0.9312
14145SOL     OW44588   5.048   2.755   5.762 -0.6659 -0.1037  0.3547
14145SOL    HW144589   4.997   2.792   5.690  0.5340 -0.4384 -0.7014
14145SOL    HW244590   5.139   2.770   5.737 -0.2062 -1.2192  1.2712
14146SOL     OW44591   6.616   7.936   6.165  0.2840  0.2515 -0.0435
14146SOL    HW144592   6.595   7.898   6.251 -1.4010 -1.4010 -1.1066
14146SOL    HW244593   6.535   7.979   6.138  0.0643 -1.0790 -1.6745
14147SOL     OW44594   9.088   0.906   7.657  0.1252 -0.1793  0.2106
14147SOL    HW144595   9.097   0.970   7.586 -0.1622  0.5501  0.8190
14147SOL    HW244596   8.994   0.897   7.669  0.1729  0.3645  1.0718
14148SOL     OW44597   2.960   2.062   3.715  0.0486 -0.7014  0.1892
14148SOL    HW144598   2.967   2.081   3.809 -4.1804  0.3957  0.5029
14148SOL    HW244599   2.956   1.967   3.710  0.7947 -0.7970  1.0306
14149SOL     OW44600   7.325   6.398   6.254 -0.1607 -0.1908  0.3749
14149SOL    HW144601   7.269   6.440   6.189  1.7142  0.6482 -0.7656
14149SOL    HW244602   7.348   6.313   6.214  2.1044  0.8804 -0.8013
14150SOL     OW44603   6.727   1.695   2.381  0.6343  0.9520 -0.1417
14150SOL    HW144604   6.816   1.666   2.358  0.1122 -1.1174  0.2345
14150SOL    HW244605   6.676   1.614   2.384 -1.2790  2.1044 -0.3498
14151SOL     OW44606   7.090   5.472   5.517  0.1072  0.4107 -0.1831
14151SOL    HW144607   7.185   5.470   5.532  0.0308 -0.5198  0.2717
14151SOL    HW244608   7.080   5.460   5.423  0.4427  0.5798 -0.2425
14152SOL     OW44609   2.535   0.858   4.883 -0.3741  0.8059 -0.1384
14152SOL    HW144610   2.493   0.772   4.895  1.0305  0.4611  3.5329
14152SOL    HW244611   2.482   0.901   4.816 -2.4771 -2.0543 -0.5237
14153SOL     OW44612   4.392   8.425   6.910 -0.2476 -0.0657 -0.5165
14153SOL    HW144613   4.434   8.342   6.888  1.1853  0.5742 -0.3137
14153SOL    HW244614   4.350   8.408   6.995 -0.3684 -0.7143 -0.7003
14154SOL     OW44615   6.407   6.990   7.917  0.5474 -0.0232 -0.2800
14154SOL    HW144616   6.443   6.920   7.862  1.0245 -0.2835  0.3484
14154SOL    HW244617   6.388   6.947   8.001  0.6431  0.5533  0.0424
14155SOL     OW44618   2.060   5.184   3.716 -0.3293  0.3685 -0.2453
14155SOL    HW144619   1.993   5.247   3.744 -0.9172 -0.2725 -0.1930
14155SOL    HW244620   2.018   5.133   3.647 -0.2603 -0.7379  0.5111
14156SOL     OW44621   7.758   5.685   4.062  0.2257 -0.1505 -0.0196
14156SOL    HW144622   7.710   5.737   4.127  0.4389  0.5083 -0.3731
14156SOL    HW244623   7.700   5.611   4.043  0.2561 -0.4780  1.0731
14157SOL     OW44624   8.121   5.153   0.901 -0.2163  0.2366 -0.2706
14157SOL    HW144625   8.134   5.059   0.892 -4.0182 -0.4406 -0.6669
14157SOL    HW244626   8.174   5.192   0.832  2.6956 -1.3727  0.9018
14158SOL     OW44627   4.324   5.588   1.067  0.6225 -0.5116  0.0187
14158SOL    HW144628   4.397   5.649   1.055 -0.6650  1.1906  0.3495
14158SOL    HW244629   4.248   5.634   1.032 -0.7440 -1.1297  1.9465
14159SOL     OW44630   1.712   1.197   6.928  0.3666 -0.2380 -0.2130
14159SOL    HW144631   1.795   1.171   6.968  0.2924 -1.2364 -0.6746
14159SOL    HW244632   1.731   1.202   6.834 -0.6966 -3.2411 -0.6936
14160SOL     OW44633   8.832   5.252   5.927  0.1377  0.2865 -0.0477
14160SOL    HW144634   8.789   5.170   5.952 -3.3611  1.2732 -2.1670
14160SOL    HW244635   8.821   5.309   6.003 -0.0719 -0.2784  0.3517
14161SOL     OW44636   2.771   7.215   7.773 -0.3796  0.2918 -0.5501
14161SOL    HW144637   2.821   7.137   7.797  0.5730  0.9865 -0.1805
14161SOL    HW244638   2.780   7.273   7.849 -0.0923  1.2233 -1.2819
14162SOL     OW44639   3.570   8.639   1.750  0.5298 -0.0485  0.3219
14162SOL    HW144640   3.545   8.730   1.766  0.2618  0.1981 -1.3406
14162SOL    HW244641   3.495   8.602   1.703  0.9491 -0.9148  0.3207
14163SOL     OW44642   6.643   0.177   3.216 -0.1326  0.0304  0.2001
14163SOL    HW144643   6.619   0.126   3.293 -0.8089  0.4378  0.2606
14163SOL    HW244644   6.635   0.269   3.244  0.3515  0.1782 -0.1296
14164SOL     OW44645   4.863   7.752   6.951 -0.2105 -0.1563 -0.0672
14164SOL    HW144646   4.873   7.843   6.981 -0.0357 -0.3357  0.4348
14164SOL    HW244647   4.849   7.702   7.032 -1.0270 -0.4825 -0.3946
14165SOL     OW44648   3.709   6.170   8.849  0.3070 -0.1944  0.2842
14165SOL    HW144649   3.799   6.189   8.822  0.4773  0.1167  1.0437
14165SOL    HW244650   3.658   6.176   8.768  0.8649  0.2926 -0.0419
14166SOL     OW44651   4.858   8.312   7.641  0.1849 -0.1670 -0.7050
14166SOL    HW144652   4.892   8.351   7.722  1.5217  0.3743 -1.4845
14166SOL    HW244653   4.820   8.229   7.669 -0.6351  0.6302  0.6688
14167SOL     OW44654   4.485   7.268   1.455  0.0816 -0.4889  0.4779
14167SOL    HW144655   4.420   7.337   1.448 -1.5255 -1.9448  0.2511
14167SOL    HW244656   4.445   7.204   1.515  1.4526 -1.2701  0.6020
14168SOL     OW44657   7.039   8.696   3.729 -0.1048 -0.1450  0.0859
14168SOL    HW144658   7.071   8.610   3.756  1.7149  0.6962  0.8229
14168SOL    HW244659   6.996   8.731   3.807  1.4749  0.6092  0.6775
14169SOL     OW44660   9.593   0.692   4.049 -0.4292  0.1958 -0.0929
14169SOL    HW144661   9.630   0.736   4.126 -0.7292  1.2718 -0.5408
14169SOL    HW244662   9.507   0.731   4.039 -0.4705 -0.0843 -0.8570
14170SOL     OW44663   6.460   7.699   4.927 -0.0073 -0.1423  0.1057
14170SOL    HW144664   6.494   7.609   4.924  0.7457  0.1612 -0.7355
14170SOL    HW244665   6.366   7.689   4.916 -0.2174 -0.9839  2.2253
14171SOL     OW44666   3.459   7.722   4.541  0.0929  0.3902 -0.1969
14171SOL    HW144667   3.413   7.788   4.490 -1.3233 -0.6707 -0.3587
14171SOL    HW244668   3.432   7.638   4.503  0.6464 -0.3462  0.9612
14172SOL     OW44669   0.599   7.322   7.987  0.0834 -0.2192 -0.0909
14172SOL    HW144670   0.689   7.294   7.967 -0.3784 -1.3961 -0.6404
14172SOL    HW244671   0.558   7.244   8.024 -0.2512  0.7849  1.7964
14173SOL     OW44672   6.799   5.061   3.840  0.3463  0.2620  0.2364
14173SOL    HW144673   6.858   5.132   3.817  0.5869  0.4558  1.3644
14173SOL    HW244674   6.855   4.995   3.880 -0.1645  0.4751  1.3775
14174SOL     OW44675   4.823   1.856   7.412  0.4802 -0.3538  0.0454
14174SOL    HW144676   4.761   1.908   7.464  1.5730  1.1416 -0.0838
14174SOL    HW244677   4.823   1.898   7.326  1.6286 -0.3442  0.0372
14175SOL     OW44678   8.559   0.631   4.875 -0.0706  0.1695  0.2861
14175SOL    HW144679   8.609   0.646   4.955  1.6855 -0.0977 -0.7070
14175SOL    HW244680   8.592   0.695   4.813  1.3116 -1.9670 -1.3357
14176SOL     OW44681   1.615   4.941   5.905 -0.0740 -0.6412 -0.0955
14176SOL    HW144682   1.524   4.970   5.891 -0.5510 -1.6539  0.7646
14176SOL    HW244683   1.614   4.848   5.882  0.5109 -0.8862  0.8242
14177SOL     OW44684   4.141   2.470   5.255  0.0824 -0.3391  0.3539
14177SOL    HW144685   4.120   2.504   5.342 -1.9297  0.7675 -0.4966
14177SOL    HW244686   4.232   2.441   5.262  0.5823  1.4358  2.2942
14178SOL     OW44687   5.928   6.905   5.156  0.1514 -0.0409 -0.1010
14178SOL    HW144688   5.884   6.901   5.071  1.1308  1.6676 -0.7489
14178SOL    HW244689   5.933   6.998   5.176 -0.7470 -0.4330  2.2571
14179SOL     OW44690   4.518   7.606   8.652 -0.0790 -0.1594  0.1999
14179SOL    HW144691   4.612   7.622   8.650 -0.0535  0.0215  1.9613
14179SOL    HW244692   4.478   7.693   8.661 -0.4134 -0.2514 -0.3282
14180SOL     OW44693   3.223   2.130   0.580  0.3360  0.0480  0.0683
14180SOL    HW144694   3.203   2.040   0.606 -0.9059  1.0465  2.9431
14180SOL    HW244695   3.139   2.167   0.554  0.5793  0.8057  0.3396
14181SOL     OW44696   9.004   6.164   3.810  0.1305  0.5133 -0.5360
14181SOL    HW144697   9.024   6.203   3.895  2.1880 -1.0864 -0.1952
14181SOL    HW244698   8.994   6.238   3.750 -0.7025  1.6434  0.9401
14182SOL     OW44699   4.769   2.642   0.634 -0.1753 -0.2631 -0.4078
14182SOL    HW144700   4.735   2.599   0.713 -1.5052  0.0279 -0.7833
14182SOL    HW244701   4.835   2.703   0.666  0.5493 -1.3832  0.2978
14183SOL     OW44702   9.620   0.673   7.369  0.0110  0.5546  0.3209
14183SOL    HW144703   9.598   0.744   7.429  0.2593 -0.4694  1.6780
14183SOL    HW244704   9.542   0.662   7.315 -0.9556  0.2671  1.7272
14184SOL     OW44705   7.738   0.199   2.752  0.5262 -0.4380  0.0391
14184SOL    HW144706   7.766   0.241   2.834 -0.2182  0.2107 -0.0291
14184SOL    HW244707   7.799   0.233   2.687 -0.2197  0.7586 -0.0600
14185SOL     OW44708   1.751   3.209   2.755 -0.0810  0.4697 -0.7780
14185SOL    HW144709   1.782   3.128   2.796 -1.7571  1.0424  1.8770
14185SOL    HW244710   1.656   3.208   2.769 -0.2961  2.3041 -1.7886
14186SOL     OW44711   4.148   7.429   6.587 -0.3168 -0.0165 -0.3004
14186SOL    HW144712   4.060   7.391   6.582  0.5240 -2.3486  0.8581
14186SOL    HW244713   4.134   7.519   6.614 -2.3726 -0.0560 -1.0474
14187SOL     OW44714   3.748   5.905   8.895  0.1737  0.0397 -0.9420
14187SOL    HW144715   3.771   5.890   8.803  1.1906  3.5607 -1.4172
14187SOL    HW244716   3.736   5.999   8.901 -2.2886 -0.3327  2.0895
14188SOL     OW44717   8.916   3.243   1.973  0.3515 -0.6959  0.6039
14188SOL    HW144718   8.925   3.204   1.886 -0.6514 -0.7152  0.5024
14188SOL    HW244719   8.843   3.197   2.013  0.2749 -0.1215  1.1486
14189SOL     OW44720   6.188   7.512   7.145 -0.1172  0.5328  0.4557
14189SOL    HW144721   6.243   7.549   7.075 -0.2367  0.5827  0.3874
14189SOL    HW244722   6.102   7.503   7.105 -0.3499  1.1824  0.7950
14190SOL     OW44723   5.371   8.875   7.536  0.0657  0.3279  0.3810
14190SOL    HW144724   5.295   8.849   7.587  0.1869  0.1092  0.4512
14190SOL    HW244725   5.428   8.798   7.536 -0.1751  0.1382 -0.5431
14191SOL     OW44726   8.450   8.524   0.264 -0.2344 -0.6104 -0.3483
14191SOL    HW144727   8.376   8.545   0.321  0.2830  1.5491 -0.3974
14191SOL    HW244728   8.450   8.594   0.198  1.1326 -1.2511 -1.0576
14192SOL     OW44729   3.953   8.612   3.810  0.0453  0.5788  0.1808
14192SOL    HW144730   3.934   8.694   3.855 -0.9543 -0.0990  1.0513
14192SOL    HW244731   3.879   8.601   3.750  0.4156  0.5451 -0.2704
14193SOL     OW44732   5.726   3.749   1.883  0.0300  0.2141  0.4570
14193SOL    HW144733   5.737   3.712   1.970  2.5781 -0.9401 -0.2671
14193SOL    HW244734   5.784   3.697   1.827 -3.1888 -0.6683 -2.4493
14194SOL     OW44735   3.015   0.103   8.279 -0.5108  0.4823  0.2453
14194SOL    HW144736   2.992   0.195   8.264  0.0146  0.5728 -0.0047
14194SOL    HW244737   2.953   0.054   8.226 -0.5465  0.7039  0.0798
14195SOL     OW44738   3.405   1.726   1.318 -0.0979 -0.3309 -0.3461
14195SOL    HW144739   3.329   1.712   1.261 -0.2354 -3.0358  0.3538
14195SOL    HW244740   3.445   1.640   1.327 -0.6714 -0.3977  4.4079
14196SOL     OW44741   3.307   0.117   1.925 -0.1226 -0.4414 -0.5649
14196SOL    HW144742   3.305   0.096   2.019 -2.9594  0.1847 -0.3898
14196SOL    HW244743   3.332   0.035   1.883 -0.4170 -1.1985  0.6766
14197SOL     OW44744   5.082   1.745   0.911  0.1027  0.3131 -0.3735
14197SOL    HW144745   5.106   1.818   0.968  1.1805 -0.0323 -0.3707
14197SOL    HW244746   5.022   1.783   0.847 -0.4968  0.8746  0.5130
14198SOL     OW44747   1.105   6.459   7.621  0.3663 -0.0719 -0.7917
14198SOL    HW144748   1.073   6.461   7.531 -1.4044  1.7074 -0.1824
14198SOL    HW244749   1.062   6.382   7.660 -2.1689  1.4313 -0.4093
14199SOL     OW44750   5.521   2.201   5.300 -0.3559 -0.0398  0.2306
14199SOL    HW144751   5.448   2.156   5.342 -0.0168 -1.7150 -0.8961
14199SOL    HW244752   5.585   2.133   5.282  0.7166  1.1020 -0.4308
14200SOL     OW44753   3.359   5.570   1.197  0.0919 -0.2559  0.1938
14200SOL    HW144754   3.346   5.652   1.244  0.3987  0.4798 -0.9661
14200SOL    HW244755   3.293   5.571   1.128  1.6144  0.1736 -1.3127
14201SOL     OW44756   1.422   1.402   2.072  0.0713  0.2283 -0.5288
14201SOL    HW144757   1.331   1.399   2.102  0.3215 -1.6828  0.1815
14201SOL    HW244758   1.470   1.352   2.137  1.4572  0.2269 -1.5171
14202SOL     OW44759   5.287   4.382   7.610  0.2372  0.2727  0.2054
14202SOL    HW144760   5.233   4.350   7.682  1.5644 -0.5369  0.8869
14202SOL    HW244761   5.232   4.447   7.566 -1.4500 -0.8778  0.5413
14203SOL     OW44762   7.960   1.894   3.951 -0.8902 -0.5848 -0.0557
14203SOL    HW144763   7.995   1.854   4.030 -0.4889  0.6834  0.4289
14203SOL    HW244764   8.034   1.940   3.912 -1.1234 -1.0529 -1.0886
14204SOL     OW44765   5.015   6.905   0.331 -0.1320  0.2730  0.1727
14204SOL    HW144766   5.085   6.930   0.390  1.3660 -1.1634 -0.9272
14204SOL    HW244767   5.058   6.890   0.247 -1.7164 -0.8529 -0.4886
14205SOL     OW44768   1.988   5.474   0.359 -0.1019 -0.2072  0.1796
14205SOL    HW144769   1.973   5.520   0.441 -0.3831  0.4145 -0.2198
14205SOL    HW244770   1.986   5.381   0.383  0.1666 -0.0223  0.9325
14206SOL     OW44771   2.589   7.384   4.794  0.3539  0.8396  0.0155
14206SOL    HW144772   2.637   7.466   4.795  0.2231  0.9219 -0.2503
14206SOL    HW244773   2.531   7.391   4.718  2.2782 -0.6045 -1.7235
14207SOL     OW44774   6.007   3.715   6.343 -0.0189 -0.0693  0.4671
14207SOL    HW144775   5.961   3.637   6.314  1.7601 -0.9981  0.0002
14207SOL    HW244776   5.984   3.782   6.278  0.9821 -1.1170 -1.0341
14208SOL     OW44777   5.757   8.639   7.338 -0.1647 -0.0668  0.4582
14208SOL    HW144778   5.838   8.658   7.384 -0.4801  1.7045  0.3364
14208SOL    HW244779   5.734   8.721   7.295 -1.0013 -1.0736 -1.1130
14209SOL     OW44780   5.532   6.840   2.565  0.0419  0.2117  0.2353
14209SOL    HW144781   5.442   6.823   2.537  1.2314 -1.9254 -2.8261
14209SOL    HW244782   5.555   6.922   2.521 -0.0835  0.2013  0.1466
14210SOL     OW44783   5.019   7.305   2.767 -0.1047  0.4752 -0.0319
14210SOL    HW144784   5.070   7.382   2.794 -0.0319  0.5293 -0.3225
14210SOL    HW244785   5.037   7.239   2.834  0.3522  0.4917 -0.1400
14211SOL     OW44786   5.831   2.448   4.655  0.4726  0.0410  0.2463
14211SOL    HW144787   5.761   2.393   4.620  0.4182  0.4994 -0.3794
14211SOL    HW244788   5.785   2.519   4.700  0.5365  0.1908  0.0752
14212SOL     OW44789   8.477   5.666   2.204  0.3585 -0.0573  0.6779
14212SOL    HW144790   8.411   5.732   2.184  1.2988  1.2693  1.6820
14212SOL    HW244791   8.480   5.665   2.300  0.8912 -1.0373  0.6603
14213SOL     OW44792   8.789   5.257   5.457 -0.2654 -0.4413 -0.2423
14213SOL    HW144793   8.730   5.211   5.397 -0.8100  0.1271 -0.1485
14213SOL    HW244794   8.792   5.346   5.423  0.6326 -0.4825 -0.3078
14214SOL     OW44795   2.414   8.689   3.965 -0.8544 -0.3718 -0.0860
14214SOL    HW144796   2.497   8.650   3.991  0.1676  1.0826 -1.0371
14214SOL    HW244797   2.371   8.620   3.913  0.8098 -0.3802 -1.5446
14215SOL     OW44798   6.558   7.249   5.349  0.5969  0.1769  1.2125
14215SOL    HW144799   6.500   7.182   5.384 -0.3343  0.1370 -0.3036
14215SOL    HW244800   6.609   7.204   5.282 -0.1611  0.9827  0.0514
14216SOL     OW44801   2.157   1.252   8.696 -0.1888 -0.5309 -0.2314
14216SOL    HW144802   2.221   1.319   8.672 -1.0484 -0.4002 -2.3156
14216SOL    HW244803   2.125   1.280   8.782  0.8568  0.6645 -0.1998
14217SOL     OW44804   2.410   8.826   5.098 -0.3360 -0.8523 -0.0526
14217SOL    HW144805   2.414   8.903   5.041 -0.3271 -1.9940 -1.6664
14217SOL    HW244806   2.484   8.771   5.069 -0.0739 -1.2797  1.3595
14218SOL     OW44807   1.709   6.656   0.109  0.2742  0.1151 -0.2757
14218SOL    HW144808   1.659   6.588   0.154 -0.9153  1.5373  0.6759
14218SOL    HW244809   1.648   6.690   0.043  1.2591 -0.4985 -1.5389
14219SOL     OW44810   7.048   6.406   5.386 -0.6068 -0.0747  0.3724
14219SOL    HW144811   7.086   6.371   5.466 -0.5156  1.7204  1.1613
14219SOL    HW244812   7.022   6.496   5.408 -1.0152  0.3189 -1.4742
14220SOL     OW44813   0.741   7.639   7.935 -0.4515  0.7997 -0.8001
14220SOL    HW144814   0.716   7.589   7.858 -1.2948 -2.0605  1.1520
14220SOL    HW244815   0.771   7.573   7.998 -1.7574  2.7027  2.0442
14221SOL     OW44816   0.321   5.195   8.948  0.3326 -0.0112  0.0025
14221SOL    HW144817   0.317   5.120   9.007  1.5031 -0.6353 -0.6548
14221SOL    HW244818   0.287   5.268   8.999 -1.8415 -1.1737  0.3231
14222SOL     OW44819   6.973   4.195   0.041  0.6546  0.6041 -0.2742
14222SOL    HW144820   6.973   4.279  -0.005  0.4268  0.4887 -0.4888
14222SOL    HW244821   7.016   4.135  -0.019  1.2954  0.6817  0.0988
14223SOL     OW44822   3.889   4.511   3.550 -0.3592  0.1904  0.1365
14223SOL    HW144823   3.920   4.467   3.629  1.9191  2.5727  0.7173
14223SOL    HW244824   3.806   4.552   3.575 -1.5727 -2.0943  0.1030
14224SOL     OW44825   2.331   4.470   1.204 -0.3572  0.3133  0.5439
14224SOL    HW144826   2.331   4.564   1.217 -1.2363  0.5295 -0.7751
14224SOL    HW244827   2.423   4.447   1.192 -0.3085  1.4073 -1.5516
14225SOL     OW44828   4.179   3.878   1.005  0.1932  0.0973 -0.5365
14225SOL    HW144829   4.178   3.926   0.923  0.7368  1.3266  0.1561
14225SOL    HW244830   4.193   3.944   1.072 -0.4103 -0.8564  0.5733
14226SOL     OW44831   0.636   2.093   7.360  0.4759  0.2628 -0.7356
14226SOL    HW144832   0.623   2.004   7.392  0.3345  0.7301  0.5566
14226SOL    HW244833   0.623   2.087   7.266 -2.7321 -0.4963 -0.3408
14227SOL     OW44834   8.943   8.016   5.678  0.3308 -0.3033  0.3333
14227SOL    HW144835   8.991   7.941   5.645  0.5491 -0.8738  1.8409
14227SOL    HW244836   8.946   8.080   5.607  0.2478 -1.6513 -0.9367
14228SOL     OW44837   4.299   4.192   7.552  0.4128  0.4076  0.8082
14228SOL    HW144838   4.333   4.267   7.601  1.4953 -0.3731  1.2988
14228SOL    HW244839   4.377   4.151   7.514 -0.1838 -0.3495  0.3696
14229SOL     OW44840   4.599   0.552   6.463 -0.1378 -0.4652 -0.3745
14229SOL    HW144841   4.666   0.494   6.496 -0.2912 -1.5169 -1.8188
14229SOL    HW244842   4.530   0.494   6.430 -1.4919  0.5725  0.5134
14230SOL     OW44843   8.335   1.061   0.085 -0.3008 -0.5476  0.6867
14230SOL    HW144844   8.356   1.152   0.104 -1.9662 -0.2733  1.3453
14230SOL    HW244845   8.254   1.044   0.133 -1.0040 -1.8360 -0.8597
14231SOL     OW44846   5.888   7.066   5.761  0.2856 -0.0133 -0.5627
14231SOL    HW144847   5.870   7.160   5.753 -0.6599 -0.1528 -0.1776
14231SOL    HW244848   5.948   7.059   5.835  1.8930  0.4453 -1.7638
14232SOL     OW44849   5.273   1.967   7.155 -0.2722 -0.2966  0.4277
14232SOL    HW144850   5.349   1.908   7.162  0.8460  1.1376  0.7298
14232SOL    HW244851   5.236   1.968   7.243  0.4579  0.3933  0.7406
14233SOL     OW44852   5.577   8.625   4.266 -0.7450 -0.6246  0.1843
14233SOL    HW144853   5.584   8.530   4.274  0.0096 -0.6364 -0.5022
14233SOL    HW244854   5.528   8.652   4.344 -2.1998 -1.7100 -0.3037
14234SOL     OW44855   3.831   7.536   9.041 -0.5715 -0.0271  0.4134
14234SOL    HW144856   3.773   7.493   9.104  1.5746 -0.7692  2.0375
14234SOL    HW244857   3.889   7.466   9.010  0.6549  0.9857  0.3239
14235SOL     OW44858   4.472   6.504   0.486  0.1481 -0.0484  0.7008
14235SOL    HW144859   4.410   6.516   0.559 -1.2845 -0.8441 -0.3361
14235SOL    HW244860   4.528   6.432   0.515 -0.6900 -0.6566  0.8486
14236SOL     OW44861   2.545   5.773   3.848  0.3183  0.1718  0.2768
14236SOL    HW144862   2.469   5.812   3.803  0.4776  3.0819  2.2225
14236SOL    HW244863   2.620   5.796   3.793  0.0474 -0.4498 -0.3532
14237SOL     OW44864   4.525   2.138   3.760 -0.7057 -0.0496 -0.1371
14237SOL    HW144865   4.469   2.162   3.834 -2.0634 -1.5381 -0.6059
14237SOL    HW244866   4.566   2.219   3.733 -0.9950  0.7185  1.5795
14238SOL     OW44867   5.569   8.405   1.096 -0.4607 -0.3134  0.5579
14238SOL    HW144868   5.548   8.312   1.111  0.7894 -1.1838 -2.3434
14238SOL    HW244869   5.643   8.422   1.154 -0.9562 -1.0093  1.4188
14239SOL     OW44870   3.686   0.537   4.091  0.1326  0.0116 -0.2345
14239SOL    HW144871   3.677   0.451   4.131 -0.4303  0.0242 -0.3362
14239SOL    HW244872   3.608   0.547   4.036 -0.5823  1.2001  0.9350
14240SOL     OW44873   3.645   0.820   2.062  0.1001  1.0695  0.0526
14240SOL    HW144874   3.592   0.899   2.070 -0.0811  0.9989 -0.4319
14240SOL    HW244875   3.693   0.831   1.980  0.9987  1.2240  0.5819
14241SOL     OW44876   5.978   2.358   6.053  0.8878 -0.4930 -0.2266
14241SOL    HW144877   5.980   2.397   5.966  0.0471  0.3451  0.1036
14241SOL    HW244878   5.885   2.340   6.070  0.6826  1.6238  1.4137
14242SOL     OW44879   1.258   3.469   8.370 -0.1714 -0.3691 -0.0905
14242SOL    HW144880   1.184   3.435   8.320 -0.5028  0.5085 -0.2138
14242SOL    HW244881   1.235   3.559   8.389  0.2546 -0.4795  1.0640
14243SOL     OW44882   3.691   6.421   6.285 -0.9342 -0.3732  0.3535
14243SOL    HW144883   3.750   6.400   6.213 -1.3440  1.3587 -0.5492
14243SOL    HW244884   3.746   6.417   6.364 -0.4483 -2.1497 -0.0210
14244SOL     OW44885   2.739   3.442   4.877 -1.3383 -0.2019 -0.5378
14244SOL    HW144886   2.687   3.364   4.859 -1.4827 -0.3823  0.5522
14244SOL    HW244887   2.676   3.513   4.886 -1.5704 -0.6328  1.9325
14245SOL     OW44888   4.621   1.408   2.192  0.1574  0.0315 -0.3818
14245SOL    HW144889   4.658   1.476   2.247  1.3289 -0.0475 -1.0343
14245SOL    HW244890   4.560   1.362   2.249 -0.5274  1.5049  0.1111
14246SOL     OW44891   0.194   2.947   0.236  0.1636  0.9288 -0.3762
14246SOL    HW144892   0.280   2.977   0.207  0.4939  1.1170  0.7840
14246SOL    HW244893   0.148   2.928   0.154  1.4288  0.4487 -1.0144
14247SOL     OW44894   0.005   4.051   9.255 -0.2684 -0.0657 -0.2384
14247SOL    HW144895  -0.057   4.034   9.326  0.3333  0.0328  0.3208
14247SOL    HW244896   0.059   3.972   9.251 -0.7854 -0.3946 -1.1153
14248SOL     OW44897   7.685   2.261   8.638 -0.1236 -0.2730  0.4530
14248SOL    HW144898   7.629   2.185   8.626 -0.8522  0.4879 -1.3111
14248SOL    HW244899   7.755   2.250   8.574  0.1078  0.2246  0.6154
14249SOL     OW44900   8.947   5.558   2.972 -0.4302  0.1955  0.0535
14249SOL    HW144901   8.984   5.609   2.900 -2.1300  0.0374 -1.0041
14249SOL    HW244902   8.852   5.562   2.958 -0.7959 -0.1471  2.1009
14250SOL     OW44903   5.207   6.472   7.091  0.5690 -0.1454  0.5228
14250SOL    HW144904   5.175   6.440   7.007 -0.6694  1.0394  0.5157
14250SOL    HW244905   5.301   6.451   7.090  0.4298 -0.8227 -0.8161
14251SOL     OW44906   2.996   8.794   1.553  0.1411  0.4011 -0.0954
14251SOL    HW144907   3.054   8.727   1.588  0.4108  0.1143 -1.0661
14251SOL    HW244908   2.977   8.766   1.463  1.5332  2.4069 -1.0981
14252SOL     OW44909   9.317   1.222   8.107  0.2387 -0.5264 -0.3102
14252SOL    HW144910   9.248   1.175   8.154  0.3929 -1.0866 -0.6321
14252SOL    HW244911   9.306   1.314   8.133  0.2491 -0.8013  0.7356
14253SOL     OW44912   6.077   0.303   1.089 -0.1826 -0.2857  0.4635
14253SOL    HW144913   6.083   0.213   1.120 -0.6446 -0.4323  0.1475
14253SOL    HW244914   6.105   0.357   1.163  1.8703 -0.7444  0.0911
14254SOL     OW44915   7.148   6.935   5.107  0.1178 -0.2079  0.4677
14254SOL    HW144916   7.121   7.018   5.067  0.8148 -0.4002 -0.4372
14254SOL    HW244917   7.237   6.921   5.075  0.1634 -1.1027  0.9466
14255SOL     OW44918   1.414   5.527   8.635  0.7911  0.0187  0.5473
14255SOL    HW144919   1.449   5.438   8.640  1.2459 -0.0179 -1.8885
14255SOL    HW244920   1.484   5.578   8.594 -0.6036  0.7755 -0.9922
14256SOL     OW44921   7.806   5.887   1.681  0.0321  0.1825 -0.3283
14256SOL    HW144922   7.719   5.926   1.673 -0.4771 -0.8861 -0.1602
14256SOL    HW244923   7.837   5.915   1.767 -0.2047  0.4318 -0.3235
14257SOL     OW44924   4.874   1.747   4.657  0.0351 -0.2349 -0.4372
14257SOL    HW144925   4.928   1.794   4.721  1.3579  0.5998 -2.0788
14257SOL    HW244926   4.936   1.721   4.589 -1.4870 -0.1531 -1.8944
14258SOL     OW44927   4.580   0.233   1.944 -1.1796  0.6152 -0.2099
14258SOL    HW144928   4.671   0.252   1.967 -0.5343  0.0192 -2.1239
14258SOL    HW244929   4.549   0.177   2.016  0.5267 -0.6263 -0.3841
14259SOL     OW44930   7.810   2.465   5.500  0.3259 -0.6311 -0.1364
14259SOL    HW144931   7.878   2.415   5.546  1.1744  1.6383  1.2397
14259SOL    HW244932   7.741   2.401   5.483  2.0217 -2.6133  0.0463
14260SOL     OW44933   3.651   3.616   4.720 -0.4654  0.2296 -0.4383
14260SOL    HW144934   3.745   3.615   4.701  0.0356 -0.2013  1.7327
14260SOL    HW244935   3.609   3.588   4.639  1.2877  0.1387 -1.3623
14261SOL     OW44936   7.101   4.769   5.486  0.7609  0.4147 -0.8316
14261SOL    HW144937   7.165   4.740   5.551  0.4003 -0.9836 -1.0573
14261SOL    HW244938   7.038   4.697   5.481 -1.7009  2.2990  0.4605
14262SOL     OW44939   1.475   6.078   2.003  0.1565  0.2816 -0.4711
14262SOL    HW144940   1.428   6.070   1.920 -1.1794  1.0326  0.1791
14262SOL    HW244941   1.407   6.075   2.069  1.2524 -0.9682  0.6661
14263SOL     OW44942   7.262   1.848   6.815  0.2315  0.4812 -0.0219
14263SOL    HW144943   7.304   1.763   6.802  0.8204  0.8071 -0.3218
14263SOL    HW244944   7.175   1.838   6.777 -1.3610 -1.2919  3.6395
14264SOL     OW44945   6.539   5.456   8.578  0.1447  0.0106 -0.7869
14264SOL    HW144946   6.545   5.540   8.534  0.2944 -0.3620 -1.4903
14264SOL    HW244947   6.566   5.474   8.669 -1.5391  1.0596 -0.4642
14265SOL     OW44948   1.506   7.866   0.707 -0.2701  0.0482  0.0899
14265SOL    HW144949   1.490   7.945   0.656 -0.1781 -0.5712 -0.9197
14265SOL    HW244950   1.568   7.815   0.655 -0.8198 -0.9817  0.4150
14266SOL     OW44951   3.632   0.074   1.906  0.3840 -0.3792  0.5519
14266SOL    HW144952   3.605   0.156   1.864  1.0086 -1.5711 -2.4274
14266SOL    HW244953   3.674   0.102   1.987  1.4298  2.3610 -0.7955
14267SOL     OW44954   8.558   8.879   3.766  0.0915 -0.0830  0.0242
14267SOL    HW144955   8.565   8.960   3.816 -1.2588  0.4817 -0.6712
14267SOL    HW244956   8.584   8.903   3.677 -0.7441 -0.2960 -0.2850
14268SOL     OW44957   6.289   0.092   5.857 -0.3149  0.0450  0.2127
14268SOL    HW144958   6.212   0.141   5.829  0.7210  1.3084 -0.5506
14268SOL    HW244959   6.319   0.046   5.779 -1.0002 -1.4768  0.8091
14269SOL     OW44960   3.126   9.335   7.614  0.5388 -0.1769 -0.2671
14269SOL    HW144961   3.207   9.350   7.663  0.6512 -1.9792  0.2006
14269SOL    HW244962   3.141   9.252   7.568 -0.2588  0.5490 -1.9151
14270SOL     OW44963   9.164   7.482   5.209 -0.5021 -0.0270  0.2685
14270SOL    HW144964   9.085   7.463   5.260 -0.0269 -0.1668  0.9581
14270SOL    HW244965   9.192   7.568   5.240  0.8058 -0.8736  1.5706
14271SOL     OW44966   1.873   4.001   0.112  0.0721  0.5387 -0.0954
14271SOL    HW144967   1.923   3.924   0.087  0.4019  0.3981  0.9794
14271SOL    HW244968   1.935   4.057   0.159 -0.4267  0.9850  0.0529
14272SOL     OW44969   5.012   2.269   1.404  0.6458 -0.1559 -0.1484
14272SOL    HW144970   4.977   2.354   1.431  2.1040  0.7590 -0.9841
14272SOL    HW244971   5.050   2.233   1.484 -0.3514 -0.2413  0.3046
14273SOL     OW44972   4.876   8.018   8.232  0.2537  0.0241 -0.4614
14273SOL    HW144973   4.849   8.081   8.166  0.1613 -0.4316 -0.8623
14273SOL    HW244974   4.934   7.957   8.187  0.3411 -0.1810 -0.0839
14274SOL     OW44975   6.658   5.929   3.517  0.1139 -0.2088  0.0829
14274SOL    HW144976   6.628   6.018   3.538 -3.4736 -1.8204  3.1437
14274SOL    HW244977   6.598   5.900   3.448 -2.7847 -1.9125  3.0258
14275SOL     OW44978   0.421   1.553   8.600  0.3671 -0.3214 -0.3060
14275SOL    HW144979   0.378   1.490   8.658  0.9725 -2.4100 -1.9975
14275SOL    HW244980   0.380   1.637   8.622  1.0823 -0.7761  3.6262
14276SOL     OW44981   6.848   0.576   6.398 -0.1083 -0.0835  0.6416
14276SOL    HW144982   6.899   0.496   6.413  1.2768  0.2230 -1.9331
14276SOL    HW244983   6.758   0.546   6.386  0.2533 -1.1693  0.5737
14277SOL     OW44984   9.284   1.933   3.355  0.4001 -0.2350  1.0468
14277SOL    HW144985   9.245   1.937   3.443  0.3983  1.8314  1.0064
14277SOL    HW244986   9.209   1.941   3.296  0.6305  1.7633  0.9466
14278SOL     OW44987   1.027   2.450   2.132 -0.7393  0.4065 -0.3959
14278SOL    HW144988   1.054   2.452   2.040 -0.1315 -0.3765 -0.2426
14278SOL    HW244989   0.986   2.364   2.143  0.6428 -0.1810  0.4552
14279SOL     OW44990   8.200   0.711   1.341 -0.4997 -0.1568 -0.6487
14279SOL    HW144991   8.138   0.774   1.376  0.3989  0.7446 -0.6256
14279SOL    HW244992   8.284   0.756   1.343  0.1563 -1.3226 -0.7233
14280SOL     OW44993   6.136   4.310   0.469  0.0674 -0.2453 -0.5394
14280SOL    HW144994   6.189   4.387   0.491 -0.2986 -0.0750 -0.2430
14280SOL    HW244995   6.199   4.237   0.468 -0.0015 -0.4385  2.0123
14281SOL     OW44996   4.493   5.226   6.214  0.2261 -0.5697 -0.2548
14281SOL    HW144997   4.488   5.146   6.162 -0.1438  0.0122 -1.1545
14281SOL    HW244998   4.584   5.231   6.243 -0.2764 -2.5782  1.9357
14282SOL     OW44999   0.776   3.585   4.045 -0.2468 -0.4153 -0.0614
14282SOL    HW145000   0.698   3.634   4.019 -1.1352 -1.3820  0.7211
14282SOL    HW245001   0.843   3.612   3.982 -0.1579  3.1288  1.3189
14283SOL     OW45002   9.571   1.968   0.525  0.5978 -0.5775 -0.2001
14283SOL    HW145003   9.542   2.048   0.482 -0.6579 -1.6720 -1.5010
14283SOL    HW245004   9.663   1.983   0.545  0.0987  1.6250  0.6856
14284SOL     OW45005   5.186   3.251   6.860 -0.1209 -0.1549 -0.0977
14284SOL    HW145006   5.253   3.218   6.800 -0.4169  0.6256 -0.8774
14284SOL    HW245007   5.181   3.184   6.929 -2.7391 -3.3566 -3.0489
14285SOL     OW45008   0.913   2.999   6.773 -0.1810  0.3036 -0.3244
14285SOL    HW145009   0.899   2.993   6.678  1.8039  0.4690 -0.6595
14285SOL    HW245010   0.966   3.077   6.785  0.9938 -0.6183  0.7379
14286SOL     OW45011   4.412   9.536   5.180  0.0238  0.7673 -0.2267
14286SOL    HW145012   4.451   9.452   5.206  0.0922  0.9842  0.3694
14286SOL    HW245013   4.469   9.567   5.109  2.0886  1.9621  1.8043
14287SOL     OW45014   3.353   0.034   0.607  0.0926  0.8866 -0.7051
14287SOL    HW145015   3.365   0.112   0.551  1.3579 -0.0546 -1.8223
14287SOL    HW245016   3.432  -0.018   0.591 -1.1621 -1.0730 -0.6975
14288SOL     OW45017   5.705   5.048   7.836  0.6871  0.2551  1.0356
14288SOL    HW145018   5.659   5.039   7.753  1.2086  0.4865  0.7128
14288SOL    HW245019   5.695   5.140   7.859 -0.4818 -0.0633  1.8470
14289SOL     OW45020   6.676   1.733   3.154 -0.1824 -0.3814  0.0105
14289SOL    HW145021   6.698   1.726   3.246 -0.0604  1.8219  0.1874
14289SOL    HW245022   6.712   1.653   3.115 -1.0820 -1.8304  1.9784
14290SOL     OW45023   6.122   5.896   3.921 -0.3226 -0.5330 -0.2099
14290SOL    HW145024   6.142   5.988   3.940 -1.9532 -0.1868  0.0064
14290SOL    HW245025   6.047   5.876   3.976  0.4412 -2.2363  0.2713
14291SOL     OW45026   5.731   5.823   7.838  0.0751  0.0648 -0.6027
14291SOL    HW145027   5.651   5.802   7.885  1.2789 -2.6359  0.4855
14291SOL    HW245028   5.744   5.917   7.852 -1.1163 -0.0853  2.1154
14292SOL     OW45029   4.098   7.279   4.156 -0.1049 -0.5978 -0.5889
14292SOL    HW145030   4.183   7.252   4.120 -0.1900 -0.3555 -0.9791
14292SOL    HW245031   4.036   7.216   4.121  0.1031 -1.6661  0.8634
14293SOL     OW45032   9.349   6.868   8.167  0.1647 -0.6765 -0.7618
14293SOL    HW145033   9.282   6.934   8.185 -0.2527 -1.3788  0.3641
14293SOL    HW245034   9.379   6.888   8.078 -0.3397  0.6762 -0.6520
14294SOL     OW45035   5.093   4.445   6.479 -0.0637 -0.1740 -0.2879
14294SOL    HW145036   5.079   4.521   6.536 -0.9732 -1.0996  0.7977
14294SOL    HW245037   5.015   4.442   6.424  0.5238  0.3477 -1.1744
14295SOL     OW45038   9.140   6.334   1.061  0.4642  0.0001  0.5032
14295SOL    HW145039   9.208   6.273   1.033 -0.9327 -0.6585 -1.7385
14295SOL    HW245040   9.094   6.288   1.130 -0.5201 -1.5630 -1.1063
14296SOL     OW45041   7.325   9.413   0.269 -0.4422  0.3099  0.8226
14296SOL    HW145042   7.396   9.384   0.212 -2.0466 -0.0445 -1.1101
14296SOL    HW245043   7.296   9.334   0.314 -1.5714 -0.2232 -0.7312
14297SOL     OW45044   5.969   2.743   8.313 -0.5416  0.7462  0.5858
14297SOL    HW145045   5.981   2.700   8.398  0.0689 -0.2593  0.0165
14297SOL    HW245046   6.036   2.703   8.257 -2.2307 -0.1129 -0.9154
14298SOL     OW45047   3.809   1.315   8.308 -0.2322  0.0000 -0.2264
14298SOL    HW145048   3.795   1.396   8.258  0.1655  0.0523 -0.2636
14298SOL    HW245049   3.746   1.253   8.271 -0.6592  0.3408 -0.0793
14299SOL     OW45050   6.872   0.586   4.061  0.6229  0.5039 -0.8339
14299SOL    HW145051   6.900   0.675   4.082  0.7161  0.4752 -0.8326
14299SOL    HW245052   6.818   0.558   4.134 -1.5873  1.5072 -1.9926
14300SOL     OW45053   0.666   5.337   8.444 -0.4803  0.0219 -0.1993
14300SOL    HW145054   0.758   5.345   8.421  0.1299 -1.5712  1.4597
14300SOL    HW245055   0.652   5.404   8.512 -0.5021  0.1243 -0.3042
14301SOL     OW45056   5.411   4.664   3.500  0.3861  0.4618 -0.4871
14301SOL    HW145057   5.476   4.697   3.563  0.5578  1.5836 -1.2278
14301SOL    HW245058   5.375   4.585   3.542  0.9027  0.8619  0.7585
14302SOL     OW45059   7.740   5.320   5.520  0.3391  0.1991 -0.2024
14302SOL    HW145060   7.828   5.323   5.483  0.5120  0.5393  0.2305
14302SOL    HW245061   7.701   5.404   5.495  0.2941  0.2342 -0.0140
14303SOL     OW45062   5.276   5.549   4.261  0.6304  0.6845  0.3067
14303SOL    HW145063   5.222   5.517   4.188 -0.5890  0.6939  1.1794
14303SOL    HW245064   5.308   5.470   4.304 -1.3401  0.5776  1.6964
14304SOL     OW45065   2.875   0.903   2.752  0.0190 -0.4229 -0.3642
14304SOL    HW145066   2.950   0.950   2.716 -0.6501 -0.6167 -2.1089
14304SOL    HW245067   2.911   0.819   2.783  0.8290  0.2922  0.6909
14305SOL     OW45068   7.326   2.833   3.883 -0.1320  0.1018  0.2410
14305SOL    HW145069   7.419   2.829   3.865 -0.2530 -1.7085 -0.1967
14305SOL    HW245070   7.303   2.745   3.913 -2.1035 -0.2513 -1.9454
14306SOL     OW45071   0.795   1.473   0.442 -0.0408 -0.2473 -0.6405
14306SOL    HW145072   0.718   1.418   0.427  0.5794 -0.8465 -1.6894
14306SOL    HW245073   0.847   1.426   0.507  0.3294 -0.7356 -1.2922
14307SOL     OW45074   1.059   3.728   8.945  0.1112 -0.2945 -0.8274
14307SOL    HW145075   1.122   3.790   8.908  0.3277 -0.1867 -0.2830
14307SOL    HW245076   0.975   3.757   8.910  0.2411  0.1584 -0.7780
14308SOL     OW45077   9.540   9.257   7.545  0.0914  0.6426  0.5708
14308SOL    HW145078   9.533   9.271   7.640  0.0846  2.3927  0.3575
14308SOL    HW245079   9.472   9.315   7.509 -0.9403 -1.1358 -0.4576
14309SOL     OW45080   2.295   4.382   0.923 -0.3604 -0.5301 -0.2333
14309SOL    HW145081   2.356   4.387   0.996 -1.5609  0.6746  0.7410
14309SOL    HW245082   2.349   4.399   0.845  0.5720  0.3268  0.5745
14310SOL     OW45083   7.268   6.636   0.968 -0.6271  0.0902 -0.0186
14310SOL    HW145084   7.280   6.731   0.956 -2.8548  0.5673  0.8869
14310SOL    HW245085   7.342   6.609   1.021 -0.3396  1.5062  0.3451
14311SOL     OW45086   3.686   5.056   6.513 -0.0609  0.7586  0.2132
14311SOL    HW145087   3.680   5.130   6.573  2.3700 -1.1188  3.0207
14311SOL    HW245088   3.622   4.993   6.547  1.0216 -0.1474  0.6202
14312SOL     OW45089   4.925   1.291   0.902  0.7116 -0.3292 -0.1258
14312SOL    HW145090   5.004   1.320   0.856  0.9065 -0.5306  0.0791
14312SOL    HW245091   4.917   1.199   0.880  0.4674 -0.2843 -0.2354
14313SOL     OW45092   8.550   7.523   9.598  0.1373 -0.5062 -0.3920
14313SOL    HW145093   8.536   7.489   9.686  1.1459 -0.9603 -0.3970
14313SOL    HW245094   8.635   7.488   9.571  0.2459  0.3336 -1.2095
14314SOL     OW45095   8.707   4.366   4.112  0.4014 -0.6443 -0.1339
14314SOL    HW145096   8.705   4.423   4.036  0.5515 -0.8027 -0.2574
14314SOL    HW245097   8.684   4.279   4.078 -0.1552 -0.6003  0.1046
14315SOL     OW45098   5.465   0.563   9.568  0.3256 -0.0227 -0.5173
14315SOL    HW145099   5.528   0.497   9.539 -1.5433 -1.2927 -1.9469
14315SOL    HW245100   5.488   0.642   9.518  1.8109  0.0816  0.2866
14316SOL     OW45101   8.049   1.371   0.169 -0.2551 -0.5535 -0.1773
14316SOL    HW145102   8.030   1.408   0.083  2.0448  1.1530 -0.0496
14316SOL    HW245103   8.071   1.279   0.152 -0.7431 -0.4776 -1.2736
14317SOL     OW45104   8.724   8.617   2.329 -0.1085  0.1289  0.7123
14317SOL    HW145105   8.702   8.529   2.360  0.0116 -0.2321 -0.2123
14317SOL    HW245106   8.820   8.620   2.335 -0.1499  0.4312  1.3435
14318SOL     OW45107   0.888   2.600   4.121  0.3272 -0.4328 -0.3541
14318SOL    HW145108   0.930   2.542   4.184 -0.5372 -0.4443  0.2310
14318SOL    HW245109   0.862   2.543   4.049 -1.6737 -1.0636  0.7853
14319SOL     OW45110   0.109   0.196   8.334 -0.5034  0.4794 -1.1723
14319SOL    HW145111   0.078   0.213   8.245  1.4232  0.0886 -1.9597
14319SOL    HW245112   0.142   0.106   8.331  0.3099  0.7338 -0.2944
14320SOL     OW45113   9.030   2.046   4.627 -0.1783 -0.2556 -0.2032
14320SOL    HW145114   9.110   2.007   4.594  0.2214 -0.0515  0.4960
14320SOL    HW245115   8.965   1.976   4.624  0.4452 -0.8993  0.7399
14321SOL     OW45116   1.636   0.746   6.916 -0.5847 -0.0392 -0.3585
14321SOL    HW145117   1.614   0.745   7.009 -1.6572 -2.0255 -0.5814
14321SOL    HW245118   1.727   0.776   6.913 -0.2093 -0.8882  1.4249
14322SOL     OW45119   0.654   4.622   8.177 -0.5107  0.0648  0.4876
14322SOL    HW145120   0.635   4.535   8.142  0.4465 -0.0664  0.2734
14322SOL    HW245121   0.692   4.605   8.264 -2.0472  0.3552  1.2614
14323SOL     OW45122   7.677   6.905   5.656 -0.0615  0.3830  0.3738
14323SOL    HW145123   7.623   6.835   5.693  0.3828  0.5034  1.2746
14323SOL    HW245124   7.710   6.953   5.732  2.6038 -0.6417 -0.0282
14324SOL     OW45125   9.597   0.789   9.572 -0.0683 -0.0919 -0.1661
14324SOL    HW145126   9.633   0.800   9.660  2.8622  1.9901 -1.4575
14324SOL    HW245127   9.666   0.744   9.523 -0.8414  0.4455 -1.8191
14325SOL     OW45128   8.577   6.988   1.826  0.0016 -0.3242  0.3294
14325SOL    HW145129   8.638   7.052   1.864 -0.7926  0.1216  0.9042
14325SOL    HW245130   8.551   6.934   1.900 -2.1654  1.0412  0.6527
14326SOL     OW45131   3.098   4.354   7.357 -0.0226 -0.0041 -0.5089
14326SOL    HW145132   3.022   4.336   7.414 -1.1390  0.0529 -1.9168
14326SOL    HW245133   3.092   4.287   7.288  2.0298 -0.8701  0.0858
14327SOL     OW45134   7.002   2.451   8.425  0.1308 -0.2644  0.2063
14327SOL    HW145135   6.918   2.458   8.469  0.3536 -0.4672  0.6664
14327SOL    HW245136   7.032   2.362   8.443  0.6672 -0.0369  0.4551
14328SOL     OW45137   1.844   2.951   7.324  0.3658 -0.5018  0.1495
14328SOL    HW145138   1.796   3.032   7.307  0.9038 -0.1370  0.3744
14328SOL    HW245139   1.934   2.978   7.338  0.5021 -1.1132  0.5044
14329SOL     OW45140   4.237   0.950   1.124  0.5517 -0.0738 -0.0876
14329SOL    HW145141   4.170   0.904   1.074 -1.4985 -0.4777  2.7238
14329SOL    HW245142   4.226   0.918   1.214  4.1424  0.3691  0.6603
14330SOL     OW45143   2.821   5.752   4.176 -0.9144  0.5911 -0.3861
14330SOL    HW145144   2.776   5.837   4.176 -0.8136  0.6965  1.4829
14330SOL    HW245145   2.871   5.752   4.258 -1.9122 -1.7727  0.3051
14331SOL     OW45146   3.912   1.595   1.382 -0.6249 -0.0457  0.0194
14331SOL    HW145147   3.945   1.505   1.378  1.3291  0.6516 -1.5054
14331SOL    HW245148   3.844   1.599   1.315 -0.7945 -0.4052  0.1669
14332SOL     OW45149   5.570   0.874   2.544  0.1111  0.3699  0.5864
14332SOL    HW145150   5.665   0.884   2.535 -0.2173  2.8694 -1.2320
14332SOL    HW245151   5.534   0.908   2.462 -2.3518 -1.7803  0.6312
14333SOL     OW45152   2.686   2.088   2.281  0.2082  0.0574 -0.8903
14333SOL    HW145153   2.612   2.137   2.317  0.1198 -1.6239  1.4404
14333SOL    HW245154   2.697   2.015   2.341  4.2342  0.6024 -0.7206
14334SOL     OW45155   8.909   2.589   3.680  0.7206  0.1909  0.8102
14334SOL    HW145156   8.836   2.603   3.619  1.9026 -0.7277 -0.8915
14334SOL    HW245157   8.953   2.674   3.684  2.3868 -0.4247 -2.0819
14335SOL     OW45158   3.618   0.337   8.721 -0.3295 -0.1025 -0.3639
14335SOL    HW145159   3.701   0.322   8.766 -0.1653 -1.3980 -1.0499
14335SOL    HW245160   3.551   0.312   8.784 -0.1936  0.5928  0.0618
14336SOL     OW45161   2.455   5.670   4.795  0.0862 -0.3081  0.2174
14336SOL    HW145162   2.413   5.747   4.758 -1.6558 -0.7815  1.1309
14336SOL    HW245163   2.540   5.665   4.750  0.6544  2.6271  0.7974
14337SOL     OW45164   4.926   8.306   6.162 -0.7705  0.2277 -0.6154
14337SOL    HW145165   4.931   8.214   6.189  0.8070  0.4170 -0.1088
14337SOL    HW245166   4.939   8.355   6.243 -0.7706  0.8748 -1.0008
14338SOL     OW45167   5.117   6.626   9.132  0.2710  0.3019 -0.5775
14338SOL    HW145168   5.043   6.595   9.079 -0.4870  0.1889  0.5038
14338SOL    HW245169   5.173   6.549   9.142 -0.3801 -0.1028  0.0811
14339SOL     OW45170   2.751   2.133   8.730 -0.5594  0.1318 -0.0131
14339SOL    HW145171   2.746   2.177   8.815  0.7302 -1.0801  0.7287
14339SOL    HW245172   2.842   2.103   8.723 -0.7990 -0.3497 -1.5398
14340SOL     OW45173   3.693   2.867   5.768  0.6460  0.3115 -0.2073
14340SOL    HW145174   3.670   2.911   5.686 -0.8810  1.3494  0.7426
14340SOL    HW245175   3.783   2.837   5.754  0.1936 -0.1565 -2.5151
14341SOL     OW45176   4.418   7.979   4.624  0.0148  0.2564 -0.3525
14341SOL    HW145177   4.365   7.987   4.704  0.2937  0.1630 -0.1550
14341SOL    HW245178   4.436   7.886   4.616  0.7252  0.3595 -0.0338
14342SOL     OW45179   5.119   5.253   6.972  0.1598 -0.3664  0.0881
14342SOL    HW145180   5.049   5.310   6.941 -0.1009 -0.3149  0.7684
14342SOL    HW245181   5.197   5.284   6.925 -0.1882 -0.1732 -0.3784
14343SOL     OW45182   7.919   4.641   6.283  1.1834  0.3683  0.0531
14343SOL    HW145183   7.878   4.566   6.327  0.5848  0.6089 -0.0907
14343SOL    HW245184   8.009   4.641   6.316  1.3663 -0.7645 -0.3976
14344SOL     OW45185   1.857   8.715   0.491  0.1519 -0.3383  0.5842
14344SOL    HW145186   1.882   8.807   0.485 -0.3779  0.0498  3.0112
14344SOL    HW245187   1.938   8.667   0.471  1.7209  0.7990  3.4850
14345SOL     OW45188   7.466   1.042   1.636 -0.7088  0.3049  0.2815
14345SOL    HW145189   7.554   1.054   1.601 -1.1407  0.2094 -0.8837
14345SOL    HW245190   7.463   0.951   1.665 -0.8171 -0.0662 -0.8608
14346SOL     OW45191   1.446   3.836   7.812 -0.0480 -0.3496  0.3800
14346SOL    HW145192   1.496   3.897   7.757 -0.5358 -0.3065 -0.0163
14346SOL    HW245193   1.510   3.806   7.877  0.1474  0.7343  0.7088
14347SOL     OW45194   4.128   0.426   7.438  0.0017 -0.3515 -0.2964
14347SOL    HW145195   4.053   0.385   7.481  0.8437 -1.5386  0.1167
14347SOL    HW245196   4.091   0.470   7.361 -1.7800  3.1091  2.2697
14348SOL     OW45197   4.891   1.039   6.833  0.4752 -0.3254 -0.3083
14348SOL    HW145198   4.962   1.069   6.776  0.3637  0.9024  0.1679
14348SOL    HW245199   4.813   1.038   6.777  0.3534  0.9445 -0.1923
14349SOL     OW45200   1.530   3.942   0.924 -0.5656 -0.0600 -0.1450
14349SOL    HW145201   1.579   3.988   0.992  1.8191 -1.0021 -1.1172
14349SOL    HW245202   1.521   4.005   0.853  0.8504 -0.3816 -0.6465
14350SOL     OW45203   6.282   3.851   6.151  0.4541  0.1997  0.5384
14350SOL    HW145204   6.377   3.860   6.139  0.3311  0.1236 -0.6395
14350SOL    HW245205   6.245   3.883   6.069 -0.5788  0.8426  1.2315
14351SOL     OW45206   0.938   0.247   7.123 -0.2281  0.1878 -0.3428
14351SOL    HW145207   0.973   0.328   7.086  1.4020  0.1812  1.0328
14351SOL    HW245208   0.854   0.273   7.161 -0.1252  1.0419 -0.6615
14352SOL     OW45209   7.403   6.739   7.637 -0.0546  0.0907 -0.1103
14352SOL    HW145210   7.325   6.794   7.636 -0.3495 -0.3235 -0.6154
14352SOL    HW245211   7.447   6.761   7.718 -2.0193 -1.5039  1.5064
14353SOL     OW45212   2.865   5.535   0.051 -0.1417  0.0274 -0.4965
14353SOL    HW145213   2.890   5.442   0.051  1.1513  0.3483  0.4076
14353SOL    HW245214   2.790   5.539  -0.008  1.2886 -1.1877 -2.5590
14354SOL     OW45215   0.390   2.868   0.610 -0.5573  0.7994  0.5145
14354SOL    HW145216   0.406   2.845   0.519 -1.6661  0.7919  0.3154
14354SOL    HW245217   0.478   2.881   0.647  0.0310 -1.4955  0.0706
14355SOL     OW45218   6.287   6.195   5.919 -0.2442  0.3752  0.2132
14355SOL    HW145219   6.210   6.154   5.959 -0.2673  0.4478  0.2426
14355SOL    HW245220   6.283   6.286   5.947 -0.1679  0.3873  0.1838
14356SOL     OW45221   9.510   9.487   3.995  0.0340  0.2850 -0.1727
14356SOL    HW145222   9.551   9.511   3.911  0.9951 -0.9925 -0.1024
14356SOL    HW245223   9.513   9.567   4.047  3.3087  0.1292  0.1321
14357SOL     OW45224   0.618   2.899   2.734  0.1789 -0.2680  0.3382
14357SOL    HW145225   0.709   2.906   2.763 -0.0453  0.9627  0.7870
14357SOL    HW245226   0.608   2.807   2.710  1.1391 -0.7581  1.6737
14358SOL     OW45227   4.518   3.922   1.298  0.0125 -0.4160  0.0430
14358SOL    HW145228   4.516   3.940   1.204  4.2327  0.4901 -0.0482
14358SOL    HW245229   4.522   4.008   1.340  1.8843 -0.8028  0.7527
14359SOL     OW45230   3.266   7.497   1.639  0.1112 -0.2709  0.5036
14359SOL    HW145231   3.226   7.580   1.665  0.1292 -0.0670 -0.0852
14359SOL    HW245232   3.194   7.434   1.640 -0.3955  0.2204 -1.1301
14360SOL     OW45233   2.779   8.254   6.515 -0.4650  0.8266 -0.1985
14360SOL    HW145234   2.731   8.205   6.448  0.4507  1.9847 -1.7763
14360SOL    HW245235   2.840   8.191   6.552 -1.4524 -0.0096  0.0450
14361SOL     OW45236   5.273   6.689   2.681 -0.0651 -0.2040  0.7443
14361SOL    HW145237   5.308   6.691   2.770  1.6984  1.4153  0.0706
14361SOL    HW245238   5.292   6.600   2.650  1.3908 -0.0834  1.2122
14362SOL     OW45239   3.906   5.230   2.633 -0.3000  0.1221  0.2068
14362SOL    HW145240   3.988   5.197   2.598 -0.4159 -0.7776  0.7464
14362SOL    HW245241   3.931   5.286   2.706 -0.1845 -1.5334  1.5030
14363SOL     OW45242   1.699   3.255   6.423  0.2882  0.7527  0.1267
14363SOL    HW145243   1.736   3.172   6.392  0.2252  0.8442 -0.2010
14363SOL    HW245244   1.689   3.243   6.517 -0.0677  0.2548  0.0295
14364SOL     OW45245   1.064   1.942   4.701  0.0170 -0.1995  0.1341
14364SOL    HW145246   0.976   1.974   4.724  0.8737  1.2827  1.6076
14364SOL    HW245247   1.112   1.944   4.784  1.8182  0.3520 -0.8873
14365SOL     OW45248   9.483   8.117   7.916  0.7992 -0.0722  0.3916
14365SOL    HW145249   9.425   8.080   7.850  0.6234  0.1649  0.4108
14365SOL    HW245250   9.438   8.196   7.946  0.9342 -0.1136  0.7095
14366SOL     OW45251   1.867   6.873   1.055 -0.3597 -0.2463 -0.0613
14366SOL    HW145252   1.928   6.805   1.083 -2.0782 -2.2847 -0.9254
14366SOL    HW245253   1.782   6.845   1.090 -1.0841  1.6634 -0.1573
14367SOL     OW45254   6.417   9.297   8.874 -0.2624  0.2120 -0.3248
14367SOL    HW145255   6.485   9.281   8.809 -1.2306 -2.4615 -0.7862
14367SOL    HW245256   6.345   9.335   8.824 -0.0723  0.6226 -0.2963
14368SOL     OW45257   4.017   1.700   4.933  0.4046 -0.1312  0.0918
14368SOL    HW145258   4.004   1.779   4.985  0.5210  0.0379 -0.1364
14368SOL    HW245259   4.111   1.685   4.935  0.3429 -0.5074  0.4896
14369SOL     OW45260   3.192   4.850   0.867 -0.1077 -0.0485 -0.4803
14369SOL    HW145261   3.218   4.941   0.851 -0.1573  0.1045  0.2814
14369SOL    HW245262   3.097   4.851   0.860 -0.3261  0.4438  1.7310
14370SOL     OW45263   8.346   4.665   1.663  0.5974  0.1475  0.2323
14370SOL    HW145264   8.338   4.578   1.701 -0.1712  0.5701  1.0551
14370SOL    HW245265   8.268   4.675   1.608  0.9821  0.1023 -0.3421
14371SOL     OW45266   8.687   2.638   0.595  0.8310 -0.1225  0.1311
14371SOL    HW145267   8.758   2.684   0.551  0.1784  0.3684 -0.4310
14371SOL    HW245268   8.681   2.680   0.681  2.0647 -1.0415  0.7073
14372SOL     OW45269   7.359   7.157   4.171  0.1453 -0.6485  0.1177
14372SOL    HW145270   7.392   7.246   4.181  2.1877 -1.4424  1.1513
14372SOL    HW245271   7.329   7.132   4.258 -2.4989 -0.2873 -0.6076
14373SOL     OW45272   4.950   3.751   3.003  0.5888  0.4987  0.1403
14373SOL    HW145273   5.007   3.673   3.003  0.5582  0.4646 -0.6566
14373SOL    HW245274   5.011   3.824   2.994  0.6665  0.6205  1.5414
14374SOL     OW45275   5.613   6.892   1.385 -0.2437 -0.3580  0.3351
14374SOL    HW145276   5.657   6.852   1.310  1.1967  1.8929 -0.1095
14374SOL    HW245277   5.537   6.937   1.347 -0.4110 -0.5222  0.4716
14375SOL     OW45278   4.034   4.724   0.998  0.5887  0.5367 -0.0550
14375SOL    HW145279   4.070   4.733   0.910 -0.9159  0.2211 -0.7387
14375SOL    HW245280   4.079   4.792   1.050  3.9384 -1.3948 -0.1752
14376SOL     OW45281   4.979   8.814   2.580 -0.3252  0.1968  0.4032
14376SOL    HW145282   4.961   8.830   2.673 -1.3115 -1.0816  0.4569
14376SOL    HW245283   5.055   8.868   2.561 -1.4720  2.2599  1.3702
14377SOL     OW45284   7.200   0.538   0.282  0.0452 -0.1303  0.3455
14377SOL    HW145285   7.164   0.459   0.321  0.3012 -0.4498 -0.0586
14377SOL    HW245286   7.209   0.518   0.189  0.5413  0.2054  0.3126
14378SOL     OW45287   3.005   7.206   0.442  0.0932  0.1843  0.0759
14378SOL    HW145288   2.978   7.268   0.375 -0.5783  0.9308  1.0130
14378SOL    HW245289   3.048   7.135   0.393  0.3799  1.1103 -1.0498
14379SOL     OW45290   6.079   9.442   0.629  0.1812 -0.1471 -0.4896
14379SOL    HW145291   5.995   9.474   0.662  0.6722 -0.0476  0.7137
14379SOL    HW245292   6.076   9.460   0.535 -1.3179 -0.5517 -0.5524
14380SOL     OW45293   0.297   6.789   2.270 -0.1223 -0.2810  0.5319
14380SOL    HW145294   0.243   6.737   2.329  0.3089  0.9578  2.0895
14380SOL    HW245295   0.283   6.880   2.297  0.2210  0.3359 -1.1881
14381SOL     OW45296   3.922   8.356   4.896 -0.6285  0.1651  0.4697
14381SOL    HW145297   3.915   8.394   4.808  1.9522  1.0177  0.5498
14381SOL    HW245298   3.933   8.431   4.954 -3.3157 -0.2961  1.7731
14382SOL     OW45299   7.462   8.903   1.229 -0.0400 -0.2636  0.2596
14382SOL    HW145300   7.367   8.917   1.232  0.1591  1.2203  0.6815
14382SOL    HW245301   7.497   8.984   1.191  1.1588 -0.1202  1.5671
14383SOL     OW45302   0.386   0.686   3.541 -0.1237  0.4928 -0.3129
14383SOL    HW145303   0.304   0.672   3.495 -0.1772  1.6152 -0.5853
14383SOL    HW245304   0.368   0.758   3.601  1.2796  2.4245 -2.0741
14384SOL     OW45305   6.053   2.876   1.208  0.1284  0.3866 -0.6401
14384SOL    HW145306   6.026   2.811   1.273 -0.2024  2.4684  1.4407
14384SOL    HW245307   6.148   2.866   1.202  0.2022  0.3731  0.4263
14385SOL     OW45308   1.352   5.747   0.007 -0.3204 -0.0275 -0.1110
14385SOL    HW145309   1.377   5.659   0.037 -0.1474 -0.7911 -2.3034
14385SOL    HW245310   1.435   5.788  -0.017 -0.3173  1.0857  1.6311
14386SOL     OW45311   4.415   1.675   7.272 -0.2489 -0.5996 -0.8786
14386SOL    HW145312   4.362   1.668   7.192 -0.9809 -0.8983 -0.3699
14386SOL    HW245313   4.426   1.769   7.284  1.5924 -0.5491 -2.4427
14387SOL     OW45314   8.227   8.622   8.276 -0.3481 -0.0037 -0.4220
14387SOL    HW145315   8.275   8.704   8.263  0.8512 -0.8128 -1.3458
14387SOL    HW245316   8.180   8.609   8.194 -1.9881  0.6337  0.3717
14388SOL     OW45317   1.072   1.871   1.007 -0.4875 -0.0243 -0.0121
14388SOL    HW145318   0.982   1.838   1.004 -0.1188 -0.9900 -1.6572
14388SOL    HW245319   1.064   1.961   1.036 -2.1029  0.2735 -1.2614
14389SOL     OW45320   6.961   2.896   5.155  0.1352 -0.1060  0.5803
14389SOL    HW145321   7.050   2.865   5.175  0.0883 -1.4422 -1.0663
14389SOL    HW245322   6.965   2.922   5.063 -1.3469 -0.8750  0.2688
14390SOL     OW45323   9.514   2.896   5.799 -0.0722 -0.8715 -0.0537
14390SOL    HW145324   9.571   2.926   5.728  0.3613 -1.6758 -0.0493
14390SOL    HW245325   9.428   2.934   5.777  0.0814 -1.0119 -0.9518
14391SOL     OW45326   7.936   3.030   5.895  0.1502  0.1009 -0.1583
14391SOL    HW145327   8.014   2.976   5.907 -1.1459 -1.8453 -0.1339
14391SOL    HW245328   7.918   3.064   5.983  1.6115  1.5746 -0.3771
14392SOL     OW45329   2.858   6.891   6.639 -0.3353 -0.3382  0.0597
14392SOL    HW145330   2.779   6.895   6.586 -1.1193 -3.3479  0.8562
14392SOL    HW245331   2.887   6.800   6.634  1.4624  0.0214  2.1043
14393SOL     OW45332   7.360   9.562   8.686  0.1176  0.3788 -0.1706
14393SOL    HW145333   7.326   9.634   8.634 -0.5466  1.5111  1.7422
14393SOL    HW245334   7.285   9.533   8.738  0.6518 -0.9953 -0.1255
14394SOL     OW45335   9.251   2.952   3.908 -0.0339 -0.3439  0.2755
14394SOL    HW145336   9.167   2.906   3.913  0.7667 -2.1215 -1.1904
14394SOL    HW245337   9.267   2.961   3.814  2.2304 -1.7496  0.4457
14395SOL     OW45338   2.819   8.291   2.272 -0.4181 -0.1336 -0.1984
14395SOL    HW145339   2.835   8.229   2.201  1.1332  1.4343 -1.2840
14395SOL    HW245340   2.732   8.327   2.254  0.6282  1.4925 -2.3398
14396SOL     OW45341   0.290   1.297   0.391 -0.2697  0.1084  0.6955
14396SOL    HW145342   0.239   1.332   0.463 -0.0039 -0.2125  1.0406
14396SOL    HW245343   0.247   1.331   0.312  0.2195  1.5358  1.0308
14397SOL     OW45344   7.109   2.635   5.453 -1.0116 -0.1758 -0.2255
14397SOL    HW145345   7.157   2.571   5.400 -0.7792 -1.0572  1.0223
14397SOL    HW245346   7.049   2.677   5.391 -0.4775 -0.9077 -1.2666
14398SOL     OW45347   6.612   3.867   6.778  0.3240  0.6410 -0.0711
14398SOL    HW145348   6.548   3.807   6.818  1.2477  0.2563  0.8607
14398SOL    HW245349   6.576   3.885   6.691 -1.2735  0.7628  0.5650
14399SOL     OW45350   6.288   6.877   4.618 -0.3031 -0.1279  0.1710
14399SOL    HW145351   6.372   6.865   4.663 -0.0088  0.6776 -0.1518
14399SOL    HW245352   6.225   6.829   4.672 -0.1386  1.5592  1.9979
14400SOL     OW45353   2.345   6.328   3.561  0.7850 -0.4795  0.3533
14400SOL    HW145354   2.294   6.385   3.619  1.7930  0.6461  0.1745
14400SOL    HW245355   2.357   6.248   3.611 -2.8618 -1.6948 -0.3399
14401SOL     OW45356   1.489   7.431   9.470 -0.4761  0.0122 -0.3268
14401SOL    HW145357   1.528   7.379   9.399  0.1178  0.7045 -0.5243
14401SOL    HW245358   1.403   7.392   9.484 -0.1141 -0.9122 -0.5874
14402SOL     OW45359   7.625   5.695   2.562  0.1808 -0.1534 -0.2706
14402SOL    HW145360   7.608   5.617   2.510 -0.9595 -1.2000  1.5338
14402SOL    HW245361   7.706   5.732   2.526  0.9128 -2.3312 -1.0139
14403SOL     OW45362   3.352   1.773   5.854  0.2790  0.3870  0.3430
14403SOL    HW145363   3.258   1.792   5.850  0.3760  0.7719 -0.1352
14403SOL    HW245364   3.380   1.810   5.937 -0.4513 -1.8273  1.6744
14404SOL     OW45365   7.601   1.331   5.708  0.0316  0.7938 -0.2703
14404SOL    HW145366   7.625   1.401   5.770  0.2239 -0.0520  0.6315
14404SOL    HW245367   7.519   1.362   5.668 -0.5936  0.9575  1.0826
14405SOL     OW45368   6.082   4.717   0.926  0.2136  0.2684  1.0216
14405SOL    HW145369   6.159   4.767   0.952  0.2628  1.8475 -1.7984
14405SOL    HW245370   6.017   4.783   0.901 -0.9437 -1.0580  0.3829
14406SOL     OW45371   6.255   0.947   0.950  0.1128  0.5837 -0.5857
14406SOL    HW145372   6.173   0.997   0.950  0.3949  1.0775  0.5784
14406SOL    HW245373   6.315   0.999   0.896  0.3826  1.5223  0.5594
14407SOL     OW45374   5.290   7.668   7.120 -0.4335 -0.3171  0.1190
14407SOL    HW145375   5.289   7.583   7.165 -1.7846  0.2272  1.1821
14407SOL    HW245376   5.212   7.667   7.065  0.2722 -0.2702 -0.9117
14408SOL     OW45377   5.251   1.135   1.840  0.0064  0.5449  0.1155
14408SOL    HW145378   5.298   1.135   1.924  1.4516  0.1367 -0.6626
14408SOL    HW245379   5.307   1.084   1.781 -2.7361 -2.5380 -0.1473
14409SOL     OW45380   3.762   3.553   8.556 -0.1156 -0.0302 -0.0447
14409SOL    HW145381   3.823   3.624   8.537 -0.8154  0.9548  1.3101
14409SOL    HW245382   3.793   3.515   8.638 -0.1925 -0.8132 -0.3641
14410SOL     OW45383   4.672   2.761   3.033  0.3267 -0.2544 -0.2208
14410SOL    HW145384   4.631   2.676   3.022 -0.1289 -0.0355 -0.2499
14410SOL    HW245385   4.710   2.781   2.948 -1.2286  0.4237 -0.7997
14411SOL     OW45386   0.465   6.794   8.042 -0.3602  0.7068 -0.5844
14411SOL    HW145387   0.460   6.837   7.956 -1.1021  1.0455 -0.3721
14411SOL    HW245388   0.421   6.710   8.029 -0.9044  0.9642 -0.4075
14412SOL     OW45389   3.620   0.604   0.167 -0.2923 -0.0030  0.0328
14412SOL    HW145390   3.574   0.679   0.132  0.9127  0.1500 -1.2971
14412SOL    HW245391   3.694   0.641   0.214 -0.0303 -0.3327 -0.1128
14413SOL     OW45392   8.284   6.158   4.923  0.1439  0.1718 -0.4899
14413SOL    HW145393   8.366   6.207   4.917 -0.1474  1.3351  2.7222
14413SOL    HW245394   8.306   6.081   4.975 -0.1870 -1.2688 -2.3956
14414SOL     OW45395   8.833   0.468   5.327 -0.1337  0.4672 -0.1548
14414SOL    HW145396   8.764   0.489   5.390 -0.3817 -1.4362  0.2652
14414SOL    HW245397   8.886   0.548   5.322  0.0300  0.6347  2.6775
14415SOL     OW45398   6.640   1.396   8.488 -0.1419 -0.3139  1.1544
14415SOL    HW145399   6.620   1.474   8.539  1.4943  0.3532  0.8415
14415SOL    HW245400   6.729   1.410   8.455 -0.3621 -1.6431 -0.1588
14416SOL     OW45401   4.242   9.018   6.544  0.6020 -0.0316  0.2166
14416SOL    HW145402   4.245   8.925   6.566  1.8320  0.0350  0.3738
14416SOL    HW245403   4.152   9.032   6.514  0.2136 -1.1207  0.8086
14417SOL     OW45404   1.269   3.008   3.218 -0.4192  0.1794 -0.2142
14417SOL    HW145405   1.331   3.054   3.162 -0.1279  0.3667  0.2477
14417SOL    HW245406   1.273   3.056   3.301 -1.7503  0.6724 -0.4053
14418SOL     OW45407   3.625   9.378   7.297  0.8108  0.5972 -0.0319
14418SOL    HW145408   3.596   9.429   7.372  1.8684 -1.1282  1.6370
14418SOL    HW245409   3.568   9.301   7.297  0.9732  0.4656 -0.8750
14419SOL     OW45410   0.618   1.304   5.864 -0.2954  0.3363  0.0434
14419SOL    HW145411   0.593   1.377   5.920 -2.0775  0.1205 -0.4171
14419SOL    HW245412   0.627   1.342   5.777 -0.2182  0.1755 -0.0194
14420SOL     OW45413   8.410   7.861   2.144 -0.0118  0.2906  0.4149
14420SOL    HW145414   8.475   7.920   2.181 -0.5156  0.3843  1.1940
14420SOL    HW245415   8.446   7.773   2.157  0.4689  0.3990 -0.1983
14421SOL     OW45416   3.746   8.000   7.462 -0.4498  0.4601  0.1112
14421SOL    HW145417   3.757   7.919   7.512 -1.1658  0.4109  0.2011
14421SOL    HW245418   3.792   7.984   7.380 -0.0997  0.1777  0.3589
14422SOL     OW45419   3.607   8.489   4.532  0.0809 -0.0737  0.1710
14422SOL    HW145420   3.699   8.463   4.526 -0.0085 -0.4802  0.5350
14422SOL    HW245421   3.564   8.439   4.462 -0.0750 -0.8604  0.8118
14423SOL     OW45422   0.955   1.735   6.635 -0.1033 -0.0688  0.1901
14423SOL    HW145423   0.876   1.755   6.686 -0.8852  0.2815 -1.1091
14423SOL    HW245424   0.929   1.663   6.578  0.1398  0.8220 -1.0767
14424SOL     OW45425   4.858   9.566   9.368  0.1627 -0.0185  0.5487
14424SOL    HW145426   4.781   9.588   9.315 -0.2160 -1.7456  0.3010
14424SOL    HW245427   4.916   9.641   9.359 -0.1868  0.0555 -1.7681
14425SOL     OW45428   2.818   7.556   8.789 -1.0861  0.6482  0.5185
14425SOL    HW145429   2.816   7.649   8.768 -2.1685  0.5297  0.0014
14425SOL    HW245430   2.857   7.551   8.876  0.1090  1.4757  0.0452
14426SOL     OW45431   8.935   5.569   6.706  0.1990  0.8100  0.5829
14426SOL    HW145432   8.937   5.483   6.748 -3.1931  0.4676  0.3520
14426SOL    HW245433   8.892   5.625   6.770 -2.9484  0.8264 -1.3375
14427SOL     OW45434   4.931   5.468   8.204  0.0894  0.1235 -0.3829
14427SOL    HW145435   4.864   5.524   8.165 -0.1037 -0.2652 -0.6163
14427SOL    HW245436   4.966   5.520   8.277 -0.6641  0.2233 -0.0763
14428SOL     OW45437   8.455   5.751   3.581 -0.1680 -0.2433  0.6091
14428SOL    HW145438   8.507   5.829   3.561  0.0898 -0.4112  0.6135
14428SOL    HW245439   8.377   5.784   3.625  0.0002  0.0016  0.7243
14429SOL     OW45440   5.242   3.554   4.932 -0.1205  0.0772  0.6879
14429SOL    HW145441   5.175   3.509   4.983 -0.9481 -0.5062 -0.8272
14429SOL    HW245442   5.318   3.495   4.937 -0.6435 -0.6693  0.1335
14430SOL     OW45443   1.801   8.614   6.270 -0.4770  0.1378 -0.0617
14430SOL    HW145444   1.713   8.584   6.293 -0.1528 -0.4960  0.3705
14430SOL    HW245445   1.794   8.636   6.177 -1.0433 -0.0898 -0.0804
14431SOL     OW45446   6.300   2.866   5.901  0.4217 -0.4064 -0.0132
14431SOL    HW145447   6.389   2.831   5.893 -0.1079 -1.9713  0.6326
14431SOL    HW245448   6.269   2.834   5.985 -1.0038 -0.4749 -0.5375
14432SOL     OW45449   2.755   3.221   9.439 -0.7190 -0.4593  0.1656
14432SOL    HW145450   2.665   3.242   9.412 -0.4987 -1.7088 -1.7451
14432SOL    HW245451   2.810   3.275   9.383 -0.2346  0.7765  1.7687
14433SOL     OW45452   1.282   7.577   8.390  0.4086 -0.1759 -0.0647
14433SOL    HW145453   1.308   7.575   8.298  1.3135  0.0414  0.1763
14433SOL    HW245454   1.323   7.656   8.424 -0.7042  0.2572  0.3071
14434SOL     OW45455   3.954   7.961   7.204 -0.1226  0.0278 -0.5611
14434SOL    HW145456   3.874   7.909   7.204 -0.2234  0.0866  1.9512
14434SOL    HW245457   3.935   8.034   7.144 -0.7929 -1.5229 -2.3343
14435SOL     OW45458   2.726   3.833   0.760  0.6148  0.1133  0.4837
14435SOL    HW145459   2.658   3.784   0.713  0.1766  1.3759 -0.2325
14435SOL    HW245460   2.808   3.788   0.737  0.1463 -0.7963  0.5303
14436SOL     OW45461   5.984   6.129   8.680  0.0983  0.0625 -0.2200
14436SOL    HW145462   5.982   6.209   8.626 -1.7352  1.2781  1.5081
14436SOL    HW245463   6.047   6.148   8.749 -1.6263  0.8482  1.2388
14437SOL     OW45464   4.891   4.657   3.997 -0.1057  0.2238 -0.4324
14437SOL    HW145465   4.965   4.598   3.989 -0.4075 -0.2079 -0.1057
14437SOL    HW245466   4.860   4.645   4.087 -0.5900  0.3702 -0.5717
14438SOL     OW45467   1.148   2.226   0.864  0.0266 -0.0204  0.0498
14438SOL    HW145468   1.167   2.219   0.958 -1.8648  0.2872  0.5129
14438SOL    HW245469   1.062   2.269   0.861 -0.3279 -0.7772 -1.8047
14439SOL     OW45470   9.549   8.024   3.293  0.5247 -0.0349  0.4352
14439SOL    HW145471   9.582   8.100   3.341 -1.4410  1.4215 -0.3629
14439SOL    HW245472   9.465   8.005   3.334  1.8108 -3.1407  1.9323
14440SOL     OW45473   4.348   8.269   4.744 -0.3516 -0.6990  0.6739
14440SOL    HW145474   4.298   8.267   4.826  0.1261 -0.1662  0.9850
14440SOL    HW245475   4.282   8.265   4.675 -0.9743  1.7466  1.0464
14441SOL     OW45476   7.258   3.566   1.456 -0.0158  0.7757 -0.2445
14441SOL    HW145477   7.236   3.654   1.423 -0.0080  2.1334  2.9895
14441SOL    HW245478   7.173   3.523   1.465 -0.3677  1.7112  1.2363
14442SOL     OW45479   0.675   4.102   9.514 -0.2094 -0.7918  0.0551
14442SOL    HW145480   0.759   4.102   9.467  0.2036  0.0870  0.7762
14442SOL    HW245481   0.610   4.087   9.445  0.1530  2.9558 -1.3200
14443SOL     OW45482   4.525   5.698   3.372  0.2008  0.4153  0.1844
14443SOL    HW145483   4.505   5.681   3.465 -1.8146 -0.5805 -0.3612
14443SOL    HW245484   4.559   5.787   3.371  0.3011  0.4425  1.8920
14444SOL     OW45485   1.640   7.296   2.156  0.1434 -0.2097  0.0193
14444SOL    HW145486   1.574   7.355   2.122 -0.2881 -0.1048  1.0118
14444SOL    HW245487   1.659   7.236   2.084 -2.3065 -1.3524  0.2169
14445SOL     OW45488   1.516   3.204   3.617 -0.1401 -0.2700 -0.0445
14445SOL    HW145489   1.526   3.299   3.617  1.1321 -0.3961  0.3440
14445SOL    HW245490   1.588   3.172   3.564 -0.8414 -1.0040 -0.5778
14446SOL     OW45491   0.469   2.642   8.543  0.3061  0.0570  0.0564
14446SOL    HW145492   0.549   2.591   8.557  0.3373 -0.0642 -0.5496
14446SOL    HW245493   0.493   2.731   8.568  0.9736  0.2496 -1.1643
14447SOL     OW45494   4.410   3.287   6.182  0.2221 -0.1472  0.6358
14447SOL    HW145495   4.338   3.234   6.147 -0.1795  0.4616  0.5186
14447SOL    HW245496   4.478   3.282   6.115 -0.7086  1.3731 -0.4984
14448SOL     OW45497   8.698   0.878   5.119 -0.0810  0.2612  0.2886
14448SOL    HW145498   8.688   0.863   5.213 -1.7465 -0.5438  0.0164
14448SOL    HW245499   8.611   0.900   5.088  0.0921 -1.0770 -1.3316
14449SOL     OW45500   2.013   6.963   7.161  0.0010 -0.2882 -0.6127
14449SOL    HW145501   1.941   6.957   7.098  0.3501 -1.1175 -0.9471
14449SOL    HW245502   2.010   6.879   7.207 -1.4196  0.9763  1.7991
14450SOL     OW45503   2.407   8.851   0.840  0.2138  0.1771  0.2031
14450SOL    HW145504   2.420   8.902   0.760  1.3326  0.1917  0.3802
14450SOL    HW245505   2.465   8.892   0.905 -0.2288 -0.2077  0.8600
14451SOL     OW45506   2.835   6.051   0.133 -0.3481  0.5825 -0.0185
14451SOL    HW145507   2.833   6.000   0.052  2.6315  1.4273 -0.7477
14451SOL    HW245508   2.913   6.021   0.179 -1.1837  1.1482  1.8759
14452SOL     OW45509   5.717   4.953   2.277  0.4829 -0.3488  0.6169
14452SOL    HW145510   5.669   4.997   2.208 -0.6380 -2.0441  0.2539
14452SOL    HW245511   5.788   5.014   2.300  0.2420  0.7053 -1.2568
14453SOL     OW45512   5.809   6.261   6.152 -0.1872  0.3025 -0.0644
14453SOL    HW145513   5.731   6.263   6.208  0.3553  0.2508  0.7083
14453SOL    HW245514   5.855   6.342   6.174 -0.3138  0.6347 -0.9633
14454SOL     OW45515   6.245   2.331   6.085  0.2192  0.1231 -0.0068
14454SOL    HW145516   6.150   2.341   6.081  0.0917  1.6893  3.4589
14454SOL    HW245517   6.276   2.353   5.997 -2.5199  0.7415 -0.8932
14455SOL     OW45518   2.317   7.211   3.410 -0.0832  0.1793 -0.0905
14455SOL    HW145519   2.235   7.260   3.402 -0.7636 -0.9032  0.1021
14455SOL    HW245520   2.335   7.179   3.322  1.2178  2.0549 -0.5724
14456SOL     OW45521   7.322   1.400   5.612  0.1451  0.2541  0.2773
14456SOL    HW145522   7.239   1.448   5.609 -0.5537 -0.9104  0.5975
14456SOL    HW245523   7.331   1.374   5.703 -1.3168 -3.2899 -0.4366
14457SOL     OW45524   0.197   0.481   6.412 -0.5706  0.0222 -0.4020
14457SOL    HW145525   0.170   0.497   6.503  1.6397 -1.1288  0.5372
14457SOL    HW245526   0.282   0.523   6.405  0.3508 -1.8609 -1.1902
14458SOL     OW45527   0.068   3.287   7.210  0.0799  0.4787 -0.3646
14458SOL    HW145528  -0.011   3.340   7.203 -0.0019  0.3961 -0.0496
14458SOL    HW245529   0.036   3.197   7.221  0.2122  0.2763 -1.4738
14459SOL     OW45530   1.771   2.025   7.315  0.7076  0.0521 -0.3090
14459SOL    HW145531   1.793   2.118   7.304  3.3084 -0.7237 -3.1910
14459SOL    HW245532   1.840   1.979   7.266 -0.9501 -3.3718  0.3338
14460SOL     OW45533   9.452   5.312   0.494 -0.0750  0.1105  0.0937
14460SOL    HW145534   9.424   5.224   0.467  0.1702 -0.2007  0.8293
14460SOL    HW245535   9.482   5.301   0.584 -0.2945  1.0062  0.2876
14461SOL     OW45536   6.232   3.184   3.478 -0.1586  0.5388 -0.2971
14461SOL    HW145537   6.223   3.126   3.554  1.1663  0.4530 -0.1797
14461SOL    HW245538   6.327   3.197   3.469 -0.2017 -0.2245 -2.5018
14462SOL     OW45539   3.176   2.816   1.971  0.4822 -0.1225  0.1797
14462SOL    HW145540   3.247   2.778   1.918  0.5498  0.8375 -0.4314
14462SOL    HW245541   3.203   2.800   2.061  0.9272 -0.7565 -0.0536
14463SOL     OW45542   7.665   2.387   6.842  0.3758 -0.4654  0.2409
14463SOL    HW145543   7.754   2.399   6.809  0.3690 -0.0971  0.3510
14463SOL    HW245544   7.645   2.468   6.888 -0.3018 -0.2266 -0.4446
14464SOL     OW45545   9.396   8.093   8.597 -0.2336 -0.0435  0.1644
14464SOL    HW145546   9.482   8.084   8.555  1.1528  1.8438  2.3603
14464SOL    HW245547   9.345   8.145   8.535  0.5397 -0.3195 -0.7329
14465SOL     OW45548   1.272   1.771   1.999  0.1155 -0.7260  0.0323
14465SOL    HW145549   1.229   1.687   2.011  0.4296 -1.0436 -0.9786
14465SOL    HW245550   1.259   1.817   2.082  0.5753 -2.0505  0.8555
14466SOL     OW45551   4.780   8.985   2.462 -0.2518  0.5497 -0.2829
14466SOL    HW145552   4.804   9.003   2.371 -0.3563  0.7247 -0.2761
14466SOL    HW245553   4.857   8.940   2.498  0.4686  1.9749  0.0151
14467SOL     OW45554   6.055   3.275   1.836  0.4012  0.6136 -0.1931
14467SOL    HW145555   6.112   3.331   1.889  0.8675  0.3755 -0.4344
14467SOL    HW245556   6.065   3.308   1.747 -0.2902  0.9385 -0.1530
14468SOL     OW45557   7.300   9.476   5.238  0.0887  0.5388 -0.1649
14468SOL    HW145558   7.259   9.561   5.223 -1.4553 -0.1444 -0.0638
14468SOL    HW245559   7.272   9.452   5.326 -0.0786 -0.3639 -0.4523
14469SOL     OW45560   8.031   1.455   0.428 -0.3525 -0.3169  0.2228
14469SOL    HW145561   7.993   1.542   0.415  2.1042  0.9737  1.0199
14469SOL    HW245562   8.053   1.425   0.340 -0.3020  0.3261  0.0131
14470SOL     OW45563   6.825   6.587   5.303 -0.2006  0.3829  0.1726
14470SOL    HW145564   6.892   6.644   5.268  0.3973  0.1192  0.8634
14470SOL    HW245565   6.852   6.499   5.276  0.2308  0.1845  1.2134
14471SOL     OW45566   5.799   5.632   8.940 -0.2062  0.4387  0.0345
14471SOL    HW145567   5.711   5.669   8.950  0.3399  1.4800  1.3883
14471SOL    HW245568   5.847   5.699   8.891  0.1241  0.4036  0.3066
14472SOL     OW45569   3.729   6.009   4.099  0.0698 -0.3042  0.0912
14472SOL    HW145570   3.668   5.946   4.062  1.4684 -1.3873 -0.4296
14472SOL    HW245571   3.768   5.964   4.174 -0.8982  0.9646  1.4306
14473SOL     OW45572   7.832   1.881   6.931  0.0620 -0.7429 -0.0613
14473SOL    HW145573   7.815   1.812   6.866  1.5315  0.2039 -1.5107
14473SOL    HW245574   7.876   1.950   6.883 -0.1879  0.6897  1.6461
14474SOL     OW45575   2.388   6.477   3.973 -0.3334 -0.2980  0.0945
14474SOL    HW145576   2.338   6.432   4.041 -0.9746 -1.9908 -1.4201
14474SOL    HW245577   2.356   6.440   3.891  0.7433  1.3383 -1.1362
14475SOL     OW45578   3.379   7.090   3.868 -0.3333 -0.0119  0.1830
14475SOL    HW145579   3.415   7.120   3.951  0.2882 -2.4603  0.8832
14475SOL    HW245580   3.414   7.001   3.857 -2.3187 -0.6765 -1.4946
14476SOL     OW45581   0.616   5.791   3.900 -0.3544  0.0195  0.1608
14476SOL    HW145582   0.683   5.795   3.831 -1.2534 -2.5842 -0.9930
14476SOL    HW245583   0.666   5.797   3.982  1.1359 -0.2666 -0.6892
14477SOL     OW45584   1.049   6.891   0.936  0.3700  0.0260  0.1294
14477SOL    HW145585   0.971   6.914   0.886  0.4178 -0.0824  0.0031
14477SOL    HW245586   1.049   6.951   1.010  1.1935  1.3605 -0.8993
14478SOL     OW45587   7.787   0.050   9.069  0.2530 -0.1137  0.2018
14478SOL    HW145588   7.821  -0.031   9.030  0.9761  0.1761  0.2112
14478SOL    HW245589   7.692   0.043   9.061  0.3398 -0.6469 -0.4294
14479SOL     OW45590   6.360   3.914   5.831 -0.3217  0.5587  0.3036
14479SOL    HW145591   6.342   3.919   5.738  0.7994  3.3297  0.1481
14479SOL    HW245592   6.427   3.845   5.839 -0.4241  0.3028 -0.9070
14480SOL     OW45593   5.178   3.296   4.362  0.0695  0.1125 -0.0928
14480SOL    HW145594   5.124   3.323   4.288  0.6289  2.2982  0.2199
14480SOL    HW245595   5.268   3.303   4.329  0.2695 -0.7758  0.2337
14481SOL     OW45596   0.228   5.463   2.526  0.1866 -0.7778  0.6794
14481SOL    HW145597   0.163   5.482   2.593  0.8928  0.4892  1.0211
14481SOL    HW245598   0.312   5.464   2.572  0.4307 -3.3558  0.4462
14482SOL     OW45599   6.001   3.435   8.556  0.1574 -0.1638  0.1356
14482SOL    HW145600   6.055   3.400   8.486 -2.4390 -0.1600 -2.0026
14482SOL    HW245601   5.912   3.435   8.521 -1.1708  0.5907  3.1606
14483SOL     OW45602   8.153   1.576   2.681 -0.2116 -0.5036  0.3460
14483SOL    HW145603   8.075   1.525   2.705 -1.3913  1.5362  1.1270
14483SOL    HW245604   8.127   1.621   2.600  1.2852 -2.0770 -1.0852
14484SOL     OW45605   1.245   9.466   4.415  0.2029 -0.7299  0.0705
14484SOL    HW145606   1.178   9.525   4.380  1.7287  0.9675 -0.1104
14484SOL    HW245607   1.280   9.512   4.491  0.0066 -2.3826  1.2158
14485SOL     OW45608   1.887   1.695   0.625 -0.6154  0.1856  0.5567
14485SOL    HW145609   1.952   1.669   0.691  0.4118  0.7969 -0.1920
14485SOL    HW245610   1.938   1.738   0.557 -1.6072 -0.6782 -0.7892
14486SOL     OW45611   9.274   4.143   5.793  0.4684  0.1782 -0.3446
14486SOL    HW145612   9.197   4.118   5.742  0.3087 -2.0689  0.8892
14486SOL    HW245613   9.268   4.239   5.798 -2.0750  0.1176 -0.5674
14487SOL     OW45614   7.216   0.755   8.723 -0.9348  0.4557  0.6113
14487SOL    HW145615   7.261   0.791   8.646 -1.1884 -1.6675 -0.5931
14487SOL    HW245616   7.268   0.680   8.750 -1.6009  0.3504  1.6845
14488SOL     OW45617   9.017   2.844   2.783 -0.5313 -0.2994 -0.0714
14488SOL    HW145618   9.083   2.867   2.717 -1.4994  1.0263 -0.6308
14488SOL    HW245619   8.977   2.764   2.750 -2.1338  1.1917 -2.0807
14489SOL     OW45620   0.679   1.915   0.195 -0.3507  0.7981 -0.0575
14489SOL    HW145621   0.596   1.872   0.171  1.0658 -0.6349 -2.8913
14489SOL    HW245622   0.736   1.843   0.221  0.2780  1.6859  1.0742
14490SOL     OW45623   3.485   4.546   0.556 -0.4258 -0.6000  0.1797
14490SOL    HW145624   3.424   4.482   0.518 -2.9121  2.2162 -1.0242
14490SOL    HW245625   3.438   4.582   0.631 -0.1067  1.3053 -0.4812
14491SOL     OW45626   9.259   6.337   6.818 -0.4131  0.1799  0.3745
14491SOL    HW145627   9.196   6.409   6.822 -1.0346 -0.2625 -0.7774
14491SOL    HW245628   9.343   6.376   6.842 -0.8528  1.1346  0.3950
14492SOL     OW45629   9.600   4.200   1.712 -0.2098 -0.3553  0.7214
14492SOL    HW145630   9.605   4.274   1.652 -1.1011 -0.1666  0.8661
14492SOL    HW245631   9.678   4.148   1.693  1.8375  1.8775  2.2954
14493SOL     OW45632   0.795   7.540   3.908 -0.3271  0.4227  0.3713
14493SOL    HW145633   0.756   7.626   3.891 -0.5162  0.3499  0.4338
14493SOL    HW245634   0.881   7.560   3.946  0.3591  0.5870 -1.2262
14494SOL     OW45635   5.179   8.693   5.251  0.3653  0.0858  0.1666
14494SOL    HW145636   5.086   8.706   5.234  0.4263  0.6366  0.2473
14494SOL    HW245637   5.189   8.708   5.345  0.2883 -1.4766  0.4522
14495SOL     OW45638   7.512   1.394   0.821  0.9071  0.2050 -0.1015
14495SOL    HW145639   7.575   1.452   0.863 -0.3486  0.7406  1.1108
14495SOL    HW245640   7.545   1.306   0.840  0.6592  0.4528  1.5672
14496SOL     OW45641   8.097   2.263   6.706  0.4305 -0.4760  0.2882
14496SOL    HW145642   8.129   2.181   6.668  0.0987 -1.0848  1.2727
14496SOL    HW245643   8.047   2.304   6.636  0.3086 -1.2890 -0.1168
14497SOL     OW45644   4.087   3.786   2.588 -0.1693  0.0389  0.1474
14497SOL    HW145645   4.036   3.812   2.665  1.0844  2.8520  0.1417
14497SOL    HW245646   4.076   3.858   2.526 -2.5485 -2.8475 -3.1819
14498SOL     OW45647   4.882   1.602   7.475  0.1070  0.0073  0.2274
14498SOL    HW145648   4.861   1.693   7.454  0.8893 -0.0637 -0.9922
14498SOL    HW245649   4.848   1.552   7.400  1.4114 -0.4796 -0.0555
14499SOL     OW45650   6.080   2.411   7.900  0.7699  0.0607  0.3298
14499SOL    HW145651   6.150   2.466   7.867 -0.0373 -0.0824 -1.7807
14499SOL    HW245652   6.115   2.322   7.896  0.1207 -0.1546 -1.9467
14500SOL     OW45653   5.798   7.808   1.885  0.3663  0.0685  0.2009
14500SOL    HW145654   5.702   7.806   1.876  0.4141 -1.5732 -0.2636
14500SOL    HW245655   5.813   7.869   1.957 -0.9682  1.0926 -0.3310
14501SOL     OW45656   0.406   6.170   2.588  0.4656  0.4302 -0.1778
14501SOL    HW145657   0.337   6.170   2.521  0.7468 -0.7165 -0.4960
14501SOL    HW245658   0.415   6.078   2.613  1.1896  0.6936  0.5906
14502SOL     OW45659   8.021   2.784   4.295 -1.1510 -0.5217 -0.1740
14502SOL    HW145660   7.931   2.804   4.271 -1.8712 -1.1019  1.7698
14502SOL    HW245661   8.024   2.688   4.299  0.0144 -0.5869 -1.7185
14503SOL     OW45662   6.409   2.062   5.945  0.0231 -0.0844  0.0544
14503SOL    HW145663   6.327   2.014   5.953 -1.2121  1.8239 -0.4199
14503SOL    HW245664   6.396   2.141   5.998  1.1684  0.7312 -0.8295
14504SOL     OW45665   1.669   9.512   0.969  0.3679  0.1095 -0.1089
14504SOL    HW145666   1.590   9.522   0.915  1.8545 -0.3839 -2.5238
14504SOL    HW245667   1.664   9.421   1.000  0.0457  0.0397 -0.3511
14505SOL     OW45668   7.657   9.330   7.288 -0.2911  0.5451  0.6321
14505SOL    HW145669   7.627   9.374   7.209 -0.3549 -0.6149 -0.0123
14505SOL    HW245670   7.582   9.336   7.348 -0.9167 -0.1605 -0.0667
14506SOL     OW45671   3.679   1.163   1.469 -0.3393 -0.0558  0.5356
14506SOL    HW145672   3.761   1.114   1.467 -0.5165 -0.3388 -0.4385
14506SOL    HW245673   3.640   1.140   1.554 -0.5336 -1.8371  0.0038
14507SOL     OW45674   9.579   7.396   7.379 -0.0582 -0.1037 -0.0544
14507SOL    HW145675   9.653   7.361   7.329  0.0816 -0.0873  0.1437
14507SOL    HW245676   9.518   7.322   7.384 -0.7871  0.3348 -1.6162
14508SOL     OW45677   3.677   0.276   2.444 -0.2427 -0.2160 -0.3248
14508SOL    HW145678   3.771   0.290   2.445 -0.3591  1.0273 -1.8347
14508SOL    HW245679   3.643   0.338   2.508 -0.0178 -0.9791  0.5453
14509SOL     OW45680   0.929   1.147   2.677 -0.0500  1.0635 -0.4222
14509SOL    HW145681   0.877   1.079   2.634 -1.1590  1.9734 -0.5371
14509SOL    HW245682   0.932   1.219   2.614  1.8364  0.8409 -0.6574
14510SOL     OW45683   5.153   7.282   3.745  0.5571 -0.3308  0.8286
14510SOL    HW145684   5.162   7.354   3.682 -1.8074  1.4686  2.3506
14510SOL    HW245685   5.238   7.278   3.789  1.4314  0.0321 -0.7398
14511SOL     OW45686   6.571   1.552   7.227 -0.0177  0.7087  0.4197
14511SOL    HW145687   6.642   1.600   7.185  1.3982  1.5824  3.5744
14511SOL    HW245688   6.515   1.619   7.265 -0.7464 -0.0431  0.7043
14512SOL     OW45689   7.497   6.153   0.738 -0.7741 -0.3759 -0.2327
14512SOL    HW145690   7.419   6.160   0.682 -0.1755  0.6368 -0.9739
14512SOL    HW245691   7.567   6.130   0.677 -0.1187  0.6861  0.0988
14513SOL     OW45692   1.345   8.367   8.622 -0.1400  0.1324 -0.2427
14513SOL    HW145693   1.258   8.327   8.625  0.2493 -0.6872  1.6160
14513SOL    HW245694   1.405   8.293   8.631  0.6157  0.9747  2.6824
14514SOL     OW45695   5.889   9.506   8.371 -0.1846  0.2983 -0.4522
14514SOL    HW145696   5.829   9.558   8.425  1.5561  0.5715  1.3337
14514SOL    HW245697   5.831   9.450   8.319 -1.9929  0.0222  1.6859
14515SOL     OW45698   3.293   2.649   2.944  0.0880 -0.1370 -0.0777
14515SOL    HW145699   3.212   2.651   2.995  0.7006  2.2687  0.9608
14515SOL    HW245700   3.269   2.684   2.859  0.0475  0.7781  0.2980
14516SOL     OW45701   2.232   9.121   4.764 -0.7147 -0.3522  0.2874
14516SOL    HW145702   2.171   9.064   4.811 -0.9692 -0.2805  0.0426
14516SOL    HW245703   2.229   9.091   4.673 -0.2119 -0.4973  0.3121
14517SOL     OW45704   8.940   8.447   0.081  0.3039  0.3341 -0.0036
14517SOL    HW145705   8.850   8.436   0.048  0.3060  2.3460 -0.8085
14517SOL    HW245706   8.931   8.438   0.176 -0.8843  1.1019 -0.0179
14518SOL     OW45707   8.727   4.911   6.767  0.4363 -1.0638  0.0932
14518SOL    HW145708   8.770   4.837   6.809 -0.0486 -1.4857 -0.1489
14518SOL    HW245709   8.676   4.872   6.696  0.4043 -0.4695 -0.2180
14519SOL     OW45710   3.768   8.176   8.106  0.1476  0.5858  0.2294
14519SOL    HW145711   3.858   8.197   8.131  0.3265  0.0716  0.0272
14519SOL    HW245712   3.718   8.182   8.187  0.4139  0.6062  0.3915
14520SOL     OW45713   7.095   2.389   9.444 -0.6964  0.4225 -0.2169
14520SOL    HW145714   7.012   2.369   9.489  0.0089  1.8539  1.8917
14520SOL    HW245715   7.099   2.326   9.372 -3.5915  0.3013 -0.3941
14521SOL     OW45716   4.348   3.145   9.240  0.3969  0.4721  0.4509
14521SOL    HW145717   4.296   3.121   9.163  0.1511  2.0531  0.0914
14521SOL    HW245718   4.324   3.236   9.258  2.3982  0.9860  0.7902
14522SOL     OW45719   1.632   8.789   7.891 -0.2189  0.1887  0.1076
14522SOL    HW145720   1.706   8.811   7.834  0.4090 -0.0063  0.8379
14522SOL    HW245721   1.555   8.799   7.835  0.4771 -1.5949 -1.2539
14523SOL     OW45722   3.153   4.011   1.941  0.1084  0.2127 -0.0583
14523SOL    HW145723   3.204   4.052   1.871  0.6826  2.3108  1.5103
14523SOL    HW245724   3.146   3.919   1.914  0.7964  0.8244 -2.5570
14524SOL     OW45725   1.655   8.065   4.559  0.0405  0.2124  0.1031
14524SOL    HW145726   1.649   8.113   4.642 -1.3999 -0.6637  0.5388
14524SOL    HW245727   1.730   8.104   4.514  0.4750  1.1151  1.5518
14525SOL     OW45728   2.552   8.665   2.884 -0.5021 -0.3497  0.3606
14525SOL    HW145729   2.562   8.611   2.962  0.2915  0.1868  0.6394
14525SOL    HW245730   2.548   8.602   2.812 -1.0392 -0.8390  0.8009
14526SOL     OW45731   0.871   7.806   8.492 -0.0663 -0.4588  0.7856
14526SOL    HW145732   0.900   7.797   8.583 -2.0000 -2.2843  1.3037
14526SOL    HW245733   0.928   7.746   8.443  0.1272 -0.4618  1.0127
14527SOL     OW45734   2.353   6.259   1.241  0.3350  0.1792 -0.0687
14527SOL    HW145735   2.350   6.342   1.192  2.9263  1.1908  1.2694
14527SOL    HW245736   2.439   6.259   1.282  0.4843 -3.3068 -0.1084
14528SOL     OW45737   7.374   7.027   0.413 -0.1371  0.0722 -0.5154
14528SOL    HW145738   7.442   6.962   0.398 -0.4689  0.4236 -4.4697
14528SOL    HW245739   7.420   7.101   0.452  1.6309 -0.0629 -2.2029
14529SOL     OW45740   0.385   2.304   0.648  0.6880  0.4820 -0.0457
14529SOL    HW145741   0.448   2.236   0.622  0.0598 -0.2291  0.2696
14529SOL    HW245742   0.358   2.279   0.736 -0.7021  0.2884 -0.5116
14530SOL     OW45743   4.689   8.793   5.066 -0.8985 -0.1353  0.3789
14530SOL    HW145744   4.717   8.711   5.106  1.1413 -0.6475 -1.8257
14530SOL    HW245745   4.740   8.861   5.110 -0.3465 -0.4276  0.1976
14531SOL     OW45746   5.627   6.565   5.895 -0.0502 -0.2983 -0.3120
14531SOL    HW145747   5.710   6.610   5.910 -0.3465  0.0915  0.2245
14531SOL    HW245748   5.564   6.636   5.884 -0.7538 -0.5137  1.7985
14532SOL     OW45749   6.753   3.039   5.896  0.1057 -0.0130  0.0008
14532SOL    HW145750   6.782   3.121   5.856 -0.7521  0.3820  0.1763
14532SOL    HW245751   6.729   2.983   5.822 -0.9322  0.5127 -0.0759
14533SOL     OW45752   5.359   6.209   8.629 -0.0300  0.2987 -0.2372
14533SOL    HW145753   5.264   6.208   8.640 -0.0061  0.2740 -0.0082
14533SOL    HW245754   5.386   6.118   8.638 -0.1144  0.1279 -1.5948
14534SOL     OW45755   5.594   1.535   2.531  0.2268 -0.0031 -0.0226
14534SOL    HW145756   5.515   1.587   2.546  0.1504  0.9750 -3.1027
14534SOL    HW245757   5.656   1.566   2.597 -0.6429  2.2036 -0.1643
14535SOL     OW45758   1.340   7.026   2.569  0.1301  0.3516 -0.3056
14535SOL    HW145759   1.408   6.961   2.551 -1.1925 -0.8673 -1.0616
14535SOL    HW245760   1.326   7.070   2.485 -0.5965  0.0108 -0.3686
14536SOL     OW45761   5.414   4.367   0.563  0.3344 -0.2392  0.2685
14536SOL    HW145762   5.426   4.458   0.592  0.6471  0.1974 -1.1301
14536SOL    HW245763   5.491   4.321   0.596  1.8411  0.7269 -1.6342
14537SOL     OW45764   0.992   5.013   2.485  0.3151  0.2417 -0.0411
14537SOL    HW145765   0.927   4.993   2.418  0.6735 -0.2686 -0.2426
14537SOL    HW245766   0.982   5.107   2.501  0.1401  0.3436 -0.7263
14538SOL     OW45767   1.237   6.354   3.917 -0.1835  0.4078  0.3235
14538SOL    HW145768   1.332   6.355   3.912 -0.1388  0.8936  1.0606
14538SOL    HW245769   1.208   6.421   3.855 -0.1417 -1.0482 -1.3187
14539SOL     OW45770   3.534   8.681   6.778 -0.2935 -0.4379 -0.1678
14539SOL    HW145771   3.505   8.616   6.843 -1.8253  0.1582 -0.2190
14539SOL    HW245772   3.519   8.638   6.694 -1.9196  0.1830 -0.2238
14540SOL     OW45773   5.366   6.723   9.004 -0.2101  0.3914  0.0616
14540SOL    HW145774   5.392   6.678   9.085  0.0423 -0.4330 -0.4620
14540SOL    HW245775   5.307   6.792   9.033  0.0553  0.2507  0.9744
14541SOL     OW45776   2.519   1.463   4.256  0.2666  0.1880 -0.1309
14541SOL    HW145777   2.487   1.546   4.221 -0.7585 -0.0590  0.2001
14541SOL    HW245778   2.552   1.485   4.343 -0.0602  0.2406 -0.0188
14542SOL     OW45779   7.881   7.153   4.104  0.4345 -0.1799  0.5388
14542SOL    HW145780   7.807   7.211   4.120  1.0067  1.8322 -2.8467
14542SOL    HW245781   7.844   7.066   4.097 -1.6614  0.7418 -0.8125
14543SOL     OW45782   0.579   8.917   8.262  0.5333  0.3700  0.3603
14543SOL    HW145783   0.521   8.874   8.325  0.4257 -1.7260 -1.0859
14543SOL    HW245784   0.559   9.010   8.271 -2.0143 -0.1649  0.9153
14544SOL     OW45785   9.052   9.179   2.831  0.2710 -0.0325 -0.1614
14544SOL    HW145786   9.081   9.118   2.764 -0.0355 -0.2314 -0.1137
14544SOL    HW245787   9.129   9.235   2.848  0.3018  0.1195 -0.7840
14545SOL     OW45788   8.324   6.154   6.326  0.1207  0.1789 -0.6286
14545SOL    HW145789   8.258   6.124   6.388  0.9547 -0.6775 -0.1304
14545SOL    HW245790   8.323   6.249   6.333 -2.8305  0.4033 -2.4885
14546SOL     OW45791   8.130   0.811   4.188 -0.3233 -0.2440  0.0921
14546SOL    HW145792   8.175   0.793   4.271 -0.4320  0.3984  0.2955
14546SOL    HW245793   8.069   0.739   4.178  1.6479 -1.8752 -0.8437
14547SOL     OW45794   9.190   2.224   0.390  0.6595 -0.9024 -0.4431
14547SOL    HW145795   9.279   2.233   0.358  0.7342  0.5544  0.0880
14547SOL    HW245796   9.193   2.254   0.481 -0.4037 -0.5483 -0.4988
14548SOL     OW45797   1.859   6.265   9.524  0.1239 -0.2850 -0.0255
14548SOL    HW145798   1.881   6.300   9.611 -1.7299 -3.0693  1.7453
14548SOL    HW245799   1.924   6.196   9.510 -1.3690 -1.9176  0.6827
14549SOL     OW45800   3.109   0.270   6.889  0.5475 -0.2043  0.5157
14549SOL    HW145801   3.082   0.179   6.903 -0.1077  0.2033  2.0384
14549SOL    HW245802   3.040   0.323   6.928 -0.4645  1.0835 -2.6986
14550SOL     OW45803   5.001   3.715   5.911  0.0804  0.2022 -0.3706
14550SOL    HW145804   5.051   3.774   5.854 -0.0657 -0.6472 -1.3860
14550SOL    HW245805   5.067   3.680   5.971  0.1448  1.5000  0.3691
14551SOL     OW45806   0.934   5.761   1.762 -0.5010  0.2397 -0.5396
14551SOL    HW145807   1.006   5.730   1.817 -1.6714 -2.0232 -0.1948
14551SOL    HW245808   0.978   5.794   1.683  1.0177  0.8828  0.5130
14552SOL     OW45809   4.128   7.154   8.157 -0.1805  0.1024 -0.3663
14552SOL    HW145810   4.034   7.150   8.173 -0.0968  1.2766  0.5682
14552SOL    HW245811   4.153   7.063   8.139 -1.4921 -0.2095 -0.7362
14553SOL     OW45812   4.957   3.822   7.449 -0.1578 -0.6131 -0.1550
14553SOL    HW145813   4.918   3.908   7.435  1.2637 -0.3111 -2.7669
14553SOL    HW245814   4.987   3.823   7.540  1.9440  2.5840 -0.7450
14554SOL     OW45815   7.190   7.292   7.897  0.1612  0.0498 -0.4289
14554SOL    HW145816   7.222   7.365   7.950 -0.6787 -0.6320  1.0873
14554SOL    HW245817   7.158   7.333   7.816 -0.5915  1.4220  0.5174
14555SOL     OW45818   6.822   0.828   8.139 -0.0308  0.2192 -0.0507
14555SOL    HW145819   6.795   0.918   8.120  0.0939  0.3651  0.4524
14555SOL    HW245820   6.759   0.797   8.203  0.6074  0.3493  0.6572
14556SOL     OW45821   3.915   3.147   9.352  0.1395 -0.6754  0.1785
14556SOL    HW145822   3.882   3.066   9.392 -0.4330 -1.3908 -1.6056
14556SOL    HW245823   3.942   3.120   9.264 -0.5009  1.1678 -0.6317
14557SOL     OW45824   7.373   5.109   6.643  0.3967  0.2048  0.1584
14557SOL    HW145825   7.391   5.189   6.692 -1.9946 -0.2294  1.9866
14557SOL    HW245826   7.426   5.042   6.687  1.3380  0.5173 -0.4821
14558SOL     OW45827   5.411   8.829   2.639  0.3122  0.1198 -0.5820
14558SOL    HW145828   5.428   8.861   2.551 -1.2636  1.5024 -0.4572
14558SOL    HW245829   5.409   8.909   2.693  0.2717 -0.6024  0.5148
14559SOL     OW45830   5.562   4.324   6.720  0.1463 -0.0928 -0.6973
14559SOL    HW145831   5.606   4.253   6.673  0.3661  0.3424 -1.1634
14559SOL    HW245832   5.499   4.359   6.657  0.4402  0.4948 -0.6655
14560SOL     OW45833   8.282   3.541   4.687 -0.0180  0.3909  0.3393
14560SOL    HW145834   8.299   3.606   4.620  1.7091  1.0124  1.3251
14560SOL    HW245835   8.344   3.562   4.758 -0.0595 -1.7380  1.0775
14561SOL     OW45836   5.840   3.772   9.243  0.2601  0.2880 -0.3084
14561SOL    HW145837   5.760   3.779   9.295  0.6709 -0.9093  0.5364
14561SOL    HW245838   5.815   3.723   9.165  0.5983 -2.3013  1.0871
14562SOL     OW45839   3.809   0.405   5.267 -0.2885 -0.2866  0.6616
14562SOL    HW145840   3.784   0.418   5.175 -1.5111  2.9646  1.3361
14562SOL    HW245841   3.750   0.335   5.297 -0.1057 -1.1666 -0.8906
14563SOL     OW45842   4.810   0.512   3.820  0.1072 -0.2275 -0.7822
14563SOL    HW145843   4.799   0.421   3.846  0.0519  0.2662  0.9978
14563SOL    HW245844   4.868   0.508   3.744  1.6010 -1.6213  0.3669
14564SOL     OW45845   2.870   6.071   0.806  0.0706  0.2677  0.2171
14564SOL    HW145846   2.833   6.107   0.725 -0.7933  0.3268  0.6299
14564SOL    HW245847   2.796   6.031   0.851  0.3045  1.2323  1.5214
14565SOL     OW45848   7.784   4.908   7.563 -0.1013  0.3150  0.0688
14565SOL    HW145849   7.799   4.870   7.650  1.1475  1.5551  0.4347
14565SOL    HW245850   7.828   4.993   7.566  0.7986 -0.0054 -2.1036
14566SOL     OW45851   5.430   4.074   8.976 -0.3321  0.6613 -0.3560
14566SOL    HW145852   5.402   4.053   9.065  1.4772  1.0543  0.3527
14566SOL    HW245853   5.516   4.033   8.967  0.0943  1.7106 -1.4653
14567SOL     OW45854   1.970   1.080   3.804  0.1583  0.0338 -0.0661
14567SOL    HW145855   2.013   1.000   3.837 -1.7616 -1.3720 -0.8099
14567SOL    HW245856   2.012   1.095   3.719 -0.2041 -0.8337 -0.4128
14568SOL     OW45857   4.399   1.508   5.745 -0.5889 -0.0315  0.0943
14568SOL    HW145858   4.472   1.551   5.700 -1.8273  1.5290 -0.5404
14568SOL    HW245859   4.324   1.522   5.687 -1.2733 -2.2512  0.3596
14569SOL     OW45860   9.004   8.464   7.830  0.7106  0.3863 -0.0191
14569SOL    HW145861   9.024   8.557   7.820  3.7242 -0.3801 -2.5843
14569SOL    HW245862   9.042   8.441   7.915  2.9217  0.9172 -0.7978
14570SOL     OW45863   7.475   5.130   4.137  0.0852 -0.3940 -0.1516
14570SOL    HW145864   7.422   5.095   4.065  0.9933 -0.2180 -0.9209
14570SOL    HW245865   7.528   5.055   4.166 -0.4868 -0.5409  0.5406
14571SOL     OW45866   5.296   8.634   1.833  0.4563  0.8068 -0.2967
14571SOL    HW145867   5.391   8.627   1.839  0.4905 -0.2170 -1.6059
14571SOL    HW245868   5.268   8.659   1.921  1.8530  0.2133  0.3400
14572SOL     OW45869   5.735   7.011   6.401  0.1359  0.0505 -0.7305
14572SOL    HW145870   5.743   6.986   6.493 -2.1971 -1.8766 -0.9571
14572SOL    HW245871   5.786   7.092   6.394  0.5983  0.1242  2.1691
14573SOL     OW45872   2.107   6.250   5.446  0.1084 -0.2898 -0.3309
14573SOL    HW145873   2.189   6.282   5.483  0.5724  0.8064 -2.1765
14573SOL    HW245874   2.039   6.296   5.495  0.5896 -0.7366  0.7889
14574SOL     OW45875   8.981   6.974   0.908  0.2726  0.2114 -0.5875
14574SOL    HW145876   8.967   7.059   0.950 -1.7222 -0.0231 -0.6908
14574SOL    HW245877   9.017   6.918   0.977  3.0459  1.4564 -0.8811
14575SOL     OW45878   8.387   8.934   6.915 -0.3924  0.4405  0.1419
14575SOL    HW145879   8.419   8.844   6.909 -0.2414  0.4615  0.5745
14575SOL    HW245880   8.323   8.932   6.987 -1.7308  0.3008 -1.0039
14576SOL     OW45881   8.808   6.144   1.060 -0.2211  0.3830  0.3448
14576SOL    HW145882   8.801   6.232   1.023  0.9381  1.1732  1.8624
14576SOL    HW245883   8.878   6.151   1.125 -0.2825 -1.6090  0.7003
14577SOL     OW45884   1.969   6.833   4.753 -0.3832  0.8759  0.0509
14577SOL    HW145885   2.043   6.886   4.723  0.0493 -0.8334 -2.1507
14577SOL    HW245886   1.977   6.833   4.849  3.6532 -0.7307 -0.0741
14578SOL     OW45887   9.052   1.842   0.302 -0.0195 -0.3227 -0.3019
14578SOL    HW145888   9.067   1.748   0.294 -0.2780 -0.4455  0.5547
14578SOL    HW245889   9.056   1.874   0.212  1.8450 -0.8607 -0.4457
14579SOL     OW45890   5.190   3.113   0.650 -0.2859  0.3687 -0.7826
14579SOL    HW145891   5.139   3.084   0.574  1.5225  0.4934 -2.1271
14579SOL    HW245892   5.188   3.039   0.710 -1.3235  0.0656 -1.1655
14580SOL     OW45893   3.046   7.801   0.210  0.3841  0.3854 -0.3163
14580SOL    HW145894   3.097   7.730   0.171 -1.9210 -0.5042 -1.9082
14580SOL    HW245895   3.093   7.881   0.185  1.5935 -0.4332 -0.7424
14581SOL     OW45896   3.738   0.733   4.495 -0.6212  0.5448 -0.1820
14581SOL    HW145897   3.688   0.748   4.415 -3.4221  0.4036  1.3985
14581SOL    HW245898   3.685   0.669   4.544  2.1325 -1.1270  0.8414
14582SOL     OW45899   3.832   6.200   4.525 -0.1063 -0.0524  0.5372
14582SOL    HW145900   3.797   6.116   4.554 -1.8885  0.6316  0.4874
14582SOL    HW245901   3.920   6.203   4.561 -0.3486 -1.5427  1.3174
14583SOL     OW45902   6.438   5.839   0.006 -0.1329  0.0553 -0.6278
14583SOL    HW145903   6.414   5.860   0.097  0.6630  2.9385 -0.9912
14583SOL    HW245904   6.354   5.839  -0.040 -0.2874  1.9426 -0.4346
14584SOL     OW45905   9.310   6.425   3.162  0.3364 -0.0440  0.4566
14584SOL    HW145906   9.372   6.437   3.090 -0.2120 -1.7287 -0.3509
14584SOL    HW245907   9.240   6.488   3.144  0.0556 -0.6539 -0.6857
14585SOL     OW45908   0.038   2.499   8.346 -0.6694 -0.0341  0.4708
14585SOL    HW145909   0.042   2.590   8.318 -0.2719 -0.2549 -0.2248
14585SOL    HW245910   0.130   2.474   8.358 -0.8255 -0.0010  1.8283
14586SOL     OW45911   6.861   0.619   6.007  0.7008  0.0603 -0.3901
14586SOL    HW145912   6.889   0.532   5.978  1.3825  0.0574  0.2452
14586SOL    HW245913   6.768   0.610   6.025  0.6520 -0.3960 -0.8568
14587SOL     OW45914   8.440   3.097   8.981 -0.5381 -0.5520 -0.1114
14587SOL    HW145915   8.499   3.029   8.949 -1.1276 -2.1755  2.0058
14587SOL    HW245916   8.403   3.061   9.062 -2.2017  1.6046  0.1930
14588SOL     OW45917   5.167   3.909   3.175  0.2548 -0.2885  0.0480
14588SOL    HW145918   5.190   3.882   3.264 -0.0408 -0.5862  0.0313
14588SOL    HW245919   5.108   3.983   3.188  0.5463 -0.0569  0.0930
14589SOL     OW45920   9.145   5.930   7.531 -0.1411 -0.5419  0.7245
14589SOL    HW145921   9.059   5.894   7.509 -0.0003 -0.9923  0.8943
14589SOL    HW245922   9.194   5.856   7.566  0.4197 -0.3602  0.3458
14590SOL     OW45923   3.319   0.419   1.129  0.1536  0.8307  0.6119
14590SOL    HW145924   3.294   0.471   1.052 -0.0506 -0.3955 -0.1653
14590SOL    HW245925   3.278   0.465   1.202  0.4975  2.1177  0.0262
14591SOL     OW45926   7.707   2.912   1.265 -0.0479 -0.3069 -0.1025
14591SOL    HW145927   7.662   2.963   1.198  0.2391 -0.4752 -0.4262
14591SOL    HW245928   7.763   2.976   1.309  0.1703 -0.2994 -0.3841
14592SOL     OW45929   4.808   4.925   0.818  0.5437 -0.8246 -0.0489
14592SOL    HW145930   4.793   4.838   0.781  2.7596 -1.5598  0.6161
14592SOL    HW245931   4.892   4.918   0.864  0.7206  1.6282  0.1693
14593SOL     OW45932   6.943   0.139   8.714  0.3765  0.2393  0.6271
14593SOL    HW145933   6.854   0.139   8.748  0.3111 -1.4383  0.5054
14593SOL    HW245934   6.943   0.206   8.646 -0.9971 -0.2771  0.1021
14594SOL     OW45935   7.456   6.413   3.085  0.0705 -0.0490 -0.0582
14594SOL    HW145936   7.479   6.322   3.104 -1.8059 -0.1421  2.2147
14594SOL    HW245937   7.382   6.432   3.142  0.7970  3.1383  0.0640
14595SOL     OW45938   5.544   4.048   0.368 -0.2066  0.1299  0.7777
14595SOL    HW145939   5.491   3.988   0.421 -0.4753 -0.0676  0.2893
14595SOL    HW245940   5.597   3.990   0.314  0.3321  0.3295  1.0849
14596SOL     OW45941   2.012   4.997   8.578 -0.1721 -0.2287  0.4246
14596SOL    HW145942   2.030   4.943   8.655 -2.1412 -0.5130  0.7303
14596SOL    HW245943   1.917   4.998   8.571 -0.0616  0.1136 -1.7824
14597SOL     OW45944   5.647   0.276   4.859 -0.4463 -0.7150  0.8811
14597SOL    HW145945   5.694   0.350   4.820 -0.7814 -1.6004 -1.3491
14597SOL    HW245946   5.618   0.309   4.944  1.4024  0.9233  0.9517
14598SOL     OW45947   4.717   1.072   2.439  0.2427 -0.4836  0.5216
14598SOL    HW145948   4.692   1.158   2.472  1.9374 -0.1666  1.1170
14598SOL    HW245949   4.781   1.089   2.371  0.9660 -1.2602  0.9767
14599SOL     OW45950   4.124   5.679   6.313  0.0730  0.2525  0.4518
14599SOL    HW145951   4.196   5.664   6.374 -1.4827 -0.8859  2.0893
14599SOL    HW245952   4.062   5.735   6.361 -0.5898  0.4426 -0.5784
14600SOL     OW45953   8.147   5.585   6.984 -0.1354  0.4229  0.1196
14600SOL    HW145954   8.164   5.679   6.984  0.1971  0.4061 -1.5659
14600SOL    HW245955   8.219   5.548   6.932 -0.5603 -0.6922  0.3051
14601SOL     OW45956   5.233   1.523   4.496 -0.2252 -0.1983  0.4948
14601SOL    HW145957   5.313   1.575   4.493 -0.4547  0.3030  2.0839
14601SOL    HW245958   5.224   1.499   4.588 -0.8354 -1.9623  0.0054
14602SOL     OW45959   6.799   2.190   4.278  0.2637 -0.6193 -0.0179
14602SOL    HW145960   6.867   2.141   4.324  0.9173 -0.9812 -1.3269
14602SOL    HW245961   6.727   2.128   4.267  0.2300 -0.6243  0.2295
14603SOL     OW45962   3.028   3.980   1.266 -0.3098 -0.1884  0.3652
14603SOL    HW145963   3.006   3.904   1.212 -1.4382  0.9233 -0.8078
14603SOL    HW245964   3.124   3.976   1.274 -0.3778 -1.9195  0.6523
14604SOL     OW45965   3.632   7.467   4.645  0.1700  0.2468  0.1319
14604SOL    HW145966   3.599   7.419   4.721 -1.8201  2.4596  0.7840
14604SOL    HW245967   3.667   7.400   4.587 -2.5309 -2.0223  0.9256
14605SOL     OW45968   3.034   9.184   5.824  0.2948 -0.0986  0.3803
14605SOL    HW145969   2.944   9.202   5.797  1.0774  1.7697 -1.2400
14605SOL    HW245970   3.048   9.241   5.900 -0.1805 -1.2209  1.3502
14606SOL     OW45971   7.094   2.727   1.833  0.6268  0.6627 -0.4350
14606SOL    HW145972   7.172   2.682   1.868 -0.7372 -1.2444  0.3360
14606SOL    HW245973   7.074   2.794   1.899 -0.9771 -1.8519  1.8393
14607SOL     OW45974   6.280   4.467   2.852  0.3006  0.0654  0.1806
14607SOL    HW145975   6.355   4.522   2.874  0.0499  0.9209 -0.9814
14607SOL    HW245976   6.314   4.404   2.788 -0.0438  0.6744 -0.6072
14608SOL     OW45977   6.597   9.354   0.794 -0.1625  0.1400  0.2337
14608SOL    HW145978   6.573   9.407   0.718  1.3135 -0.9003 -1.0577
14608SOL    HW245979   6.577   9.264   0.767  0.7165 -0.2759  0.9269
14609SOL     OW45980   1.813   8.683   7.215  0.3153  0.0541 -0.4014
14609SOL    HW145981   1.741   8.637   7.173  0.2181  0.9640 -1.2815
14609SOL    HW245982   1.814   8.650   7.305 -0.1351 -1.1734 -0.8254
14610SOL     OW45983   3.211   1.656   9.007  0.4736 -0.2637 -0.3702
14610SOL    HW145984   3.274   1.684   9.074  0.1164 -1.0103  0.3086
14610SOL    HW245985   3.142   1.721   9.010 -0.0091 -0.7843  0.6943
14611SOL     OW45986   1.581   9.626   5.835  0.1552 -0.0448 -0.4390
14611SOL    HW145987   1.602   9.600   5.924 -0.3356  0.2914 -0.2222
14611SOL    HW245988   1.489   9.602   5.823  0.8737 -2.5758 -1.7681
14612SOL     OW45989   2.567   1.116   5.349 -0.4394  0.2112 -0.5482
14612SOL    HW145990   2.598   1.061   5.277 -1.1206 -0.7347 -0.1406
14612SOL    HW245991   2.492   1.068   5.384  1.0141 -0.3498  2.0448
14613SOL     OW45992   4.439   8.710   3.027  0.4932  0.0138 -0.3014
14613SOL    HW145993   4.443   8.759   3.109  3.2850 -2.3809  1.1713
14613SOL    HW245994   4.352   8.673   3.025  0.0097  1.0160  0.9878
14614SOL     OW45995   5.361   1.237   4.734  0.4088 -0.4664 -0.7022
14614SOL    HW145996   5.329   1.200   4.652 -0.1202 -0.4790 -0.4987
14614SOL    HW245997   5.311   1.318   4.746 -4.0052 -3.1387  2.4104
14615SOL     OW45998   3.784   8.791   7.102 -0.2125 -0.0015 -0.0099
14615SOL    HW145999   3.817   8.717   7.051 -0.8416 -0.8409  0.7459
14615SOL    HW246000   3.704   8.818   7.057 -0.1352  0.0183 -0.1328
14616SOL     OW46001   8.889   5.565   4.166 -0.0085 -0.3774  0.4450
14616SOL    HW146002   8.971   5.614   4.161  0.5086 -1.3009 -0.4863
14616SOL    HW246003   8.863   5.552   4.075 -1.0104 -0.4022  0.7239
14617SOL     OW46004   5.168   2.034   3.487  0.5296  0.6245  0.1170
14617SOL    HW146005   5.129   2.077   3.563 -0.5215 -0.0842  0.0058
14617SOL    HW246006   5.147   2.092   3.414 -1.1597 -0.1714 -0.0817
14618SOL     OW46007   7.332   4.505   7.430 -0.6003  0.3511  0.6099
14618SOL    HW146008   7.351   4.481   7.340 -0.4700 -0.2482  0.7867
14618SOL    HW246009   7.413   4.486   7.477  0.4117  3.4990  0.3839
14619SOL     OW46010   1.642   1.396   7.619  0.2145  0.2819  0.0905
14619SOL    HW146011   1.649   1.310   7.660 -0.6551 -0.1432 -0.6328
14619SOL    HW246012   1.575   1.442   7.669  0.3848  0.3980  0.2159
14620SOL     OW46013   9.384   9.009   7.653  0.4364 -0.6263 -0.4722
14620SOL    HW146014   9.312   8.990   7.592  0.5437 -0.3277 -0.6903
14620SOL    HW246015   9.427   9.085   7.616  0.2095 -0.1457  0.2379
14621SOL     OW46016   0.937   3.444   0.539 -0.4936  0.1156  0.5291
14621SOL    HW146017   1.017   3.451   0.485 -1.0186 -0.3261 -0.3296
14621SOL    HW246018   0.970   3.432   0.628  0.4021  0.4145  0.2552
14622SOL     OW46019   5.891   3.182   8.630 -0.2485  0.0635 -0.0601
14622SOL    HW146020   5.929   3.266   8.603 -0.9520  0.9674  1.5876
14622SOL    HW246021   5.941   3.117   8.582 -0.7412  1.4557 -2.6434
14623SOL     OW46022   9.421   5.556   6.189  0.0736  0.4097  0.3282
14623SOL    HW146023   9.365   5.608   6.247 -0.4029  3.1775 -2.3602
14623SOL    HW246024   9.365   5.484   6.160 -1.1449  1.4351  0.0291
14624SOL     OW46025   0.275   4.119   5.501  0.1728 -0.3653  0.0461
14624SOL    HW146026   0.280   4.167   5.419 -1.8355  0.0153  0.0940
14624SOL    HW246027   0.363   4.083   5.514  0.3059 -1.2861 -2.7790
14625SOL     OW46028   9.002   6.630   4.172 -0.3541 -0.3631  0.1261
14625SOL    HW146029   9.018   6.724   4.187 -0.0505 -0.4405  0.2854
14625SOL    HW246030   8.921   6.612   4.219 -1.1508  0.1186 -1.0022
14626SOL     OW46031   9.115   8.249   8.391 -0.1808 -0.4956 -0.3290
14626SOL    HW146032   9.023   8.223   8.384  0.0560 -1.1897 -0.9347
14626SOL    HW246033   9.161   8.193   8.329  0.3725  1.2369 -1.5737
14627SOL     OW46034   6.831   3.561   1.716 -0.4108  0.0896  0.0397
14627SOL    HW146035   6.886   3.581   1.792  0.3250  0.2036 -0.5101
14627SOL    HW246036   6.772   3.492   1.747 -0.0443  0.0520  0.6752
14628SOL     OW46037   0.873   6.615   1.139  0.3254  0.8524 -0.2236
14628SOL    HW146038   0.842   6.643   1.226  0.9810 -2.2651  1.1287
14628SOL    HW246039   0.813   6.658   1.078 -0.5121  2.7253  1.7547
14629SOL     OW46040   5.485   8.262   8.942  0.2444 -0.0901 -0.4872
14629SOL    HW146041   5.401   8.309   8.944  0.2895  0.0072 -0.9041
14629SOL    HW246042   5.527   8.292   8.862  0.7668  0.0072 -0.1793
14630SOL     OW46043   8.731   7.128   6.874  0.1237 -0.6636  0.8591
14630SOL    HW146044   8.776   7.084   6.803  0.1640  0.6178  0.0470
14630SOL    HW246045   8.781   7.105   6.953  1.1335 -0.6947  0.2242
14631SOL     OW46046   2.023   2.580   9.571 -0.1965  0.2352 -0.1631
14631SOL    HW146047   1.973   2.513   9.526  0.8993 -1.1737  0.6509
14631SOL    HW246048   2.103   2.536   9.599 -0.0226  1.5347  1.5479
14632SOL     OW46049   9.589   7.768   7.388 -0.1606  0.1232  0.6978
14632SOL    HW146050   9.557   7.687   7.428 -1.1416 -0.7547 -1.6608
14632SOL    HW246051   9.509   7.814   7.361  0.4198  0.1461 -1.1287
14633SOL     OW46052   3.491   9.321   2.396  0.0361  0.3030 -0.1791
14633SOL    HW146053   3.546   9.376   2.451  0.5817 -1.1897  0.8227
14633SOL    HW246054   3.474   9.374   2.318 -0.1257  2.1824  1.0641
14634SOL     OW46055   1.900   6.632   9.004 -0.0367  0.2999  0.1316
14634SOL    HW146056   1.818   6.605   9.044 -0.0622  0.4424  0.1754
14634SOL    HW246057   1.904   6.582   8.923  0.8858 -1.3465  1.1540
14635SOL     OW46058   3.984   5.379   8.191  0.0523  0.4693 -0.3471
14635SOL    HW146059   4.063   5.400   8.141 -0.1529  0.1111 -0.8320
14635SOL    HW246060   4.010   5.392   8.283  0.6908  0.3042 -0.4948
14636SOL     OW46061   2.181   3.466   0.945 -0.3190  0.2174  0.1959
14636SOL    HW146062   2.202   3.373   0.958  0.3754  0.5044  1.2250
14636SOL    HW246063   2.088   3.466   0.921 -0.3581 -0.7297  0.2919
14637SOL     OW46064   8.869   7.883   1.188 -0.3900  0.2828 -0.3534
14637SOL    HW146065   8.872   7.861   1.095 -0.6611  1.3312 -0.6232
14637SOL    HW246066   8.792   7.838   1.221 -0.8309  0.6546 -0.8548
14638SOL     OW46067   3.989   0.897   4.072 -0.1128  0.0616 -0.1986
14638SOL    HW146068   3.946   0.817   4.102  0.3857 -0.1609 -0.0602
14638SOL    HW246069   4.072   0.866   4.034  1.7863  0.7167  2.9776
14639SOL     OW46070   2.290   4.308   3.612  0.0315  0.5806  0.1892
14639SOL    HW146071   2.378   4.315   3.576  0.5116 -0.8067  0.9970
14639SOL    HW246072   2.298   4.337   3.703 -0.2528  0.1466  0.3606
14640SOL     OW46073   8.909   5.997   9.071 -0.2742 -0.0372  0.4034
14640SOL    HW146074   8.942   6.009   9.160 -1.1571  1.7403  0.5378
14640SOL    HW246075   8.986   6.006   9.016  0.5319 -2.5246  0.9922
14641SOL     OW46076   0.792   6.168   4.080  0.0840  0.4232 -0.8159
14641SOL    HW146077   0.871   6.182   4.028 -0.5847  2.9431 -1.2762
14641SOL    HW246078   0.795   6.075   4.103  3.6602  0.5906 -0.0095
14642SOL     OW46079   3.644   0.894   8.530  0.0101  0.4378 -0.1759
14642SOL    HW146080   3.692   0.834   8.473  0.1230  0.2933  0.0694
14642SOL    HW246081   3.563   0.912   8.482 -1.0183 -1.5934  0.6442
14643SOL     OW46082   9.222   7.899   9.363  0.0503 -0.1302  0.1027
14643SOL    HW146083   9.183   7.983   9.338 -0.3652 -0.6928 -1.2473
14643SOL    HW246084   9.279   7.877   9.289  0.3500 -0.9096  0.5604
14644SOL     OW46085   7.248   4.992   8.079 -0.2979  0.5567 -0.3939
14644SOL    HW146086   7.232   4.927   8.147  1.2632 -0.7001 -1.1806
14644SOL    HW246087   7.296   5.062   8.123  0.6209 -0.2074 -0.1690
14645SOL     OW46088   4.688   6.804   3.408 -0.1149  0.0429 -0.3797
14645SOL    HW146089   4.717   6.715   3.431  1.8489  0.6629 -0.2423
14645SOL    HW246090   4.670   6.799   3.314  1.1041 -0.2625 -0.6210
14646SOL     OW46091   2.147   2.790   0.790  0.2673  0.3207  0.0775
14646SOL    HW146092   2.166   2.842   0.868  3.1131 -1.1691  0.5182
14646SOL    HW246093   2.079   2.729   0.818  1.2575 -0.2085  1.4545
14647SOL     OW46094   1.774   7.411   3.817  0.1562 -0.3116 -0.0341
14647SOL    HW146095   1.711   7.348   3.853 -0.1730  0.4978  0.8379
14647SOL    HW246096   1.735   7.496   3.833  0.2255  0.1049 -1.9417
14648SOL     OW46097   8.376   5.232   7.333  0.0621  0.5723  0.3963
14648SOL    HW146098   8.368   5.151   7.282 -0.4004  2.5686 -3.0178
14648SOL    HW246099   8.468   5.235   7.360  0.3793 -0.5143 -0.4983
14649SOL     OW46100   2.995   5.835   1.121  0.5811  0.1782 -0.0234
14649SOL    HW146101   3.083   5.799   1.135  0.5983 -0.0824 -0.7677
14649SOL    HW246102   2.948   5.767   1.073  0.2161  0.6346 -0.3309
14650SOL     OW46103   3.410   4.154   0.853  0.6704  0.3924  0.3323
14650SOL    HW146104   3.421   4.189   0.765  1.8799  0.9731  0.6949
14650SOL    HW246105   3.315   4.150   0.866  0.4354 -0.9028 -1.4501
14651SOL     OW46106   3.137   7.855   8.082  0.2929 -0.1064  0.5184
14651SOL    HW146107   3.162   7.944   8.106  0.7105  0.1085 -0.6316
14651SOL    HW246108   3.150   7.804   8.161  2.8056  0.3170  0.4663
14652SOL     OW46109   7.332   9.188   1.457  0.2712  0.0924 -0.0288
14652SOL    HW146110   7.426   9.190   1.440  0.1034 -0.8175 -1.1734
14652SOL    HW246111   7.297   9.127   1.392 -1.2810  1.3875 -0.4781
14653SOL     OW46112   6.525   9.087   6.451 -0.0726 -0.2784 -0.0685
14653SOL    HW146113   6.489   9.174   6.466 -0.7547 -0.1478 -2.0438
14653SOL    HW246114   6.583   9.071   6.525 -1.3109  1.0901  1.2827
14654SOL     OW46115   4.656   7.053   2.252  0.2843  0.1012 -0.4480
14654SOL    HW146116   4.638   7.146   2.266 -0.9932 -0.2220  0.2310
14654SOL    HW246117   4.697   7.024   2.334 -1.9236 -0.5235  0.5129
14655SOL     OW46118   7.320   4.221   5.442 -0.5651 -0.0494  0.8012
14655SOL    HW146119   7.306   4.234   5.535  0.1214 -0.3004  0.9491
14655SOL    HW246120   7.357   4.133   5.435 -1.1692 -0.2586  0.2332
14656SOL     OW46121   3.441   0.391   4.012  0.2362  0.1560 -0.3603
14656SOL    HW146122   3.462   0.310   4.059 -2.6334 -0.9631 -0.8556
14656SOL    HW246123   3.482   0.381   3.927  1.3080  0.0091  0.1530
14657SOL     OW46124   6.622   6.229   1.556  0.0616  0.1678 -0.6269
14657SOL    HW146125   6.717   6.233   1.562 -0.0165 -0.0839  2.0866
14657SOL    HW246126   6.604   6.146   1.512  1.1208 -1.2549  1.4799
14658SOL     OW46127   6.859   9.368   2.981  0.6113  0.4272  0.2075
14658SOL    HW146128   6.949   9.391   3.003  0.9996  0.1616 -1.0169
14658SOL    HW246129   6.830   9.439   2.923  0.6517 -0.3767 -0.8323
14659SOL     OW46130   1.584   6.751   1.535  0.0652  0.3519 -0.5992
14659SOL    HW146131   1.503   6.794   1.507 -0.2635  0.1523  0.0221
14659SOL    HW246132   1.607   6.694   1.462 -0.4882  0.2307 -0.6859
14660SOL     OW46133   0.273   6.643   6.884 -0.0636  0.0879 -0.1076
14660SOL    HW146134   0.354   6.599   6.859 -0.2320 -0.1539 -0.2283
14660SOL    HW246135   0.215   6.633   6.808 -0.9451 -1.5476  0.7476
14661SOL     OW46136   2.644   4.765   0.119 -0.0553  0.5276 -0.0470
14661SOL    HW146137   2.609   4.838   0.068  0.9820  0.7294 -0.4943
14661SOL    HW246138   2.640   4.794   0.210 -1.5241  0.3327 -0.0319
14662SOL     OW46139   4.261   3.586   1.975  0.1424  0.0156 -0.6664
14662SOL    HW146140   4.244   3.655   1.911 -3.7554 -1.9297 -2.0571
14662SOL    HW246141   4.275   3.507   1.922  0.8379 -0.9506  0.8859
14663SOL     OW46142   3.984   5.665   1.210 -0.1491  0.2490  0.3636
14663SOL    HW146143   3.955   5.756   1.209 -1.1293 -0.0498  0.4180
14663SOL    HW246144   4.015   5.648   1.122 -0.9360  0.3473  0.0547
14664SOL     OW46145   5.084   3.168   6.297 -0.6692 -0.2349  0.0457
14664SOL    HW146146   5.053   3.081   6.271  0.0709 -0.4929 -0.0121
14664SOL    HW246147   5.180   3.161   6.293 -0.5655  1.3512 -2.5869
14665SOL     OW46148   3.720   0.918   3.298 -0.1506  0.1894 -0.4116
14665SOL    HW146149   3.777   0.991   3.273 -0.0145  0.9817  1.8958
14665SOL    HW246150   3.657   0.910   3.227  1.6479  0.5766 -2.1218
14666SOL     OW46151   4.347   5.515   0.639  0.4365  0.5164 -0.4357
14666SOL    HW146152   4.346   5.606   0.609 -0.1514 -0.5995 -4.3744
14666SOL    HW246153   4.439   5.496   0.656  0.5468  1.8386  0.5878
14667SOL     OW46154   8.839   8.802   4.122 -0.2755 -0.1892  0.5430
14667SOL    HW146155   8.823   8.820   4.030  1.0219  1.1734  0.5354
14667SOL    HW246156   8.813   8.711   4.134 -0.0888 -0.5138 -1.2612
14668SOL     OW46157   0.201   2.142   1.188  0.0651 -0.4246 -0.4491
14668SOL    HW146158   0.246   2.146   1.103 -0.2475  0.0328 -0.5932
14668SOL    HW246159   0.156   2.057   1.186 -3.0347  1.0989 -2.3338
14669SOL     OW46160   5.973   3.604   4.383  0.2983 -0.2471  0.3031
14669SOL    HW146161   5.935   3.685   4.348 -2.8739 -1.5701  0.3754
14669SOL    HW246162   6.006   3.558   4.306 -0.5510 -0.1626 -0.1201
14670SOL     OW46163   0.976   4.029   3.681 -0.4067  0.3297  0.0201
14670SOL    HW146164   1.039   3.964   3.712 -1.1291  0.6333  2.2615
14670SOL    HW246165   0.909   4.031   3.748 -2.0778  1.0878 -1.5981
14671SOL     OW46166   7.075   3.097   3.792  0.5039  0.0145  0.6174
14671SOL    HW146167   6.983   3.100   3.765  1.3067 -0.4115 -2.6298
14671SOL    HW246168   7.081   3.019   3.847 -1.3203  0.9382  2.2480
14672SOL     OW46169   1.927   4.107   2.736  0.2920  0.6799  0.4302
14672SOL    HW146170   1.832   4.113   2.732  0.3327  1.3861  0.3251
14672SOL    HW246171   1.953   4.077   2.649  0.1250 -0.1786  0.6729
14673SOL     OW46172   5.267   7.781   8.024 -0.5844  0.7792  0.0494
14673SOL    HW146173   5.297   7.693   8.049 -1.2168  0.7202  0.6461
14673SOL    HW246174   5.343   7.837   8.041  0.0065  0.2756 -0.8575
14674SOL     OW46175   3.939   2.933   5.354  0.4934 -0.0904  0.1943
14674SOL    HW146176   3.886   3.004   5.389 -0.7126 -0.6275 -0.4890
14674SOL    HW246177   3.882   2.888   5.292  1.2039 -1.6914  0.6517
14675SOL     OW46178   3.661   6.686   6.946  0.0629  0.4041 -0.6807
14675SOL    HW146179   3.662   6.667   6.852 -1.6285 -2.0225 -0.2998
14675SOL    HW246180   3.737   6.639   6.980 -0.4548 -0.3947 -0.6002
14676SOL     OW46181   5.626   9.193   7.807 -1.4851 -0.0637 -0.2203
14676SOL    HW146182   5.624   9.289   7.815  1.7027 -0.0687  3.6996
14676SOL    HW246183   5.570   9.163   7.879 -1.9884 -1.2100 -1.0646
14677SOL     OW46184   2.436   9.399   5.522 -0.2926  0.1163  0.4559
14677SOL    HW146185   2.429   9.382   5.616  0.7267 -1.0408  0.3474
14677SOL    HW246186   2.360   9.354   5.484 -1.3851  1.5831  0.8011
14678SOL     OW46187   2.045   3.739   3.363  0.2594 -0.0017  0.2390
14678SOL    HW146188   2.058   3.683   3.286  0.1137 -0.5060  0.5834
14678SOL    HW246189   1.957   3.720   3.392 -0.1264  1.0661 -0.1684
14679SOL     OW46190   6.500   4.695   6.072  0.7120  0.2378  0.1010
14679SOL    HW146191   6.455   4.649   6.143 -0.1793  2.0555  0.7874
14679SOL    HW246192   6.590   4.705   6.103  0.4187  0.6984  0.8525
14680SOL     OW46193   7.131   8.760   6.196 -0.5455  0.3422 -0.7994
14680SOL    HW146194   7.215   8.714   6.193 -0.5639  0.2295  0.2010
14680SOL    HW246195   7.142   8.832   6.134  0.3035  0.3556 -0.6515
14681SOL     OW46196   1.477   9.254   8.900  0.3045 -0.0750 -0.0759
14681SOL    HW146197   1.485   9.335   8.849  0.3527  0.3059  0.5366
14681SOL    HW246198   1.409   9.272   8.964  0.2271 -0.5637 -0.0216
14682SOL     OW46199   9.065   8.071   1.904 -0.0775  0.3758 -0.4340
14682SOL    HW146200   9.024   8.055   1.989 -1.4611 -0.5803 -1.2437
14682SOL    HW246201   9.159   8.063   1.921 -0.3253  0.2683  1.0174
14683SOL     OW46202   8.819   4.831   3.794 -0.1789 -0.2308  0.0695
14683SOL    HW146203   8.872   4.841   3.715 -1.0994 -0.7901 -0.6480
14683SOL    HW246204   8.736   4.874   3.772 -0.7991 -1.2336  0.3644
14684SOL     OW46205   5.216   8.688   8.345  0.0424  0.4107 -0.2576
14684SOL    HW146206   5.238   8.768   8.297 -1.7912  0.1357 -1.6335
14684SOL    HW246207   5.192   8.720   8.433  1.3459  1.1227 -0.1245
14685SOL     OW46208   2.778   1.350   5.709  0.7369 -0.4347  0.2709
14685SOL    HW146209   2.738   1.301   5.637  1.6209 -0.7751  0.0024
14685SOL    HW246210   2.710   1.353   5.776  0.2731 -1.0363 -0.1564
14686SOL     OW46211   8.212   1.089   5.130 -0.2667 -0.9601  0.2988
14686SOL    HW146212   8.123   1.063   5.154 -1.4559 -0.3613 -2.8331
14686SOL    HW246213   8.217   1.182   5.154 -1.1268 -0.5811 -0.8588
14687SOL     OW46214   3.989   8.303   3.500 -0.3616 -0.3449 -0.4380
14687SOL    HW146215   3.983   8.279   3.408  0.2503  0.0210 -0.5754
14687SOL    HW246216   4.055   8.372   3.503 -0.3114 -0.4175  0.2860
14688SOL     OW46217   6.745   2.424   3.858 -0.4136  1.0497  0.4521
14688SOL    HW146218   6.784   2.507   3.887 -0.0072  0.9618  0.1641
14688SOL    HW246219   6.783   2.409   3.771 -0.4247  0.5197  0.5357
14689SOL     OW46220   4.729   0.106   7.276  0.0266 -0.3391 -0.3699
14689SOL    HW146221   4.802   0.100   7.336 -0.6857  0.1765  0.5758
14689SOL    HW246222   4.664   0.045   7.311  0.1770 -1.1757 -1.4824
14690SOL     OW46223   7.619   7.427   8.134 -0.0070  0.7447 -0.2225
14690SOL    HW146224   7.703   7.472   8.125  0.2356  0.0617 -1.5638
14690SOL    HW246225   7.609   7.414   8.229  1.0729  1.4337  0.0022
14691SOL     OW46226   3.948   8.946   9.082 -0.3670 -0.1355 -0.5523
14691SOL    HW146227   4.023   8.929   9.025  1.0226  0.1949  1.1202
14691SOL    HW246228   3.978   8.923   9.169 -2.8905 -1.9210 -0.0564
14692SOL     OW46229   5.624   2.046   1.043  0.1122  0.0757  0.5130
14692SOL    HW146230   5.697   2.104   1.024 -0.0501 -0.1592 -0.8717
14692SOL    HW246231   5.657   1.958   1.026 -0.5784 -0.0092 -0.4629
14693SOL     OW46232   7.352   7.279   4.648  0.3442  0.0247 -0.4794
14693SOL    HW146233   7.363   7.374   4.655 -1.1519  0.1130  2.8127
14693SOL    HW246234   7.259   7.264   4.668  0.6970 -2.1740 -0.2117
14694SOL     OW46235   1.087   5.411   9.428  0.3628  0.1614  0.8988
14694SOL    HW146236   1.123   5.432   9.342 -1.9111  0.1862 -0.1220
14694SOL    HW246237   1.061   5.495   9.465  0.6780  0.0824  1.3056
14695SOL     OW46238   4.357   7.794   6.870  0.3311  0.1829  0.7114
14695SOL    HW146239   4.349   7.785   6.775  1.3985 -0.8325  0.6900
14695SOL    HW246240   4.275   7.835   6.898 -0.6855 -0.9845 -0.4575
14696SOL     OW46241   0.383   5.689   0.890  0.5130 -0.1433  0.2607
14696SOL    HW146242   0.403   5.770   0.843 -1.0159  0.5820  0.7731
14696SOL    HW246243   0.296   5.705   0.928  0.1757 -2.0253  0.3752
14697SOL     OW46244   8.358   8.783   5.283 -0.3127 -0.3413  0.4125
14697SOL    HW146245   8.338   8.870   5.249  0.5259 -0.1349  0.4072
14697SOL    HW246246   8.287   8.764   5.344 -0.4246  0.4184  0.5353
14698SOL     OW46247   3.468   9.022   2.073 -0.2726  0.1368 -0.2696
14698SOL    HW146248   3.549   9.006   2.121 -0.1746 -2.5561 -1.1590
14698SOL    HW246249   3.438   9.107   2.105  2.1709  0.5976  1.0821
14699SOL     OW46250   4.505   8.905   7.265  0.5524 -0.8185  0.6211
14699SOL    HW146251   4.529   8.812   7.265  1.5364 -0.5723  0.9284
14699SOL    HW246252   4.588   8.951   7.251  0.2499  0.0615  1.6390
14700SOL     OW46253   5.404   5.434   7.693  0.2612  0.1755  0.1830
14700SOL    HW146254   5.382   5.522   7.661  2.9757  0.8449 -0.1251
14700SOL    HW246255   5.377   5.375   7.622  3.0963  1.3281 -2.0732
14701SOL     OW46256   3.532   4.870   6.634  0.0518  0.8008 -0.1913
14701SOL    HW146257   3.597   4.837   6.696  2.7001  2.5313 -1.8347
14701SOL    HW246258   3.509   4.957   6.667  0.2144  1.0572 -0.7440
14702SOL     OW46259   3.389   1.356   6.750  0.2907 -0.5801  0.0424
14702SOL    HW146260   3.451   1.375   6.679  0.6363  0.1332  0.5286
14702SOL    HW246261   3.350   1.440   6.771 -1.3115 -1.0974 -0.6499
14703SOL     OW46262   5.670   1.318   2.386  0.1579 -0.0381 -0.5799
14703SOL    HW146263   5.649   1.398   2.434  1.6079  0.8526 -1.3598
14703SOL    HW246264   5.635   1.248   2.440 -1.1598  1.1080  0.1219
14704SOL     OW46265   1.933   9.397   1.050 -0.2266 -0.1091 -0.0462
14704SOL    HW146266   1.851   9.434   1.015  0.5270  1.7665  0.0770
14704SOL    HW246267   1.954   9.453   1.125  0.1229 -1.8343  1.2063
14705SOL     OW46268   7.737   5.472   0.610 -0.0556  0.0862 -0.0618
14705SOL    HW146269   7.645   5.459   0.632  0.4464 -3.0898  0.7395
14705SOL    HW246270   7.768   5.536   0.674 -1.4809  0.4251  0.3164
14706SOL     OW46271   7.404   1.481   8.314 -0.4003 -0.6109  0.1366
14706SOL    HW146272   7.485   1.478   8.365 -0.2844  0.3220  0.0349
14706SOL    HW246273   7.433   1.483   8.223 -0.5705 -1.2549  0.0705
14707SOL     OW46274   4.269   7.843   0.499  0.4355  0.6654  0.4532
14707SOL    HW146275   4.225   7.844   0.414 -2.2977 -2.1133  1.6372
14707SOL    HW246276   4.306   7.755   0.507 -0.6937  0.2895  2.6210
14708SOL     OW46277   0.364   3.139   7.632 -0.3586 -0.1997  0.4462
14708SOL    HW146278   0.334   3.049   7.624 -0.8255 -0.1824  1.7257
14708SOL    HW246279   0.453   3.139   7.597  0.2659 -1.5255  1.9529
14709SOL     OW46280   5.367   8.298   5.261 -0.3323 -0.3575 -0.5686
14709SOL    HW146281   5.286   8.248   5.268  0.3596 -1.3946  0.5843
14709SOL    HW246282   5.386   8.300   5.167 -2.4365  1.2086 -1.0264
14710SOL     OW46283   0.640   7.399   6.263  0.0264 -0.0965  0.4609
14710SOL    HW146284   0.641   7.337   6.336  2.7175 -0.9768 -0.1878
14710SOL    HW246285   0.681   7.351   6.191  0.1445  1.7147 -0.7515
14711SOL     OW46286   1.799   4.906   2.414 -0.1038  0.3620  0.0560
14711SOL    HW146287   1.804   4.853   2.334  0.6669  0.8185 -0.2076
14711SOL    HW246288   1.757   4.988   2.385  0.1346  0.5090  0.1295
14712SOL     OW46289   8.701   7.219   2.548 -0.1709  0.3634  0.5631
14712SOL    HW146290   8.664   7.192   2.633 -1.1498 -1.1081 -0.2687
14712SOL    HW246291   8.624   7.232   2.492  0.4662  1.1440 -0.1509
14713SOL     OW46292   5.030   5.792   5.507 -0.1122 -0.0014 -0.6986
14713SOL    HW146293   4.999   5.719   5.560 -1.5960 -0.2932 -1.8921
14713SOL    HW246294   5.125   5.784   5.508 -0.1520 -0.5985  1.0237
14714SOL     OW46295   5.855   4.607   7.940  0.3254  0.2625  0.2342
14714SOL    HW146296   5.875   4.526   7.988  0.3381  1.2668  2.0197
14714SOL    HW246297   5.816   4.577   7.858  1.6752 -1.5764  0.1955
14715SOL     OW46298   5.516   6.936   5.814  0.0364 -0.0263  0.0388
14715SOL    HW146299   5.481   6.935   5.903 -0.3197  2.3441 -0.0155
14715SOL    HW246300   5.505   7.026   5.784 -1.3499 -1.0596 -3.0356
14716SOL     OW46301   6.100   3.279   7.969  0.1892  0.0123 -0.1702
14716SOL    HW146302   6.134   3.259   8.056 -0.1356 -0.2649 -0.1037
14716SOL    HW246303   6.128   3.206   7.914  2.5487  1.3794 -0.8998
14717SOL     OW46304   5.863   4.793   5.793 -0.1902 -0.2985  0.0165
14717SOL    HW146305   5.841   4.880   5.826 -0.4048 -0.0426 -0.7641
14717SOL    HW246306   5.925   4.758   5.856 -1.6141 -0.3860  1.4187
14718SOL     OW46307   3.931   6.658   3.309 -0.3280 -0.1144 -0.4615
14718SOL    HW146308   4.004   6.718   3.326  0.4902 -1.2011 -0.0545
14718SOL    HW246309   3.948   6.624   3.221 -0.9653  0.4760 -0.8215
14719SOL     OW46310   2.977   1.778   6.157 -0.0945 -0.2431  0.1396
14719SOL    HW146311   2.899   1.829   6.137  0.3143  0.4322  0.2250
14719SOL    HW246312   2.973   1.764   6.252  0.5304  0.9027  0.3542
14720SOL     OW46313   6.228   0.028   3.226 -0.0764 -0.2105  0.8898
14720SOL    HW146314   6.294  -0.007   3.285  0.0014  0.3608  1.1483
14720SOL    HW246315   6.187  -0.049   3.187  0.0730 -0.5893  1.4669
14721SOL     OW46316   0.737   7.624   3.476 -0.1965  0.1788 -0.4208
14721SOL    HW146317   0.711   7.569   3.550  1.7816  1.5157  1.3916
14721SOL    HW246318   0.788   7.565   3.421 -0.8834 -0.6028 -0.2563
14722SOL     OW46319   4.055   0.258   3.972  0.1132 -0.6202  0.6093
14722SOL    HW146320   4.111   0.327   4.005  1.3112 -1.0230 -0.4969
14722SOL    HW246321   3.978   0.304   3.938 -0.0535 -0.0276  1.7301
14723SOL     OW46322   0.200   6.376   1.012  0.0463 -0.1803 -0.4791
14723SOL    HW146323   0.271   6.377   0.947  0.0527  0.2191 -0.4673
14723SOL    HW246324   0.124   6.345   0.963  0.2423 -0.6846 -0.4743
14724SOL     OW46325   5.091   4.635   9.063  0.5696 -0.6242  0.3377
14724SOL    HW146326   5.004   4.674   9.071  0.9596  0.0505  1.7506
14724SOL    HW246327   5.147   4.691   9.118  2.0272 -0.6726 -1.0446
14725SOL     OW46328   0.967   3.971   7.587  0.1336  0.6752  0.0265
14725SOL    HW146329   0.926   4.031   7.649 -0.2845  0.7484 -0.3091
14725SOL    HW246330   1.057   3.962   7.617 -0.8437 -1.9413  2.6333
14726SOL     OW46331   4.141   7.004   4.880  0.0371  0.1407 -0.2828
14726SOL    HW146332   4.183   7.075   4.929 -0.6907 -0.4525  1.2717
14726SOL    HW246333   4.213   6.947   4.855  0.3010 -0.4738  1.7053
14727SOL     OW46334   6.910   3.588   2.342 -0.0525  0.1649 -1.1053
14727SOL    HW146335   6.815   3.598   2.340  0.1022  1.9982 -2.1760
14727SOL    HW246336   6.926   3.494   2.337 -1.7956 -0.0951 -2.3771
14728SOL     OW46337   5.954   8.546   8.213  0.1642  0.1241  0.1786
14728SOL    HW146338   5.967   8.591   8.130 -1.1495  0.6819  0.2434
14728SOL    HW246339   5.866   8.509   8.207 -0.3470  0.9979  1.6672
14729SOL     OW46340   7.205   5.777   0.239 -0.0183 -0.0583  0.1907
14729SOL    HW146341   7.281   5.832   0.221  0.3668 -0.5924  0.1736
14729SOL    HW246342   7.182   5.739   0.154  0.3385 -0.7134  0.3815
14730SOL     OW46343   3.663   5.679   7.182 -0.2618  0.0863  0.0695
14730SOL    HW146344   3.680   5.630   7.263 -0.4424  0.5711  0.4041
14730SOL    HW246345   3.594   5.629   7.138  0.2462 -0.5049 -0.0784
14731SOL     OW46346   6.889   6.007   4.661  0.4975  0.8578 -0.4134
14731SOL    HW146347   6.799   6.031   4.641 -0.0182 -0.7203 -0.1598
14731SOL    HW246348   6.903   6.034   4.751 -0.7133 -1.3934  0.5245
14732SOL     OW46349   1.723   8.003   0.127  0.0437  0.3038 -0.1525
14732SOL    HW146350   1.781   7.927   0.116  0.8006  0.8268  0.1638
14732SOL    HW246351   1.735   8.029   0.218  0.8308  1.6358 -0.6168
14733SOL     OW46352   5.302   1.074   2.348  0.4452  0.1647  0.7876
14733SOL    HW146353   5.343   0.990   2.366 -0.0231  0.0362  1.2743
14733SOL    HW246354   5.240   1.086   2.419 -1.9111 -0.6349 -0.9933
14734SOL     OW46355   3.489   8.751   8.890  0.2693  0.0897  0.2876
14734SOL    HW146356   3.543   8.762   8.811 -0.9943  0.2439 -0.5918
14734SOL    HW246357   3.440   8.834   8.897  1.3819  0.6522  2.0641
14735SOL     OW46358   6.740   0.691   9.063 -0.2703 -0.4770  0.4002
14735SOL    HW146359   6.700   0.734   9.138  0.8642 -0.1200  0.8253
14735SOL    HW246360   6.738   0.757   8.993  0.5742 -0.0481  0.7604
14736SOL     OW46361   7.765   0.249   7.918  0.1158 -0.3770 -0.2623
14736SOL    HW146362   7.839   0.226   7.863 -1.0386 -0.6159 -1.7919
14736SOL    HW246363   7.695   0.188   7.892 -1.1668  0.9852 -0.1667
14737SOL     OW46364   4.527   5.267   6.684  0.5495  0.6512 -0.5533
14737SOL    HW146365   4.605   5.231   6.726  1.1558  0.1691 -2.0637
14737SOL    HW246366   4.457   5.205   6.705  1.1087 -0.2335 -1.2612
14738SOL     OW46367   7.102   1.313   4.781 -0.0804 -0.1213  0.0476
14738SOL    HW146368   7.120   1.231   4.825 -1.6709 -0.3987  0.2400
14738SOL    HW246369   7.091   1.290   4.689 -0.8822 -0.2126  0.1518
14739SOL     OW46370   0.639   8.612   8.481 -0.0517 -0.3686  0.3883
14739SOL    HW146371   0.689   8.568   8.411 -3.3759 -4.5349  0.1997
14739SOL    HW246372   0.638   8.548   8.552 -0.7177  1.8226  2.4442
14740SOL     OW46373   6.665   2.188   0.565  0.0336 -0.0060 -0.0343
14740SOL    HW146374   6.746   2.240   0.565  0.8129 -1.1599  1.2034
14740SOL    HW246375   6.630   2.198   0.653 -1.4544  0.8397 -0.6862
14741SOL     OW46376   7.893   5.889   7.187  0.3105  0.2174 -0.0806
14741SOL    HW146377   7.948   5.827   7.236  1.5468  1.7314  0.5329
14741SOL    HW246378   7.824   5.913   7.249 -0.3003 -0.6746 -0.3940
14742SOL     OW46379   7.482   9.403   4.675 -0.0964 -0.0658  0.3951
14742SOL    HW146380   7.514   9.481   4.719  0.7287  0.6964 -1.4659
14742SOL    HW246381   7.388   9.419   4.662  0.0172  0.5076  0.2605
14743SOL     OW46382   8.430   3.035   1.669  0.5462  0.0244 -0.0626
14743SOL    HW146383   8.475   3.004   1.748  1.7108 -0.5459 -0.9213
14743SOL    HW246384   8.341   3.002   1.678  0.5630  0.2626  1.1759
14744SOL     OW46385   5.326   8.239   2.655  0.3179 -0.0581  0.2557
14744SOL    HW146386   5.416   8.231   2.688  0.1601  1.2916  1.1167
14744SOL    HW246387   5.271   8.211   2.728  0.0270 -0.2217 -0.0259
14745SOL     OW46388   9.542   2.309   7.088 -0.2145 -0.3458 -0.6309
14745SOL    HW146389   9.614   2.344   7.035  0.4212  0.2314  0.5474
14745SOL    HW246390   9.586   2.256   7.155 -1.0100 -1.3214 -0.8746
14746SOL     OW46391   6.424   2.448   4.338 -0.5112 -0.7524 -0.0843
14746SOL    HW146392   6.413   2.494   4.421  1.8152  3.0065 -1.6217
14746SOL    HW246393   6.517   2.426   4.334  0.1351  1.8018 -2.7381
14747SOL     OW46394   2.507   6.344   3.314  0.2084  0.3044  0.7002
14747SOL    HW146395   2.458   6.297   3.381  1.2587 -2.2160 -0.1595
14747SOL    HW246396   2.583   6.380   3.359 -0.5307  1.0445  1.3592
14748SOL     OW46397   7.904   8.288   3.284  0.4296  0.3688  0.1880
14748SOL    HW146398   7.983   8.235   3.280  1.0103  1.2588 -0.5713
14748SOL    HW246399   7.859   8.258   3.363  0.5864 -1.4300 -0.3579
14749SOL     OW46400   0.228   3.367   7.004 -0.2321  0.0097 -0.2085
14749SOL    HW146401   0.232   3.285   6.955  1.8589 -0.6677  0.9959
14749SOL    HW246402   0.187   3.343   7.088 -0.5649  0.4327 -0.2446
14750SOL     OW46403   7.960   1.836   7.169  0.3426  0.3932  0.1540
14750SOL    HW146404   7.906   1.847   7.091  0.2027  0.7889  0.3027
14750SOL    HW246405   7.914   1.885   7.237  0.0320 -0.6393  0.7002
14751SOL     OW46406   5.151   0.957   0.538 -0.6136  0.1151  0.0156
14751SOL    HW146407   5.227   1.015   0.529 -1.1351  0.6195 -1.5405
14751SOL    HW246408   5.081   1.014   0.571 -1.0030  0.3029 -1.0788
14752SOL     OW46409   6.876   6.286   5.817 -0.2411 -0.1212  0.8992
14752SOL    HW146410   6.909   6.289   5.907  1.3250 -1.6353  0.4352
14752SOL    HW246411   6.793   6.240   5.823 -0.3460  0.1588  1.6254
14753SOL     OW46412   4.399   3.544   2.374 -0.1977  0.1238 -0.4418
14753SOL    HW146413   4.485   3.585   2.373  0.0920 -0.3498  1.2183
14753SOL    HW246414   4.404   3.475   2.309  0.3100  0.7904 -1.1246
14754SOL     OW46415   7.358   5.380   0.034  0.4573  0.0033 -0.0244
14754SOL    HW146416   7.379   5.303   0.086 -0.5375 -0.0276  0.3449
14754SOL    HW246417   7.267   5.368   0.007  0.4436  0.8064 -0.3786
14755SOL     OW46418   6.814   6.416   0.507  0.0039  0.3669  0.0593
14755SOL    HW146419   6.736   6.419   0.451  0.7480 -0.5206 -1.0745
14755SOL    HW246420   6.887   6.430   0.446  0.7664  0.7037  1.0278
14756SOL     OW46421   4.725   4.463   0.190 -0.9523  0.0422  0.5337
14756SOL    HW146422   4.680   4.486   0.109 -1.7211 -1.8515  0.3750
14756SOL    HW246423   4.682   4.383   0.220  2.9207 -2.5875 -0.2018
14757SOL     OW46424   6.893   2.290   2.460 -0.0643 -0.0194  0.1969
14757SOL    HW146425   6.841   2.357   2.505  0.6009  0.5442  0.1541
14757SOL    HW246426   6.975   2.287   2.510 -0.0300 -0.7086  0.1085
14758SOL     OW46427   0.622   0.679   6.983  0.3663  0.0246 -0.3258
14758SOL    HW146428   0.712   0.681   7.017  0.6168 -0.0512 -0.9729
14758SOL    HW246429   0.580   0.607   7.029  0.9126 -0.5300 -0.6897
14759SOL     OW46430   5.065   6.104   0.660  0.1463 -0.4458  0.2635
14759SOL    HW146431   5.044   6.011   0.666  0.7674 -0.5312  1.3773
14759SOL    HW246432   5.159   6.107   0.644  0.4561 -0.0234  1.9509
14760SOL     OW46433   7.477   9.269   9.536  0.1106  0.2580 -0.2070
14760SOL    HW146434   7.428   9.350   9.525 -1.6753 -0.6014  0.8877
14760SOL    HW246435   7.528   9.260   9.456 -0.3247  2.0087 -0.7195
14761SOL     OW46436   8.041   4.399   7.438 -0.0233 -0.2778  0.1248
14761SOL    HW146437   7.966   4.439   7.481  0.0840  1.6153 -1.3213
14761SOL    HW246438   8.003   4.336   7.376 -0.6164  1.9339 -1.8929
14762SOL     OW46439   7.537   8.790   2.816  0.0147  0.7957  0.2200
14762SOL    HW146440   7.630   8.782   2.836 -0.4028  0.7131  2.3468
14762SOL    HW246441   7.515   8.709   2.771  1.0569  1.0571 -0.8183
14763SOL     OW46442   2.375   4.631   9.506 -0.3137 -0.4608 -0.6945
14763SOL    HW146443   2.347   4.617   9.596  1.8795  1.5341  0.3892
14763SOL    HW246444   2.313   4.695   9.471  0.0802  0.3984  0.1415
14764SOL     OW46445   4.897   6.840   8.181  0.4038 -0.7055 -0.1034
14764SOL    HW146446   4.872   6.799   8.264  3.5639 -0.7411  0.9760
14764SOL    HW246447   4.843   6.918   8.175 -0.0711 -0.8296  1.8839
14765SOL     OW46448   3.879   1.891   8.875  0.1873  0.2866 -0.2834
14765SOL    HW146449   3.832   1.851   8.948 -0.9867 -2.5055 -2.3886
14765SOL    HW246450   3.813   1.941   8.828  0.2158 -0.4009 -1.0690
14766SOL     OW46451   0.390   8.798   9.015  0.6287 -0.5373 -0.1003
14766SOL    HW146452   0.379   8.709   9.049 -0.1939  0.3253  2.0862
14766SOL    HW246453   0.464   8.834   9.064  0.4488  0.2423 -0.3828
14767SOL     OW46454   9.504   3.690   1.722 -0.2789 -0.0611 -0.2326
14767SOL    HW146455   9.568   3.743   1.769  0.0586 -1.6896  1.2615
14767SOL    HW246456   9.428   3.685   1.781 -0.4095 -0.9703 -0.4578
14768SOL     OW46457   3.082   1.563   7.481  0.0379  0.0585 -0.0935
14768SOL    HW146458   3.072   1.631   7.415 -0.4234 -0.2687 -0.3699
14768SOL    HW246459   3.065   1.481   7.433  1.9781 -0.3902 -0.1131
14769SOL     OW46460   9.222   5.703   6.863 -0.5240  0.6600  0.1538
14769SOL    HW146461   9.240   5.707   6.957  0.5422 -0.3396  0.0038
14769SOL    HW246462   9.305   5.724   6.821 -0.9491  0.9210 -0.5786
14770SOL     OW46463   6.037   8.586   3.815  0.6332  0.4043  0.2280
14770SOL    HW146464   6.077   8.556   3.732  1.5548  2.5213 -0.1476
14770SOL    HW246465   5.980   8.513   3.841  1.1439 -0.7712 -1.6988
14771SOL     OW46466   6.700   5.539   1.569  0.7337  0.4670 -0.2341
14771SOL    HW146467   6.608   5.565   1.575  0.5469 -0.4365  1.4541
14771SOL    HW246468   6.748   5.622   1.562 -0.0441  1.1980  2.0835
14772SOL     OW46469   2.253   4.462   1.698  0.3473  0.9343 -0.3295
14772SOL    HW146470   2.159   4.456   1.685  0.6585  1.7473 -3.9101
14772SOL    HW246471   2.290   4.392   1.645  1.8261  0.3389  1.3683
14773SOL     OW46472   1.523   5.619   0.608  0.5487  0.3956 -0.2599
14773SOL    HW146473   1.456   5.658   0.664 -0.5405  0.6800 -1.6811
14773SOL    HW246474   1.492   5.635   0.519  2.4833  0.4567 -0.9780
14774SOL     OW46475   2.514   4.076   4.301 -0.2322 -0.7717 -0.9474
14774SOL    HW146476   2.557   4.129   4.233 -1.0272 -0.9003 -1.5682
14774SOL    HW246477   2.559   3.991   4.297  0.4906 -0.4193 -0.5160
14775SOL     OW46478   9.006   3.848   8.643 -0.5066 -0.0900  0.0987
14775SOL    HW146479   8.982   3.758   8.664  0.3146 -0.7809 -1.7092
14775SOL    HW246480   8.938   3.902   8.684 -1.0039 -1.5210  1.2084
14776SOL     OW46481   7.324   5.648   0.437  0.3034  0.2866 -0.5101
14776SOL    HW146482   7.365   5.577   0.387 -2.4033 -0.5999 -1.6585
14776SOL    HW246483   7.277   5.699   0.371  0.4296  1.8884  0.5896
14777SOL     OW46484   1.221   8.634   5.623  0.2423  0.5532  0.1051
14777SOL    HW146485   1.225   8.592   5.709 -0.5707  1.2274  0.4917
14777SOL    HW246486   1.282   8.708   5.630  1.1337 -0.1309 -0.3337
14778SOL     OW46487   6.300   3.011   9.550  0.3994  0.1485  0.5885
14778SOL    HW146488   6.230   2.946   9.553  1.4744 -1.1729 -1.0194
14778SOL    HW246489   6.259   3.089   9.513 -0.3816 -0.3884  0.3058
14779SOL     OW46490   2.062   2.946   6.316  0.0166 -0.3415  0.1502
14779SOL    HW146491   2.049   2.903   6.401 -0.8603  1.4864  1.0011
14779SOL    HW246492   2.144   2.994   6.326  0.3547 -0.8049 -0.3542
14780SOL     OW46493   4.059   1.168   2.698 -0.1264 -0.0805  0.8351
14780SOL    HW146494   4.153   1.167   2.682 -0.2132 -0.7277  0.3458
14780SOL    HW246495   4.047   1.109   2.772 -0.0955  0.3992  1.2290
14781SOL     OW46496   2.250   3.227   2.598 -0.5453  0.2002 -0.1153
14781SOL    HW146497   2.234   3.210   2.690  2.8171 -1.2388  0.3668
14781SOL    HW246498   2.198   3.162   2.551 -0.3588 -0.7253  0.9355
14782SOL     OW46499   7.868   7.431   1.284 -0.0392 -0.4110  0.1092
14782SOL    HW146500   7.811   7.371   1.331 -1.0086  0.0144 -0.4886
14782SOL    HW246501   7.822   7.515   1.286 -0.0067 -0.3230 -1.3632
14783SOL     OW46502   0.681   3.355   1.326  0.2663  0.1423 -0.1418
14783SOL    HW146503   0.604   3.315   1.367  0.3039 -0.5112 -0.6884
14783SOL    HW246504   0.709   3.291   1.260 -1.9550  2.6257 -3.8484
14784SOL     OW46505   3.903   7.159   6.036  0.1443  0.5261 -0.2509
14784SOL    HW146506   3.859   7.074   6.039  0.1925  0.4656 -1.0079
14784SOL    HW246507   3.886   7.198   6.121 -0.1876 -0.0895 -0.0278
14785SOL     OW46508   6.048   3.227   7.492 -0.3764  0.1159 -0.3353
14785SOL    HW146509   5.957   3.238   7.522  0.2487  3.8962  0.6903
14785SOL    HW246510   6.042   3.230   7.397 -1.2486  2.1399 -0.2668
14786SOL     OW46511   0.109   7.589   5.912  0.6431 -0.3755  0.2692
14786SOL    HW146512   0.074   7.530   5.845  0.5844  0.5231 -0.5076
14786SOL    HW246513   0.032   7.628   5.953  0.6832 -0.7920  0.7569
14787SOL     OW46514   5.661   9.247   0.115 -0.1171 -0.4228 -0.5322
14787SOL    HW146515   5.683   9.196   0.036 -0.2709 -0.9500 -0.2410
14787SOL    HW246516   5.657   9.182   0.185  0.6356  0.1291  0.0376
14788SOL     OW46517   4.773   6.787   0.275 -0.0315 -0.1252 -0.0889
14788SOL    HW146518   4.721   6.841   0.216  1.3930  0.3103 -0.9868
14788SOL    HW246519   4.856   6.833   0.283 -0.3966  0.2250  2.8718
14789SOL     OW46520   6.379   3.597   5.064  0.0012 -0.1907  0.3122
14789SOL    HW146521   6.446   3.651   5.106  0.7104 -1.4471  0.8453
14789SOL    HW246522   6.352   3.648   4.987  0.0730  1.2701  1.2017
14790SOL     OW46523   2.691   2.692   3.092 -0.6452 -0.0949 -0.0894
14790SOL    HW146524   2.736   2.754   3.034 -1.3556 -0.9178 -1.6041
14790SOL    HW246525   2.754   2.621   3.105 -1.3591 -1.2313 -2.1850
14791SOL     OW46526   7.124   1.589   5.642 -0.2853 -0.4248  0.2314
14791SOL    HW146527   7.034   1.558   5.636 -1.9220  2.4719  4.6530
14791SOL    HW246528   7.117   1.675   5.683  4.5224  0.1739  0.3585
14792SOL     OW46529   7.968   5.217   1.878  0.1743  0.5374 -0.4658
14792SOL    HW146530   7.922   5.194   1.797 -1.0829  2.8839 -0.5071
14792SOL    HW246531   8.014   5.298   1.857  0.9614  0.4448  0.8001
14793SOL     OW46532   4.325   3.473   6.511 -0.4547 -0.3065 -0.4756
14793SOL    HW146533   4.259   3.404   6.510 -0.6174 -0.1483 -0.6540
14793SOL    HW246534   4.353   3.481   6.420 -0.0594 -0.4941 -0.3748
14794SOL     OW46535   9.309   4.651   9.347  0.2670 -0.2954 -0.1273
14794SOL    HW146536   9.225   4.615   9.321 -0.5760  1.1469  0.4890
14794SOL    HW246537   9.359   4.658   9.265 -0.0881 -1.3744 -0.4612
14795SOL     OW46538   1.103   6.378   0.989  0.1418  0.3598 -0.1316
14795SOL    HW146539   1.142   6.320   1.054 -1.2136  0.9604  1.2767
14795SOL    HW246540   1.105   6.465   1.029 -0.4265  0.8067 -1.0239
14796SOL     OW46541   5.072   3.006   8.258 -0.1020 -0.1305 -0.0683
14796SOL    HW146542   5.141   2.942   8.244 -0.2798 -0.1626 -0.8438
14796SOL    HW246543   5.012   2.965   8.321 -0.1585 -0.6740 -0.4794
14797SOL     OW46544   3.546   1.286   0.371 -0.0026 -0.2926 -0.3720
14797SOL    HW146545   3.620   1.263   0.315  0.1763  1.2779 -0.8215
14797SOL    HW246546   3.554   1.380   0.385 -2.2153  0.0384 -0.8879
14798SOL     OW46547   2.305   8.609   9.362  0.1500 -0.0237 -0.1829
14798SOL    HW146548   2.353   8.576   9.286 -1.1143  0.0928 -1.0492
14798SOL    HW246549   2.308   8.537   9.425  1.6324  0.0605 -0.1288
14799SOL     OW46550   2.634   4.338   8.372 -0.5050  0.1171 -0.6331
14799SOL    HW146551   2.548   4.324   8.412 -0.1601  0.1417  0.1411
14799SOL    HW246552   2.630   4.293   8.288 -0.8917 -0.8501 -0.1017
14800SOL     OW46553   1.708   3.243   9.345  0.4650 -0.0244 -0.4258
14800SOL    HW146554   1.800   3.240   9.318  0.7458  0.9701  0.3966
14800SOL    HW246555   1.710   3.233   9.440 -0.3567 -0.9210 -0.4808
14801SOL     OW46556   4.925   8.393   7.897 -0.1613 -0.0855  0.4715
14801SOL    HW146557   4.948   8.402   7.989  0.6037 -0.2339  0.2997
14801SOL    HW246558   5.004   8.420   7.849 -0.1694 -1.0720 -0.1219
14802SOL     OW46559   6.636   9.301   0.252  0.1356 -0.0316  0.4693
14802SOL    HW146560   6.697   9.340   0.315  0.6050 -1.7122  1.1131
14802SOL    HW246561   6.550   9.315   0.291  0.1509  1.5951 -0.0207
14803SOL     OW46562   7.648   8.550   8.659 -0.1407 -0.5144  0.2378
14803SOL    HW146563   7.563   8.538   8.700  0.2817  0.9703  1.6197
14803SOL    HW246564   7.641   8.632   8.611  0.7533  0.0878  1.0975
14804SOL     OW46565   0.096   9.567   0.880  0.5943  0.5074 -0.0913
14804SOL    HW146566   0.080   9.476   0.903  0.7606  0.6293  0.5347
14804SOL    HW246567   0.167   9.564   0.816  1.1434  0.2344  0.5200
14805SOL     OW46568   3.609   7.305   3.334  0.4310  0.1014  0.5384
14805SOL    HW146569   3.602   7.355   3.416  1.3374  0.3339  0.4851
14805SOL    HW246570   3.522   7.268   3.321 -0.7858  2.9155 -0.2145
14806SOL     OW46571   0.494   8.031   8.208  0.0130 -0.2239 -0.4941
14806SOL    HW146572   0.484   8.011   8.301 -0.2762 -1.4134 -0.7562
14806SOL    HW246573   0.521   8.123   8.205 -0.9283  0.1124  0.7169
14807SOL     OW46574   8.310   5.063   7.589  0.4180  0.0912 -0.2957
14807SOL    HW146575   8.329   5.155   7.607  1.0021  0.1198 -1.0396
14807SOL    HW246576   8.264   5.064   7.506  0.8727 -0.3317 -0.5542
14808SOL     OW46577   2.596   0.079   4.048  0.0240 -0.3149  0.2595
14808SOL    HW146578   2.597   0.140   3.973  0.2923 -1.8050 -0.9947
14808SOL    HW246579   2.639   0.127   4.118  0.3735  0.8840 -0.7394
14809SOL     OW46580   5.237   8.803   6.160  0.4390 -0.0656 -0.0520
14809SOL    HW146581   5.173   8.792   6.090  1.6198 -0.7089 -1.0632
14809SOL    HW246582   5.258   8.897   6.159  1.0089 -0.1938 -1.0790
14810SOL     OW46583   6.085   4.068   4.323 -0.3064 -0.2683 -0.5883
14810SOL    HW146584   6.181   4.066   4.324 -0.1022  2.8790 -2.6165
14810SOL    HW246585   6.060   3.988   4.277  1.2994 -1.1067 -0.0860
14811SOL     OW46586   7.844   2.449   0.498 -0.1372  0.6388  0.1206
14811SOL    HW146587   7.826   2.522   0.557 -1.5148  0.4066  0.0026
14811SOL    HW246588   7.760   2.427   0.459  0.0215 -1.6573  0.8825
14812SOL     OW46589   2.738   6.526   7.207 -0.1907  0.0153  0.3079
14812SOL    HW146590   2.807   6.581   7.169 -0.0097  1.3014  2.3077
14812SOL    HW246591   2.753   6.440   7.169  1.9967  0.4557 -0.0082
14813SOL     OW46592   0.903   2.756   3.403 -0.0023  0.5501  0.0378
14813SOL    HW146593   0.981   2.763   3.347  0.9886  0.2110  1.3109
14813SOL    HW246594   0.935   2.778   3.490 -0.5475 -2.7810  1.2059
14814SOL     OW46595   3.843   0.995   5.444 -0.1477  0.1142 -0.2251
14814SOL    HW146596   3.910   0.940   5.404 -1.8080 -1.2511 -1.2407
14814SOL    HW246597   3.805   1.044   5.372  0.0290  1.2612  0.4181
14815SOL     OW46598   5.320   1.777   0.282  0.4912 -0.7390 -0.9653
14815SOL    HW146599   5.304   1.869   0.261 -0.2738 -0.1500  1.7975
14815SOL    HW246600   5.396   1.778   0.339 -0.7399 -1.5399  0.7640
14816SOL     OW46601   3.753   3.955   6.785  0.8686 -0.4890 -0.1583
14816SOL    HW146602   3.764   3.892   6.856  2.1584 -0.2559 -0.1273
14816SOL    HW246603   3.658   3.966   6.777  0.6856  0.4026  2.3506
14817SOL     OW46604   1.826   4.811   0.081  0.8518  0.7998  0.3004
14817SOL    HW146605   1.806   4.762   0.002  0.3128  2.5386 -0.6968
14817SOL    HW246606   1.894   4.873   0.054  0.8710  1.2168  1.2714
14818SOL     OW46607   7.089   0.442   1.476 -0.1097  0.4526 -0.3812
14818SOL    HW146608   7.023   0.381   1.444  1.2066 -1.6104  0.5808
14818SOL    HW246609   7.110   0.496   1.400 -0.4019 -1.1940 -1.7145
14819SOL     OW46610   1.052   9.566   5.979 -0.0641  0.4301 -0.3257
14819SOL    HW146611   1.031   9.486   5.933 -0.1586  0.8754 -1.0734
14819SOL    HW246612   1.082   9.537   6.066  2.8465 -0.6373 -1.5529
14820SOL     OW46613   9.071   6.569   3.120 -0.1174  0.1524  0.1037
14820SOL    HW146614   9.036   6.560   3.032 -0.6628 -1.0730  0.4332
14820SOL    HW246615   9.037   6.654   3.150  0.8437  1.0246 -1.1758
14821SOL     OW46616   1.193   0.925   8.591  0.1340 -0.0194 -0.0329
14821SOL    HW146617   1.231   0.914   8.679 -2.6684  1.2378  1.4375
14821SOL    HW246618   1.136   0.849   8.581 -1.4687  1.0724  0.3738
14822SOL     OW46619   7.392   3.008   7.491  0.5911  0.0504 -0.1617
14822SOL    HW146620   7.484   3.030   7.477  0.4119  0.8518 -0.1398
14822SOL    HW246621   7.379   2.927   7.442  0.8113  0.9926 -1.8618
14823SOL     OW46622   4.074   7.379   7.422 -0.4139  0.7396  0.1032
14823SOL    HW146623   4.145   7.365   7.485 -0.0845 -1.1422 -0.6239
14823SOL    HW246624   4.018   7.445   7.464  1.7207  2.2782  0.6990
14824SOL     OW46625   5.480   3.642   9.337 -0.0897 -0.4062 -0.4103
14824SOL    HW146626   5.496   3.589   9.259  0.0239  3.0668 -2.9626
14824SOL    HW246627   5.392   3.676   9.325  0.3467  1.0701  0.3591
14825SOL     OW46628   8.056   2.106   0.676  0.1646  0.8782 -0.2197
14825SOL    HW146629   8.136   2.103   0.625 -0.1678 -0.3559 -0.6933
14825SOL    HW246630   8.018   2.019   0.668 -0.2922  0.8748  1.5187
14826SOL     OW46631   5.116   8.156   3.988  0.1489 -0.0473 -0.7343
14826SOL    HW146632   5.061   8.129   4.061  1.0115 -0.1816 -0.1062
14826SOL    HW246633   5.188   8.205   4.030  0.4527  0.2004 -1.5275
14827SOL     OW46634   4.227   6.895   8.127 -0.2555 -0.5237 -0.5978
14827SOL    HW146635   4.297   6.846   8.084 -0.5708 -0.5430 -1.0982
14827SOL    HW246636   4.146   6.857   8.093 -0.5550  1.7184 -2.7230
14828SOL     OW46637   8.252   6.048   0.316 -0.7187 -0.0474 -0.3256
14828SOL    HW146638   8.290   6.061   0.229 -1.7599  0.6047 -0.6967
14828SOL    HW246639   8.327   6.058   0.375  0.0015 -0.4741 -1.1291
14829SOL     OW46640   2.087   4.544   2.627 -0.8687 -0.0463  0.0580
14829SOL    HW146641   2.016   4.550   2.563 -2.6818  0.8319  2.0107
14829SOL    HW246642   2.159   4.502   2.580 -1.5969  1.7596 -2.9102
14830SOL     OW46643   7.584   3.828   6.274 -0.5142  0.1143  0.2961
14830SOL    HW146644   7.574   3.735   6.254 -0.8198  0.2445 -0.1802
14830SOL    HW246645   7.638   3.862   6.202 -1.2776  0.5125 -0.0993
14831SOL     OW46646   7.790   4.245   1.863 -0.0604  0.1817 -0.3183
14831SOL    HW146647   7.739   4.165   1.851  0.2873 -0.0935  0.0103
14831SOL    HW246648   7.802   4.252   1.958  0.5325  0.2253 -0.3910
14832SOL     OW46649   4.685   5.345   8.903  0.2015 -0.6457  0.3348
14832SOL    HW146650   4.761   5.311   8.951  0.3026  0.7254  1.2005
14832SOL    HW246651   4.714   5.350   8.812  1.3443  0.3563  0.7314
14833SOL     OW46652   5.776   0.243   8.324 -0.5624  0.6809 -0.2130
14833SOL    HW146653   5.731   0.268   8.405  0.6999 -0.5919  0.9439
14833SOL    HW246654   5.759   0.149   8.315  0.4388  0.5278 -0.6668
14834SOL     OW46655   0.040   9.565   9.264  0.4822  0.2660 -0.0011
14834SOL    HW146656  -0.036   9.577   9.320 -1.2754 -2.2876 -1.5717
14834SOL    HW246657   0.029   9.628   9.193 -0.4373 -0.3193 -0.4028
14835SOL     OW46658   3.174   5.691   6.333  0.1146 -0.5480 -0.1181
14835SOL    HW146659   3.172   5.784   6.310  0.6322 -0.1841  1.2602
14835SOL    HW246660   3.262   5.662   6.309  0.6219 -0.1914  1.2451
14836SOL     OW46661   6.514   7.703   1.132 -0.1189  0.3757 -0.3190
14836SOL    HW146662   6.498   7.771   1.197  0.3756 -0.7323  1.0234
14836SOL    HW246663   6.607   7.681   1.143  0.8928  2.2929 -3.5775
14837SOL     OW46664   6.735   8.884   7.398  0.2296 -0.6039 -0.8665
14837SOL    HW146665   6.647   8.880   7.359  0.0471 -0.6373 -0.4541
14837SOL    HW246666   6.741   8.806   7.453  0.8214 -1.0280 -1.5170
14838SOL     OW46667   4.308   3.207   2.904 -0.1166  0.3637 -0.8766
14838SOL    HW146668   4.229   3.235   2.856 -0.3837  0.0306 -0.6338
14838SOL    HW246669   4.347   3.140   2.848 -0.6474 -0.3160 -0.4483
14839SOL     OW46670   0.056   3.161   0.394 -0.2589  0.2549 -0.2411
14839SOL    HW146671   0.079   3.081   0.346  0.0327  0.2144 -0.0324
14839SOL    HW246672  -0.030   3.142   0.432  0.5202 -0.5763  1.1765
14840SOL     OW46673   6.821   6.076   1.298  0.1775 -0.2557  0.3495
14840SOL    HW146674   6.851   6.111   1.215  1.1065  0.5259  0.9894
14840SOL    HW246675   6.835   6.147   1.361  1.1692 -1.4214  1.4934
14841SOL     OW46676   7.631   5.362   1.965  0.2842 -0.4768  0.3548
14841SOL    HW146677   7.637   5.315   1.882 -0.2180  0.8333 -0.4649
14841SOL    HW246678   7.703   5.328   2.017  2.6178  0.8186 -1.7862
14842SOL     OW46679   0.775   5.429   3.364  0.1847 -0.0004  0.2397
14842SOL    HW146680   0.799   5.389   3.447 -0.0496  0.0321  0.3259
14842SOL    HW246681   0.739   5.358   3.312  1.6882 -0.3266 -0.3949
14843SOL     OW46682   0.896   8.877   0.790 -0.2240 -0.1978 -0.2886
14843SOL    HW146683   0.829   8.830   0.740  0.2357 -0.5438 -0.5831
14843SOL    HW246684   0.934   8.938   0.727 -0.6552  0.4143  0.0305
14844SOL     OW46685   0.939   0.987   2.962  0.2845 -0.2130 -0.1743
14844SOL    HW146686   0.894   1.066   2.931  0.4189 -0.1669 -0.2488
14844SOL    HW246687   0.916   0.983   3.055  0.1261 -0.1885 -0.2116
14845SOL     OW46688   2.908   3.572   7.998  0.2767  0.1280 -0.9293
14845SOL    HW146689   2.908   3.660   8.036 -0.2763 -0.7301  1.1877
14845SOL    HW246690   2.993   3.536   8.023 -1.2334 -1.5499  2.4506
14846SOL     OW46691   5.956   8.411   7.089  0.1853 -0.1434  0.6222
14846SOL    HW146692   5.954   8.348   7.017 -0.5733 -0.2464  0.7301
14846SOL    HW246693   5.902   8.484   7.060  1.8539  0.9404  0.0841
14847SOL     OW46694   7.717   3.127   2.091 -0.2404  0.5062  0.4151
14847SOL    HW146695   7.662   3.152   2.017  1.2021 -1.7496 -1.5552
14847SOL    HW246696   7.786   3.193   2.092 -0.9638  1.2783  0.6017
14848SOL     OW46697   0.159   3.737   2.698 -0.2336 -0.1773 -0.2855
14848SOL    HW146698   0.124   3.825   2.713 -2.7572 -0.9549 -1.1523
14848SOL    HW246699   0.086   3.678   2.716  0.9169 -2.0082 -1.2758
14849SOL     OW46700   1.427   0.600   4.754  0.6825 -0.4149  0.6708
14849SOL    HW146701   1.464   0.625   4.839  0.5550  2.1326  0.0730
14849SOL    HW246702   1.502   0.572   4.702  1.5270  2.2925  0.2753
14850SOL     OW46703   7.506   1.523   5.222  0.5763  0.9075 -0.0897
14850SOL    HW146704   7.427   1.526   5.275  0.4355  1.2133 -0.3160
14850SOL    HW246705   7.475   1.533   5.132  0.5298 -2.0059 -0.5042
14851SOL     OW46706   4.868   3.651   9.588 -0.1148 -0.0094 -0.3700
14851SOL    HW146707   4.802   3.674   9.522  0.0427  0.8409 -0.2347
14851SOL    HW246708   4.822   3.591   9.647 -0.9942  1.1341  0.1309
14852SOL     OW46709   6.219   0.873   6.840  0.2306 -0.0940  0.0620
14852SOL    HW146710   6.269   0.824   6.775  0.0867  0.0328 -0.1435
14852SOL    HW246711   6.178   0.805   6.894  0.9498 -0.1999  0.4828
14853SOL     OW46712   7.578   6.958   4.222  0.0661 -0.4840 -0.4801
14853SOL    HW146713   7.540   6.904   4.291 -0.4621 -0.4593 -0.7460
14853SOL    HW246714   7.520   7.034   4.216 -0.4182 -0.9237 -1.5695
14854SOL     OW46715   0.067   5.958   3.536 -0.3126  0.2476 -0.6107
14854SOL    HW146716  -0.017   5.975   3.578 -0.3999  0.3632 -0.8295
14854SOL    HW246717   0.062   6.005   3.452  0.1873  0.7288 -0.3822
14855SOL     OW46718   0.265   2.127   7.276  0.1891 -0.8322  0.1209
14855SOL    HW146719   0.241   2.096   7.189  0.1057 -1.8902  0.5053
14855SOL    HW246720   0.182   2.133   7.324  0.1233  0.6433 -0.1319
14856SOL     OW46721   4.929   5.095   8.762 -0.0218 -0.2797  0.1672
14856SOL    HW146722   4.991   5.022   8.771 -0.5662 -0.6919  0.6070
14856SOL    HW246723   4.928   5.137   8.848 -0.7066 -0.5585  0.2961
14857SOL     OW46724   3.275   7.472   1.292  0.2304  0.5005 -0.0249
14857SOL    HW146725   3.235   7.555   1.315  1.5039  1.3343 -0.6903
14857SOL    HW246726   3.219   7.406   1.333 -0.9903  1.6566  0.2392
14858SOL     OW46727   6.364   8.400   9.339 -0.9704 -0.4475  0.2036
14858SOL    HW146728   6.403   8.401   9.427 -1.1925 -0.1142  0.2993
14858SOL    HW246729   6.270   8.391   9.354 -1.1299  0.7872  0.0470
14859SOL     OW46730   3.405   1.139   6.260 -0.2241  0.0890  0.3397
14859SOL    HW146731   3.342   1.211   6.249  0.0675  0.5037  1.2649
14859SOL    HW246732   3.389   1.107   6.349 -1.0266 -1.6712 -0.3851
14860SOL     OW46733   4.996   3.088   4.445 -0.4777  0.4165  0.2843
14860SOL    HW146734   4.902   3.094   4.428 -0.6391  1.1009  1.3114
14860SOL    HW246735   5.026   3.179   4.451 -0.0233  0.2201  1.2775
14861SOL     OW46736   8.820   6.513   1.520 -0.8178  0.1474 -0.3079
14861SOL    HW146737   8.796   6.579   1.455  1.2306  0.1452 -1.1477
14861SOL    HW246738   8.740   6.464   1.535 -1.8739  1.5108 -1.2180
14862SOL     OW46739   5.723   9.578   0.569 -0.4203  0.5029 -0.1048
14862SOL    HW146740   5.812   9.603   0.544 -0.4932 -0.0658 -0.9849
14862SOL    HW246741   5.685   9.658   0.606  0.2803  0.8909 -0.1997
14863SOL     OW46742   3.480   1.742   2.227  0.2402  0.2853  0.2219
14863SOL    HW146743   3.440   1.811   2.175  1.4411  0.7294 -0.1486
14863SOL    HW246744   3.528   1.788   2.295  0.5358 -0.2090  0.3507
14864SOL     OW46745   9.209   8.386   0.965 -0.3380 -0.4197 -0.3641
14864SOL    HW146746   9.124   8.350   0.987  0.5142 -2.5754 -0.3439
14864SOL    HW246747   9.268   8.349   1.032  0.8006  0.0319 -1.0965
14865SOL     OW46748   6.059   7.437   5.439 -0.0135  0.2367 -0.8830
14865SOL    HW146749   6.019   7.489   5.369  0.3693 -0.2779 -1.5017
14865SOL    HW246750   5.999   7.364   5.452 -1.0136  1.2708  0.6161
14866SOL     OW46751   2.754   6.593   5.918  0.7434 -0.1726  0.4850
14866SOL    HW146752   2.771   6.514   5.970 -0.9389 -0.9123  0.0008
14866SOL    HW246753   2.832   6.603   5.864  2.0000 -0.0942  2.2418
14867SOL     OW46754   3.604   0.438   2.632 -0.2493 -0.9101 -0.5147
14867SOL    HW146755   3.571   0.525   2.654 -2.0993 -1.5749 -0.5127
14867SOL    HW246756   3.653   0.411   2.710 -1.2579 -0.6068  0.2516
14868SOL     OW46757   0.883   1.182   5.858  0.3609  0.1259  0.1639
14868SOL    HW146758   0.858   1.094   5.885 -0.1061  0.4264  0.7529
14868SOL    HW246759   0.805   1.235   5.875  1.1626  0.9709  1.4475
14869SOL     OW46760   4.230   2.226   0.554  0.4338 -0.5002  0.1887
14869SOL    HW146761   4.224   2.289   0.481 -0.5336 -0.0538  0.6351
14869SOL    HW246762   4.239   2.141   0.511 -1.7316 -0.4242 -0.5285
14870SOL     OW46763   6.480   1.202   2.415  0.7359 -0.1085  0.6221
14870SOL    HW146764   6.406   1.144   2.397  0.6986  0.0226  0.3470
14870SOL    HW246765   6.445   1.269   2.473  0.9068 -0.6469  1.3558
14871SOL     OW46766   4.311   5.132   8.219  0.1185  0.3466  0.1380
14871SOL    HW146767   4.346   5.217   8.194  0.8856 -0.0248 -0.0719
14871SOL    HW246768   4.254   5.106   8.147  0.2886  0.4533 -0.0338
14872SOL     OW46769   0.771   2.762   2.051 -0.3589  0.3165  0.3595
14872SOL    HW146770   0.772   2.858   2.046 -2.6547  0.4023  0.3024
14872SOL    HW246771   0.830   2.741   2.124  0.8706  1.6959 -0.2049
14873SOL     OW46772   2.948   4.896   1.561  0.1716 -0.1451 -0.5989
14873SOL    HW146773   2.900   4.862   1.637 -0.9320 -0.4292 -1.3875
14873SOL    HW246774   2.951   4.822   1.500 -2.1677  1.0309 -2.3026
14874SOL     OW46775   0.422   0.423   4.028  0.3083 -0.1401  0.0065
14874SOL    HW146776   0.362   0.430   3.955 -0.1040  1.7761  0.4686
14874SOL    HW246777   0.406   0.336   4.065 -0.3025 -0.6601 -1.4496
14875SOL     OW46778   5.592   8.086   2.581  0.5316  0.3864  0.0197
14875SOL    HW146779   5.541   8.114   2.505 -0.1681 -1.1529 -0.1136
14875SOL    HW246780   5.621   7.998   2.560 -0.4646 -0.4510  1.8899
14876SOL     OW46781   7.832   8.064   5.624 -0.0223 -0.1548  0.1958
14876SOL    HW146782   7.822   7.996   5.558  0.3825  0.6558 -0.7122
14876SOL    HW246783   7.892   8.026   5.689 -1.8191 -1.6335  1.0787
14877SOL     OW46784   7.216   7.611   1.219 -0.1291 -0.1634 -0.2421
14877SOL    HW146785   7.241   7.521   1.238 -0.6103 -0.8793 -2.6523
14877SOL    HW246786   7.172   7.606   1.134 -0.8585  2.2414 -0.0710
14878SOL     OW46787   8.846   0.494   1.307  0.0733  0.1358  0.0544
14878SOL    HW146788   8.777   0.485   1.372  1.0381 -1.0075  0.9768
14878SOL    HW246789   8.847   0.587   1.286 -2.6456  0.0013 -1.0606
14879SOL     OW46790   2.365   3.042   0.900  0.3131  0.3266 -0.0861
14879SOL    HW146791   2.371   3.131   0.936 -1.6573  0.7374 -0.6468
14879SOL    HW246792   2.338   2.988   0.975 -1.4369  0.7692 -0.3428
14880SOL     OW46793   1.005   6.681   1.964  0.7683  0.2756  0.2034
14880SOL    HW146794   0.972   6.667   2.053 -0.0013  0.1873 -0.0834
14880SOL    HW246795   1.056   6.603   1.944  1.2871  0.4786  0.7153
14881SOL     OW46796   8.525   1.763   1.425 -0.0628  0.5397 -0.0665
14881SOL    HW146797   8.519   1.752   1.520  0.2643  0.9279  0.0019
14881SOL    HW246798   8.547   1.855   1.413 -2.2248  1.0249 -0.6161
14882SOL     OW46799   3.095   8.689   3.650 -0.7614 -0.1111 -0.0137
14882SOL    HW146800   3.028   8.620   3.650  0.9899 -1.8855 -0.1716
14882SOL    HW246801   3.115   8.703   3.743 -1.7655  0.9211  0.0810
14883SOL     OW46802   9.556   6.152   6.928  0.7361  0.4277 -0.2820
14883SOL    HW146803   9.584   6.184   7.014 -1.8931  1.6838  0.2103
14883SOL    HW246804   9.535   6.231   6.879  0.1915 -0.3532 -1.3382
14884SOL     OW46805   3.182   5.735   7.400  0.1663 -0.3629 -0.2528
14884SOL    HW146806   3.144   5.791   7.332 -0.0563  1.0776  1.0083
14884SOL    HW246807   3.163   5.646   7.371 -1.0745  0.2411 -1.4184
14885SOL     OW46808   0.581   4.535   2.999 -0.0819  0.1560 -0.2219
14885SOL    HW146809   0.619   4.488   2.925 -1.8341 -0.0680 -1.0322
14885SOL    HW246810   0.514   4.591   2.959 -0.6281  0.4915  1.1308
14886SOL     OW46811   0.282   0.717   6.728  0.1995  0.0175 -0.2686
14886SOL    HW146812   0.312   0.763   6.806 -1.4079  0.3582  0.1876
14886SOL    HW246813   0.189   0.740   6.720  0.1471 -0.5870 -1.8739
14887SOL     OW46814   1.859   5.337   2.316 -0.1394 -0.0155 -0.9016
14887SOL    HW146815   1.938   5.334   2.369 -0.3317  0.0220 -0.6108
14887SOL    HW246816   1.812   5.256   2.339 -0.3029  0.0821 -0.8933
14888SOL     OW46817   2.397   5.671   7.777 -0.0542  0.0518  0.1593
14888SOL    HW146818   2.391   5.635   7.865 -1.9507  0.8480  0.4023
14888SOL    HW246819   2.399   5.594   7.720 -1.9290 -0.5222  0.7753
14889SOL     OW46820   2.050   1.182   6.510  0.0612 -0.2359 -0.1750
14889SOL    HW146821   1.986   1.252   6.496  0.4929  0.2472  0.2097
14889SOL    HW246822   2.004   1.102   6.487 -0.8697  0.0468  0.6127
14890SOL     OW46823   9.150   5.581   9.216 -0.1221  0.2633  0.7070
14890SOL    HW146824   9.210   5.557   9.286 -1.6172 -3.2545  0.9797
14890SOL    HW246825   9.176   5.527   9.141 -1.4854  0.4110  0.0868
14891SOL     OW46826   7.816   6.760   7.718  0.2785  0.0407  0.1391
14891SOL    HW146827   7.807   6.836   7.660 -0.6594 -0.5443 -0.5044
14891SOL    HW246828   7.768   6.786   7.797  0.0110  0.1447 -0.0539
14892SOL     OW46829   4.613   8.109   2.953 -0.7082 -0.7228 -0.4389
14892SOL    HW146830   4.698   8.137   2.989 -1.8888  0.3050  1.7497
14892SOL    HW246831   4.589   8.033   3.006 -2.3354  0.6142  0.8702
14893SOL     OW46832   0.237   1.188   8.234 -0.1955 -0.0008 -0.2225
14893SOL    HW146833   0.232   1.092   8.242  0.5485  0.0483  0.9172
14893SOL    HW246834   0.146   1.217   8.245 -0.4205 -0.5620 -0.5246
14894SOL     OW46835   9.502   2.638   3.126  0.1313 -0.0137 -0.1390
14894SOL    HW146836   9.549   2.608   3.048 -2.6380  0.0772 -1.9778
14894SOL    HW246837   9.522   2.731   3.131  0.3516 -0.0188 -0.7344
14895SOL     OW46838   3.373   4.814   2.383 -0.2411  0.4561  0.2381
14895SOL    HW146839   3.283   4.789   2.403 -0.2211  0.2995  0.1342
14895SOL    HW246840   3.404   4.746   2.323 -0.5100  1.2431 -0.8281
14896SOL     OW46841   6.629   0.632   8.678  0.1815  0.1988  0.2166
14896SOL    HW146842   6.713   0.586   8.673 -0.5302 -1.0631 -1.1443
14896SOL    HW246843   6.576   0.590   8.610 -1.8079  0.4358  1.5697
14897SOL     OW46844   5.188   9.262   1.523  0.3556 -0.4280  0.2579
14897SOL    HW146845   5.234   9.186   1.487 -0.4656 -1.1708  0.7199
14897SOL    HW246846   5.255   9.329   1.533  0.7154 -0.3632 -2.1184
14898SOL     OW46847   4.464   8.656   3.808 -0.1678  0.2152 -0.1680
14898SOL    HW146848   4.378   8.621   3.785 -1.2037  1.6107  1.3126
14898SOL    HW246849   4.462   8.662   3.904  1.2142  1.1592 -0.1653
14899SOL     OW46850   9.461   8.817   2.512 -0.0407 -0.3313  0.2942
14899SOL    HW146851   9.499   8.828   2.424  0.7009 -1.3405  0.4614
14899SOL    HW246852   9.368   8.800   2.496 -0.3497  1.5871 -0.1622
14900SOL     OW46853   5.774   1.940   9.343 -0.5000  0.6491  0.2205
14900SOL    HW146854   5.683   1.914   9.325 -0.2905  0.1698 -0.1414
14900SOL    HW246855   5.771   1.971   9.434 -1.1099  1.0227  0.0780
14901SOL     OW46856   5.137   2.558   4.046 -0.4120 -0.0362  0.0845
14901SOL    HW146857   5.071   2.617   4.011 -0.3717  0.1238  0.2724
14901SOL    HW246858   5.142   2.581   4.139  0.1591  0.1954 -0.0026
14902SOL     OW46859   4.175   4.156   7.051  0.1130 -0.0823  0.7825
14902SOL    HW146860   4.243   4.106   7.008  1.7396  1.4582  1.4536
14902SOL    HW246861   4.136   4.094   7.114 -0.2321 -1.4316 -0.7086
14903SOL     OW46862   5.465   6.082   5.576 -0.4871 -0.6790  0.0275
14903SOL    HW146863   5.442   6.128   5.656 -0.0500  0.3701 -0.4231
14903SOL    HW246864   5.429   6.136   5.506 -0.4868 -1.3465 -0.5048
14904SOL     OW46865   6.826   9.543   1.390  0.2337 -0.7772 -0.3960
14904SOL    HW146866   6.735   9.557   1.364  0.5915 -0.6799 -1.6770
14904SOL    HW246867   6.832   9.578   1.479 -0.8128 -0.1397 -0.5674
14905SOL     OW46868   6.621   6.086   6.758 -0.5706  0.6211  0.0841
14905SOL    HW146869   6.644   6.149   6.826 -1.9767 -0.1544  1.3469
14905SOL    HW246870   6.690   6.019   6.762  0.0049  1.1887 -0.1138
14906SOL     OW46871   8.648   4.615   0.976 -0.1118  0.1903 -0.3326
14906SOL    HW146872   8.591   4.633   1.052  1.1455  0.0384  0.6725
14906SOL    HW246873   8.624   4.526   0.949 -0.0794 -0.0247  0.3306
14907SOL     OW46874   9.449   2.277   5.135 -0.3479 -0.1163  0.1888
14907SOL    HW146875   9.478   2.288   5.226 -2.3492 -1.2529  1.0131
14907SOL    HW246876   9.467   2.362   5.094  2.8631 -0.2970  0.8961
14908SOL     OW46877   3.850   6.998   4.390  0.4950 -0.4106 -0.7379
14908SOL    HW146878   3.787   6.992   4.461  0.6303  0.9178 -0.4722
14908SOL    HW246879   3.845   6.914   4.345  0.1240 -1.1189  0.5958
14909SOL     OW46880   7.465   8.897   2.564  0.0866  0.3666  0.1182
14909SOL    HW146881   7.536   8.957   2.541  0.5068  0.2524  1.0566
14909SOL    HW246882   7.486   8.869   2.653 -2.0794  1.7033  1.1214
14910SOL     OW46883   6.238   0.673   3.540 -0.3748 -0.2775 -0.7532
14910SOL    HW146884   6.154   0.628   3.553  0.5552 -2.1639 -0.9929
14910SOL    HW246885   6.275   0.633   3.461  0.6595  0.6840 -0.7790
14911SOL     OW46886   0.770   1.435   3.782  0.0817  0.4294  0.0640
14911SOL    HW146887   0.771   1.341   3.798  3.3440  0.3992  0.2481
14911SOL    HW246888   0.709   1.446   3.708 -1.9367 -1.4891  1.3152
14912SOL     OW46889   7.918   0.918   6.505  0.0241 -0.3584  0.5677
14912SOL    HW146890   7.848   0.956   6.452  1.5676  1.2939 -0.3890
14912SOL    HW246891   7.908   0.824   6.494  0.6693 -0.1443 -3.3462
14913SOL     OW46892   3.370   4.517   4.122 -0.1679 -0.1081  0.0306
14913SOL    HW146893   3.400   4.563   4.200  0.0148  0.6541 -0.4806
14913SOL    HW246894   3.320   4.582   4.072 -0.8895 -0.7767 -0.1560
14914SOL     OW46895   4.049   1.856   2.787  0.4872  0.1877 -0.0120
14914SOL    HW146896   4.084   1.944   2.773  1.2583 -0.0538  0.3589
14914SOL    HW246897   4.126   1.801   2.797  0.0908 -0.8816 -2.2290
14915SOL     OW46898   3.138   8.988   6.503 -0.2784  0.9843  0.2545
14915SOL    HW146899   3.065   8.957   6.449  1.2571 -0.6614 -1.0317
14915SOL    HW246900   3.202   9.021   6.440  0.5071  1.4390  1.2611
14916SOL     OW46901   0.312   1.779   2.784 -0.4300  0.0868  0.1998
14916SOL    HW146902   0.386   1.787   2.723 -0.8694  1.4771 -0.1841
14916SOL    HW246903   0.336   1.705   2.840  0.5560 -0.4386 -0.8671
14917SOL     OW46904   4.920   6.664   5.172 -0.4511 -0.4850  0.4314
14917SOL    HW146905   5.007   6.676   5.135 -1.6655  4.4177 -1.6135
14917SOL    HW246906   4.928   6.690   5.264  0.1470  0.7703  0.0428
14918SOL     OW46907   3.760   3.764   6.991 -0.1399  0.3981 -0.2511
14918SOL    HW146908   3.832   3.727   6.940  0.4320 -0.1480  0.9242
14918SOL    HW246909   3.796   3.775   7.079 -1.7411 -0.6977  0.5898
14919SOL     OW46910   6.487   4.213   2.195 -0.1327 -0.8209 -0.4898
14919SOL    HW146911   6.547   4.260   2.138  2.8242 -1.9165  1.4412
14919SOL    HW246912   6.466   4.132   2.148  1.4690 -1.2611 -0.4961
14920SOL     OW46913   1.169   3.826   7.058 -0.4076 -0.1063  0.6060
14920SOL    HW146914   1.207   3.898   7.109 -0.4126  0.1899  0.1936
14920SOL    HW246915   1.136   3.867   6.979 -0.4159 -0.5641  0.3666
14921SOL     OW46916   3.025   8.939   8.718 -0.2750 -0.2532 -0.1030
14921SOL    HW146917   2.937   8.900   8.715  0.0823 -1.0644 -0.5109
14921SOL    HW246918   3.083   8.866   8.698  0.6764 -0.2710  2.4104
14922SOL     OW46919   4.608   4.466   3.557  0.4533 -0.8449  0.4981
14922SOL    HW146920   4.538   4.436   3.499  2.0916 -0.7624 -1.6416
14922SOL    HW246921   4.673   4.396   3.554  1.2515 -0.1423  1.0197
14923SOL     OW46922   3.287   1.601   6.813  0.1422  0.2964 -0.0626
14923SOL    HW146923   3.228   1.637   6.879  0.7581  0.9206  0.1523
14923SOL    HW246924   3.308   1.675   6.756 -0.7368 -0.3182 -1.2592
14924SOL     OW46925   1.102   2.041   0.647 -0.4420  0.1690 -0.0510
14924SOL    HW146926   1.064   2.103   0.584 -1.0366 -0.3418 -0.2102
14924SOL    HW246927   1.112   2.092   0.728 -3.4356 -0.1290  0.6580
14925SOL     OW46928   4.846   6.371   4.329 -0.1151  0.4414 -0.5618
14925SOL    HW146929   4.777   6.383   4.395  0.8260  2.0098  0.1944
14925SOL    HW246930   4.847   6.454   4.281  0.6597  0.1081 -1.1356
14926SOL     OW46931   6.461   6.219   9.558 -0.1123 -0.1565  0.0329
14926SOL    HW146932   6.487   6.130   9.535  0.5108 -0.3099  1.2638
14926SOL    HW246933   6.489   6.273   9.484  0.4663 -0.8339 -0.2440
14927SOL     OW46934   6.315   5.802   5.805 -0.1868 -0.0195  0.1385
14927SOL    HW146935   6.225   5.769   5.804  0.4081 -1.7636 -0.2457
14927SOL    HW246936   6.346   5.783   5.894 -0.4605  1.4222  0.5639
14928SOL     OW46937   2.205   0.813   0.357 -0.1551  0.1146 -0.2035
14928SOL    HW146938   2.275   0.760   0.319  0.1282  0.6141 -0.3846
14928SOL    HW246939   2.160   0.852   0.282  1.0196  1.8883 -0.0384
14929SOL     OW46940   2.770   8.658   4.753  0.3739  0.4256 -0.4628
14929SOL    HW146941   2.822   8.578   4.754  0.9330  0.7694  0.9809
14929SOL    HW246942   2.833   8.729   4.742  0.0863  0.7594 -0.0574
14930SOL     OW46943   8.775   9.298   1.181  0.5313 -0.1252  0.1995
14930SOL    HW146944   8.688   9.259   1.172  0.3546  0.4149 -0.5793
14930SOL    HW246945   8.816   9.250   1.253 -0.6328  0.0163  0.9728
14931SOL     OW46946   7.331   1.276   7.400 -0.3075 -0.5667 -0.1274
14931SOL    HW146947   7.354   1.185   7.381 -1.5684 -0.6887 -1.2244
14931SOL    HW246948   7.378   1.296   7.481  0.5058 -1.9827 -0.2120
14932SOL     OW46949   5.384   6.659   2.933  0.4727 -0.3414  0.3790
14932SOL    HW146950   5.402   6.610   3.013 -2.3616 -1.5374  0.3769
14932SOL    HW246951   5.360   6.746   2.963 -0.0345 -0.6190  0.7874
14933SOL     OW46952   6.194   5.779   1.855 -0.0058 -0.0743  0.1717
14933SOL    HW146953   6.136   5.784   1.779  0.5830  1.4407 -0.2017
14933SOL    HW246954   6.175   5.693   1.893 -2.1882  0.1884 -0.1769
14934SOL     OW46955   5.928   7.093   3.533  0.1889 -0.2664 -0.2192
14934SOL    HW146956   5.925   7.044   3.615 -1.3207 -0.1106 -0.1528
14934SOL    HW246957   5.885   7.176   3.553 -1.3958 -0.7221 -1.4428
14935SOL     OW46958   8.894   0.524   5.617 -0.0568 -0.0665 -0.6985
14935SOL    HW146959   8.875   0.555   5.706  1.7238 -0.8382 -0.0201
14935SOL    HW246960   8.860   0.435   5.615  0.9407 -0.4622 -0.3938
14936SOL     OW46961   0.165   8.688   4.981  0.2592  0.1648  0.8427
14936SOL    HW146962   0.112   8.652   4.909 -0.5888  0.7537  1.1575
14936SOL    HW246963   0.166   8.618   5.046  3.4207 -1.5411 -0.8207
14937SOL     OW46964   4.474   1.048   8.889 -0.3086  0.2241  0.0644
14937SOL    HW146965   4.551   0.994   8.870 -1.7037 -2.9623  2.5745
14937SOL    HW246966   4.510   1.128   8.927  1.7910 -0.7697  0.2927
14938SOL     OW46967   7.165   7.064   1.459 -0.4768 -0.4110 -0.0146
14938SOL    HW146968   7.237   7.127   1.459 -0.1358 -0.7905 -0.2635
14938SOL    HW246969   7.191   6.999   1.394 -0.2486 -1.4569  1.0842
14939SOL     OW46970   6.385   6.351   0.611 -0.3587  0.0250  0.2252
14939SOL    HW146971   6.392   6.445   0.623  0.8858  0.2870 -1.9927
14939SOL    HW246972   6.316   6.324   0.672  0.0450  2.1603  1.7404
14940SOL     OW46973   5.243   9.024   0.055 -0.4548 -0.1015  0.0114
14940SOL    HW146974   5.232   8.949   0.112  0.0552  0.5280  0.9589
14940SOL    HW246975   5.335   9.021   0.028 -0.2694  0.5339  0.5638
14941SOL     OW46976   2.592   7.350   8.281  0.1264 -0.5512  0.3130
14941SOL    HW146977   2.591   7.271   8.335 -2.4224  0.6252  2.1804
14941SOL    HW246978   2.500   7.364   8.256  0.6702  1.2073 -0.9371
14942SOL     OW46979   7.325   0.236   8.615  0.1191  0.2465  0.1149
14942SOL    HW146980   7.415   0.257   8.641 -0.2176  0.2893  1.2878
14942SOL    HW246981   7.304   0.301   8.549  0.9551  0.2275 -0.1850
14943SOL     OW46982   0.860   2.506   2.802  0.2546 -0.3555 -0.5674
14943SOL    HW146983   0.814   2.450   2.865  0.8238 -2.3871 -1.8396
14943SOL    HW246984   0.791   2.538   2.744  0.1019 -1.0702 -0.7877
14944SOL     OW46985   5.446   7.009   3.008  0.4156 -0.9273  0.1392
14944SOL    HW146986   5.455   7.102   3.024  0.1343 -0.5773 -1.5690
14944SOL    HW246987   5.392   7.003   2.930  0.2010 -2.5320  0.3751
14945SOL     OW46988   6.332   0.078   6.120  0.3449 -0.2575 -0.0936
14945SOL    HW146989   6.240   0.103   6.133  0.5484 -0.0649  1.1929
14945SOL    HW246990   6.351   0.101   6.030 -0.8102 -0.0955 -0.3156
14946SOL     OW46991   7.114   5.140   2.764 -0.4558 -0.2467  0.3478
14946SOL    HW146992   7.063   5.073   2.718 -2.2804  2.0206 -1.1501
14946SOL    HW246993   7.149   5.196   2.695  1.6725 -0.0257  1.5113
14947SOL     OW46994   1.654   7.458   8.772 -0.1310  0.0563  0.1452
14947SOL    HW146995   1.681   7.549   8.785  0.7454 -0.3149  1.0335
14947SOL    HW246996   1.624   7.455   8.681  2.6474  0.5805 -0.9060
14948SOL     OW46997   0.901   1.430   2.655  0.3355  0.5362  0.0179
14948SOL    HW146998   0.867   1.513   2.623  0.6153  0.3949 -0.6630
14948SOL    HW246999   0.988   1.450   2.689  0.2001  0.6093  0.3315
14949SOL     OW47000   2.471   2.265   6.864 -0.4425  0.7818 -0.1006
14949SOL    HW147001   2.501   2.280   6.774  1.0001  1.3210  0.4396
14949SOL    HW247002   2.451   2.353   6.897 -0.8626  0.5963  0.1490
14950SOL     OW47003   8.148   3.543   0.988  0.0423 -0.1381  0.4707
14950SOL    HW147004   8.165   3.556   1.081 -0.3942  1.8606  0.3191
14950SOL    HW247005   8.052   3.548   0.980  0.1158  0.4615 -0.1586
14951SOL     OW47006   0.524   2.075   7.657 -0.4012 -0.5180 -0.9061
14951SOL    HW147007   0.552   1.986   7.636 -0.6261 -0.4993 -1.3040
14951SOL    HW247008   0.604   2.119   7.688 -0.0418 -0.5305 -1.7984
14952SOL     OW47009   4.239   5.144   9.109 -0.0219  0.2738  0.6850
14952SOL    HW147010   4.315   5.184   9.066 -1.4919  2.4600 -0.0539
14952SOL    HW247011   4.215   5.071   9.052 -0.5529  1.7416 -1.0680
14953SOL     OW47012   6.682   2.527   3.476 -0.0196 -0.3957  0.4750
14953SOL    HW147013   6.593   2.496   3.463 -1.0735  2.6284 -0.3347
14953SOL    HW247014   6.724   2.458   3.528 -2.7265 -1.9995  0.7254
14954SOL     OW47015   4.185   7.714   6.613  0.3191  0.4033  0.3092
14954SOL    HW147016   4.220   7.726   6.525  1.1138  0.2088  0.5978
14954SOL    HW247017   4.097   7.753   6.609  0.4201  0.5571 -0.5138
14955SOL     OW47018   3.621   7.170   8.646  0.0849 -0.3981  0.0482
14955SOL    HW147019   3.541   7.222   8.638  0.3458  0.1203  0.7467
14955SOL    HW247020   3.596   7.084   8.612 -0.8828 -0.3512  0.5897
14956SOL     OW47021   5.616   4.116   5.991 -0.3362  0.5088 -0.0276
14956SOL    HW147022   5.689   4.176   6.000  0.5259 -0.3998 -0.7664
14956SOL    HW247023   5.539   4.168   6.013  0.5070  1.5343  0.5492
14957SOL     OW47024   1.068   8.782   2.789 -0.1989  0.1230 -0.2688
14957SOL    HW147025   1.040   8.693   2.768 -0.9325  0.6975 -1.9241
14957SOL    HW247026   1.164   8.778   2.789 -0.1815 -0.3798 -1.9057
14958SOL     OW47027   1.818   4.499   3.565 -0.4682  0.4250 -0.2273
14958SOL    HW147028   1.800   4.593   3.574  0.1073  0.4460  0.8451
14958SOL    HW247029   1.860   4.475   3.647 -2.5763 -1.2445  0.4551
14959SOL     OW47030   4.992   0.981   3.349 -0.6248 -0.2147  0.3836
14959SOL    HW147031   5.062   0.919   3.369 -1.1428 -0.6041  1.0420
14959SOL    HW247032   4.994   1.043   3.422  1.1621  1.7581 -1.1956
14960SOL     OW47033   6.724   2.004   9.606 -0.2180 -0.5366  0.1271
14960SOL    HW147034   6.761   2.037   9.689 -1.7141  1.6218  0.0192
14960SOL    HW247035   6.637   2.043   9.602 -0.4205 -1.1208 -2.1740
14961SOL     OW47036   3.053   7.632   1.760  0.3568  0.6182  0.4266
14961SOL    HW147037   2.966   7.624   1.799  0.7942 -0.7113  1.2099
14961SOL    HW247038   3.044   7.590   1.674 -0.0257  1.4522  0.0472
14962SOL     OW47039   0.133   6.926   3.010 -0.0041  0.7490 -0.0684
14962SOL    HW147040   0.129   7.021   3.006  1.8466  0.9870  2.0134
14962SOL    HW247041   0.064   6.901   3.071 -0.7355  0.6760 -0.8958
14963SOL     OW47042   7.384   3.089   8.082 -0.0561 -0.1522 -0.5894
14963SOL    HW147043   7.416   3.100   7.992 -0.5696  3.5889 -0.4930
14963SOL    HW247044   7.448   3.137   8.135 -0.9104 -0.4667  0.7550
14964SOL     OW47045   6.116   3.864   8.501  0.6611  0.5410  0.3666
14964SOL    HW147046   6.142   3.934   8.440 -0.9190  1.6816  0.9574
14964SOL    HW247047   6.180   3.870   8.572  0.5915  1.3517  0.3722
14965SOL     OW47048   0.924   7.758   9.340  0.1104  0.2862  1.0407
14965SOL    HW147049   1.017   7.746   9.321  0.0596 -0.3866  1.1933
14965SOL    HW247050   0.909   7.852   9.326  0.7714  0.3734  0.8558
14966SOL     OW47051   7.885   4.102   6.901  0.0903 -0.5825 -0.2433
14966SOL    HW147052   7.831   4.053   6.963 -0.3743  0.9836  0.6483
14966SOL    HW247053   7.888   4.046   6.823 -1.5921 -1.3972  0.2156
14967SOL     OW47054   0.085   7.857   3.122 -0.7048 -0.5036  0.1034
14967SOL    HW147055   0.011   7.882   3.176 -0.4612  2.0564 -0.6134
14967SOL    HW247056   0.134   7.938   3.109  1.7664 -1.9403 -0.1704
14968SOL     OW47057   0.674   2.006   1.956  0.9012  0.1860 -0.1621
14968SOL    HW147058   0.635   2.047   1.878  0.5268 -0.5733 -0.3892
14968SOL    HW247059   0.653   2.066   2.028 -0.2118  0.0742 -0.3785
14969SOL     OW47060   5.442   3.997   0.656 -0.4347  0.3856 -0.0230
14969SOL    HW147061   5.469   3.964   0.742 -0.0187 -0.8264 -0.5968
14969SOL    HW247062   5.509   4.062   0.634  0.2833 -0.3463 -0.0559
14970SOL     OW47063   4.501   8.123   1.698  0.3749  0.1644 -0.4191
14970SOL    HW147064   4.538   8.203   1.737 -0.8878 -0.0365  1.2783
14970SOL    HW247065   4.578   8.076   1.664  1.0992  2.3434 -2.0408
14971SOL     OW47066   5.660   9.218   9.395 -0.2210 -0.0735 -0.0190
14971SOL    HW147067   5.592   9.159   9.428 -0.2528 -0.5298 -0.8506
14971SOL    HW247068   5.741   9.185   9.432 -0.2829 -0.4191 -0.1924
14972SOL     OW47069   6.712   8.938   4.487 -0.3688  0.6565  0.2360
14972SOL    HW147070   6.746   9.007   4.431 -0.3895  0.6467  0.2106
14972SOL    HW247071   6.739   8.857   4.443 -2.0904  0.6269 -0.8246
14973SOL     OW47072   0.005   1.859   7.467 -0.0120 -0.2307  0.2747
14973SOL    HW147073  -0.050   1.937   7.454  0.9090  0.7898  2.1166
14973SOL    HW247074  -0.052   1.797   7.512 -0.5298 -0.3553 -0.5317
14974SOL     OW47075   6.540   6.050   8.523 -0.4071  0.2562  0.6311
14974SOL    HW147076   6.513   5.965   8.489  0.4530 -0.0674  0.7131
14974SOL    HW247077   6.623   6.068   8.478  0.0614  0.4480  1.5342
14975SOL     OW47078   7.186   4.042   4.478 -0.3939 -0.3576 -0.1113
14975SOL    HW147079   7.092   4.032   4.490 -0.4419 -0.9805 -0.9636
14975SOL    HW247080   7.200   4.137   4.476 -1.2819 -0.2275 -2.0865
14976SOL     OW47081   8.211   7.947   6.233  0.5833 -0.2577 -0.2484
14976SOL    HW147082   8.295   7.944   6.278 -0.0474 -3.2174  0.9842
14976SOL    HW247083   8.233   7.952   6.140  2.1741 -1.4184  0.0279
14977SOL     OW47084   7.720   9.053   9.543  0.0400 -0.0743  0.0723
14977SOL    HW147085   7.696   9.098   9.462 -1.1825 -0.3490  0.2659
14977SOL    HW247086   7.729   8.961   9.518 -2.5805 -0.5558  0.6243
14978SOL     OW47087   8.919   2.941   3.498  0.5551  0.2140 -0.2661
14978SOL    HW147088   8.826   2.924   3.484  0.8792 -1.3190 -0.7833
14978SOL    HW247089   8.957   2.938   3.411  1.2260 -0.2087  0.0306
14979SOL     OW47090   5.324   5.345   3.689 -0.3396 -0.0110  0.1508
14979SOL    HW147091   5.309   5.282   3.618  1.8521 -1.0407  0.5238
14979SOL    HW247092   5.246   5.400   3.688 -1.3640 -1.3618 -1.6211
14980SOL     OW47093   7.048   8.828   7.914 -0.7261 -0.5622 -0.4072
14980SOL    HW147094   6.984   8.775   7.961  1.4255 -2.5146  0.5280
14980SOL    HW247095   7.067   8.901   7.973  0.0555 -1.6166  0.7048
14981SOL     OW47096   5.704   4.191   1.844 -0.1088  0.5172 -0.4655
14981SOL    HW147097   5.612   4.164   1.846 -0.3764  1.2472 -1.9670
14981SOL    HW247098   5.752   4.111   1.823 -0.2465 -0.1404  1.5292
14982SOL     OW47099   5.379   8.519   8.889 -0.2181 -0.4968 -0.0971
14982SOL    HW147100   5.444   8.513   8.958  1.3408  0.3509 -1.4084
14982SOL    HW247101   5.302   8.558   8.931  0.7564  0.2125  1.1035
14983SOL     OW47102   3.480   4.410   6.289 -0.6360 -0.1042 -0.1425
14983SOL    HW147103   3.489   4.340   6.224 -0.8006 -0.7842  0.5470
14983SOL    HW247104   3.569   4.445   6.298 -0.9457  1.3783 -2.1882
14984SOL     OW47105   9.165   3.045   4.906  0.1583  0.0963  0.3224
14984SOL    HW147106   9.122   3.126   4.880  0.0824  0.6747  2.1375
14984SOL    HW247107   9.255   3.071   4.925  0.0261 -0.1486  1.3242
14985SOL     OW47108   5.408   7.556   4.958 -0.1077 -0.4890 -0.7487
14985SOL    HW147109   5.423   7.598   4.873 -3.0488 -0.9950 -1.6356
14985SOL    HW247110   5.355   7.620   5.007  1.4992 -0.2306  0.7341
14986SOL     OW47111   5.002   5.902   8.592 -0.0696  0.0886  0.2858
14986SOL    HW147112   5.005   5.930   8.500 -0.1381 -1.1599 -0.1173
14986SOL    HW247113   4.927   5.949   8.629 -1.5733 -1.2000 -0.9570
14987SOL     OW47114   1.385   2.960   0.415 -0.0788  0.0241  0.3126
14987SOL    HW147115   1.435   2.949   0.334 -0.4078  3.7561 -0.5423
14987SOL    HW247116   1.301   2.918   0.397 -1.0713  2.8129 -2.3612
14988SOL     OW47117   7.104   3.518   6.277 -0.3016  0.4768 -0.3198
14988SOL    HW147118   7.121   3.471   6.358  0.7995  2.2387  0.5372
14988SOL    HW247119   7.113   3.452   6.208 -0.0002 -0.7852  0.8966
14989SOL     OW47120   0.258   7.283   6.032  0.5426  0.0155  0.0849
14989SOL    HW147121   0.182   7.259   5.979  0.3258  2.4080 -0.7967
14989SOL    HW247122   0.264   7.214   6.098 -2.6009 -0.0708  0.4301
14990SOL     OW47123   1.025   8.723   2.262  0.0501 -0.1006  0.0590
14990SOL    HW147124   1.070   8.648   2.224 -0.4023 -0.6599  0.6156
14990SOL    HW247125   1.069   8.739   2.345 -0.4992 -0.3880  0.4109
14991SOL     OW47126   7.142   1.194   4.499  0.7709  0.4768  0.0212
14991SOL    HW147127   7.126   1.169   4.408  0.5580  0.4008  0.0785
14991SOL    HW247128   7.215   1.138   4.526  1.9704  1.6582 -0.6100
14992SOL     OW47129   7.544   3.350   6.897  0.0272 -0.1779  0.2190
14992SOL    HW147130   7.493   3.429   6.884  0.2605 -0.3660 -2.4819
14992SOL    HW247131   7.635   3.376   6.879  0.4288 -0.6073  1.5025
14993SOL     OW47132   5.317   4.381   8.176  0.3038  0.8397  0.0660
14993SOL    HW147133   5.234   4.357   8.218 -0.8404  0.3234 -2.3080
14993SOL    HW247134   5.298   4.466   8.135  0.5597  0.1586 -1.4854
14994SOL     OW47135   4.793   6.505   3.434  0.1618 -0.5669 -0.1178
14994SOL    HW147136   4.810   6.416   3.404  3.7730 -0.0477 -0.0528
14994SOL    HW247137   4.837   6.561   3.371 -3.4248  1.4516 -1.1226
14995SOL     OW47138   3.176   1.600   3.903  0.4996 -0.1616  0.3501
14995SOL    HW147139   3.145   1.515   3.933  0.9891 -0.5830 -0.3242
14995SOL    HW247140   3.272   1.594   3.908  0.5252  0.5880  0.9420
14996SOL     OW47141   8.214   6.708   1.616 -0.7302  0.2228  0.4630
14996SOL    HW147142   8.130   6.734   1.652 -0.1640  1.6573  0.8259
14996SOL    HW247143   8.272   6.783   1.634 -0.3955  1.1181 -3.4388
14997SOL     OW47144   1.254   6.999   9.611  0.5199 -0.7562 -0.1969
14997SOL    HW147145   1.212   6.916   9.630  0.4553 -0.3806  1.3967
14997SOL    HW247146   1.331   6.976   9.558 -0.5575 -1.6147 -1.4559
14998SOL     OW47147   4.010   8.852   3.092  0.0910  0.9811 -0.0110
14998SOL    HW147148   3.933   8.903   3.118 -1.2311 -0.5169 -0.8078
14998SOL    HW247149   4.044   8.816   3.174  0.0136  1.7335  0.3578
14999SOL     OW47150   2.614   5.138   2.052 -0.0829 -0.4407  0.2408
14999SOL    HW147151   2.595   5.088   2.131 -1.0919 -0.9099 -0.2818
14999SOL    HW247152   2.533   5.136   2.002  0.7325 -0.7319 -1.1195
15000SOL     OW47153   1.105   1.387   8.699 -0.0108 -0.4553  0.3186
15000SOL    HW147154   1.059   1.411   8.618  0.9470  2.7546  0.5876
15000SOL    HW247155   1.077   1.297   8.717 -0.0940 -1.3815 -3.6451
15001SOL     OW47156   8.759   9.259   6.159  0.4513 -0.3472  0.2058
15001SOL    HW147157   8.716   9.345   6.156 -2.6078 -1.7493 -2.0081
15001SOL    HW247158   8.742   9.228   6.248 -0.8526  0.2758  0.2049
15002SOL     OW47159   6.585   7.134   0.640 -1.2249  0.4997 -0.1859
15002SOL    HW147160   6.597   7.218   0.596 -0.7807  0.2220 -0.6038
15002SOL    HW247161   6.663   7.124   0.695 -1.5880  0.6604  0.3599
15003SOL     OW47162   0.302   7.678   8.267  0.0681  0.2883  0.1395
15003SOL    HW147163   0.385   7.719   8.243  2.4997 -2.4355  2.9313
15003SOL    HW247164   0.282   7.620   8.194  0.5273  1.1014 -0.6487
15004SOL     OW47165   5.602   8.255   6.331  0.1665 -0.4695 -0.0620
15004SOL    HW147166   5.587   8.235   6.424 -1.2071  1.2726  0.1419
15004SOL    HW247167   5.514   8.266   6.295  0.7200  0.5902 -1.1519
15005SOL     OW47168   4.166   1.605   2.794 -0.0983 -0.2855 -0.0293
15005SOL    HW147169   4.118   1.527   2.824  1.4095 -0.2371  2.8783
15005SOL    HW247170   4.228   1.571   2.730 -1.1577 -1.0159 -0.7087
15006SOL     OW47171   3.526   6.972   2.433 -0.2633  0.4400  0.1542
15006SOL    HW147172   3.483   6.905   2.487 -0.4879 -0.1032 -0.6836
15006SOL    HW247173   3.526   6.936   2.345  0.2497  1.2489 -0.1913
15007SOL     OW47174   8.703   5.455   8.069  0.3260  0.6703 -0.3527
15007SOL    HW147175   8.648   5.387   8.031 -0.9227  0.7931  1.1320
15007SOL    HW247176   8.735   5.504   7.994 -1.0312  0.1475 -1.3196
15008SOL     OW47177   8.169   9.413   4.151  0.4267 -0.0050 -0.4159
15008SOL    HW147178   8.076   9.437   4.145  0.7956  1.2376 -3.2797
15008SOL    HW247179   8.171   9.337   4.209 -2.4296 -0.3346 -0.5952
15009SOL     OW47180   6.118   8.800   4.152 -0.0515 -0.4603 -0.1510
15009SOL    HW147181   6.146   8.709   4.163 -0.4791 -0.6087 -0.2740
15009SOL    HW247182   6.028   8.802   4.187  0.0978  0.0047  0.2307
15010SOL     OW47183   5.193   3.014   4.067  0.0173 -0.1385 -0.0729
15010SOL    HW147184   5.100   3.037   4.068  0.1743  0.9365  3.8287
15010SOL    HW247185   5.238   3.096   4.086  1.3993 -1.3945  2.5321
15011SOL     OW47186   7.969   6.819   2.066  0.4054 -0.5049 -0.4405
15011SOL    HW147187   8.058   6.793   2.040 -0.1524  0.1721 -3.3835
15011SOL    HW247188   7.946   6.890   2.006 -1.3297  0.9123  1.7447
15012SOL     OW47189   4.268   4.710   1.872  0.4372 -0.4384  0.0608
15012SOL    HW147190   4.295   4.703   1.781  0.4244 -1.4702  0.1202
15012SOL    HW247191   4.348   4.695   1.922 -0.0086 -2.6003  0.2264
15013SOL     OW47192   2.637   7.951   8.903 -0.0382  0.4289  0.1870
15013SOL    HW147193   2.720   7.944   8.951 -0.0634 -1.2518  0.0519
15013SOL    HW247194   2.574   7.905   8.958 -0.5878  0.5102 -0.3628
15014SOL     OW47195   8.953   6.027   2.062 -0.3366 -0.0654  0.2948
15014SOL    HW147196   8.916   5.979   2.135 -1.4274  0.8454  0.3662
15014SOL    HW247197   8.881   6.035   1.999 -0.3052  1.7546  0.4473
15015SOL     OW47198   8.265   0.621   5.052 -0.4865 -0.7233  0.0940
15015SOL    HW147199   8.357   0.632   5.076  0.1052 -0.2533 -2.1940
15015SOL    HW247200   8.217   0.644   5.131  1.3018  1.2734  0.6880
15016SOL     OW47201   1.768   7.929   1.296  0.2498  0.1833 -0.9458
15016SOL    HW147202   1.798   7.871   1.226 -0.9789  0.6469 -1.8911
15016SOL    HW247203   1.815   7.900   1.374 -1.3217 -3.0125 -1.0555
15017SOL     OW47204   4.326   3.337   2.634 -1.0068 -0.3792 -0.6508
15017SOL    HW147205   4.323   3.402   2.563 -2.3278 -0.3741 -0.5995
15017SOL    HW247206   4.260   3.366   2.697  1.0115  0.3536  1.2624
15018SOL     OW47207   2.202   5.870   7.376  0.2100  0.3615  0.2022
15018SOL    HW147208   2.295   5.885   7.392  0.3203 -0.2709  0.1766
15018SOL    HW247209   2.191   5.775   7.382 -0.2706  0.3504 -0.6472
15019SOL     OW47210   3.762   8.789   7.827  0.1299  0.2160  0.6296
15019SOL    HW147211   3.743   8.709   7.877 -0.6763  0.1227  0.1874
15019SOL    HW247212   3.766   8.858   7.893 -1.8185  0.2466  0.7707
15020SOL     OW47213   2.729   7.496   7.846  0.2429 -0.6984 -0.1023
15020SOL    HW147214   2.816   7.508   7.809  1.2936 -3.0657  1.3820
15020SOL    HW247215   2.676   7.566   7.807  2.6474  0.4727 -1.4508
15021SOL     OW47216   0.500   5.660   9.025 -0.1002 -0.2720 -0.3001
15021SOL    HW147217   0.492   5.693   9.115 -0.0941 -1.1494  0.0341
15021SOL    HW247218   0.440   5.715   8.974  0.6376  0.8814  0.0516
15022SOL     OW47219   8.789   3.388   4.448 -0.0484 -0.0646  0.0540
15022SOL    HW147220   8.695   3.377   4.462 -0.0219 -0.5414 -0.1413
15022SOL    HW247221   8.829   3.345   4.523 -0.0014  1.0664  0.7039
15023SOL     OW47222   0.310   4.577   4.798  0.3179 -0.1784 -0.4160
15023SOL    HW147223   0.337   4.485   4.806  0.9819  0.0850  0.5616
15023SOL    HW247224   0.224   4.580   4.838  0.9117 -0.1117  0.8911
15024SOL     OW47225   6.127   1.840   6.731 -0.0974 -0.2022  0.1875
15024SOL    HW147226   6.168   1.792   6.803  0.7748 -0.4900 -0.4918
15024SOL    HW247227   6.124   1.777   6.659  1.5428  0.8836 -0.8916
15025SOL     OW47228   2.861   0.826   5.192 -0.2018  0.6320  0.3251
15025SOL    HW147229   2.806   0.813   5.269  0.4251 -0.5943  0.5937
15025SOL    HW247230   2.836   0.756   5.132 -0.2130  1.1723 -0.3054
15026SOL     OW47231   9.428   0.014   8.948  0.0379 -0.0560  0.4420
15026SOL    HW147232   9.497   0.034   9.010 -0.0334 -0.7377  0.7528
15026SOL    HW247233   9.466  -0.054   8.891 -0.2132 -0.1032  0.3295
15027SOL     OW47234   1.399   3.820   9.338 -0.0329  0.9356 -0.9876
15027SOL    HW147235   1.312   3.809   9.298 -0.7109  1.8422  0.1915
15027SOL    HW247236   1.392   3.775   9.422  1.2313 -0.5361 -1.6092
15028SOL     OW47237   8.693   6.194   3.999  0.1935 -0.5705  0.4072
15028SOL    HW147238   8.702   6.235   3.914 -1.2082  1.6359  1.2442
15028SOL    HW247239   8.768   6.226   4.050 -0.1548 -0.1331  0.6490
15029SOL     OW47240   3.546   7.611   7.626  0.5271  0.1082  0.4199
15029SOL    HW147241   3.521   7.603   7.718 -0.0828 -1.6269  0.1491
15029SOL    HW247242   3.484   7.554   7.579  1.4977  0.1103 -0.9388
15030SOL     OW47243   1.326   4.042   0.078 -0.0018  0.5457  0.0579
15030SOL    HW147244   1.264   4.043   0.152  0.6025 -1.9511  0.7114
15030SOL    HW247245   1.271   4.046   0.000 -0.8143  0.8790  0.6347
15031SOL     OW47246   3.238   9.442   7.318 -0.0674 -0.2986 -0.2103
15031SOL    HW147247   3.194   9.422   7.236  0.0306 -0.7466 -0.1541
15031SOL    HW247248   3.169   9.474   7.376  0.1229  1.7182 -1.0150
15032SOL     OW47249   9.508   1.014   4.404  0.3709  0.0274  0.4904
15032SOL    HW147250   9.569   0.985   4.336  4.2307  1.1155  3.1605
15032SOL    HW247251   9.478   0.934   4.445  1.7630 -0.5571  0.4382
15033SOL     OW47252   1.894   9.188   0.452  0.7013 -0.1045 -0.3896
15033SOL    HW147253   1.917   9.098   0.474 -0.0583 -0.3297 -0.4917
15033SOL    HW247254   1.860   9.183   0.362  0.9227  0.3314 -0.5018
15034SOL     OW47255   2.917   3.432   2.751 -0.3001 -0.7072 -0.3447
15034SOL    HW147256   2.916   3.346   2.795 -0.5912 -0.5504 -0.0406
15034SOL    HW247257   2.951   3.413   2.663  1.9399 -0.7772  0.4683
15035SOL     OW47258   7.216   5.556   4.702 -0.2856 -0.0160 -0.0525
15035SOL    HW147259   7.251   5.577   4.615  0.6367 -0.9048  0.0848
15035SOL    HW247260   7.188   5.640   4.738 -0.6439  0.3686 -1.1864
15036SOL     OW47261   2.826   6.629   4.169 -0.6241 -0.4899 -0.4165
15036SOL    HW147262   2.763   6.695   4.142 -1.1429 -1.6256 -2.1219
15036SOL    HW247263   2.777   6.571   4.227 -0.8822 -0.8232 -0.9667
15037SOL     OW47264   3.347   0.241   0.462 -0.7466 -0.0693  0.3654
15037SOL    HW147265   3.320   0.203   0.378 -0.3004 -0.6750  0.4935
15037SOL    HW247266   3.285   0.312   0.477  0.4020  1.4289 -1.5100
15038SOL     OW47267   6.115   4.643   7.811 -0.1801  0.2831 -0.0995
15038SOL    HW147268   6.143   4.556   7.840 -0.9400  0.0107 -0.1785
15038SOL    HW247269   6.027   4.630   7.777 -0.8438  1.3370  1.1525
15039SOL     OW47270   2.480   1.495   1.692  0.5946  0.1822 -0.6169
15039SOL    HW147271   2.420   1.489   1.618  0.9752 -2.4675 -0.7897
15039SOL    HW247272   2.567   1.488   1.653  0.9056  0.9937 -0.0946
15040SOL     OW47273   9.297   9.281   7.076  0.0218 -0.1716  0.4666
15040SOL    HW147274   9.320   9.349   7.013  1.9112 -1.2152 -0.0495
15040SOL    HW247275   9.379   9.261   7.120 -1.0143 -0.3706  2.3859
15041SOL     OW47276   1.229   8.930   7.480  0.3224 -0.0725  0.2077
15041SOL    HW147277   1.142   8.918   7.519 -0.4589  0.9661 -1.1429
15041SOL    HW247278   1.277   8.983   7.544 -0.9444  1.6274 -0.1886
15042SOL     OW47279   5.487   4.181   8.229 -0.2588 -0.2626  0.0654
15042SOL    HW147280   5.435   4.260   8.213 -0.5006 -0.5002 -0.3414
15042SOL    HW247281   5.547   4.206   8.300  1.2207  1.0289 -1.5261
15043SOL     OW47282   5.242   0.161   4.133  0.6174  0.1033  0.4949
15043SOL    HW147283   5.216   0.076   4.100 -1.3027  0.6377  0.5095
15043SOL    HW247284   5.317   0.187   4.078 -1.4625  0.2825 -2.4763
15044SOL     OW47285   3.882   6.351   3.369 -0.0354 -0.2444 -0.0992
15044SOL    HW147286   3.949   6.332   3.303  1.1312  1.3118  0.5755
15044SOL    HW247287   3.860   6.443   3.355 -1.3078 -0.4671  0.3450
15045SOL     OW47288   1.944   7.142   2.565 -0.2873 -0.4565  0.0901
15045SOL    HW147289   1.882   7.214   2.563  0.2664  0.0254 -1.4700
15045SOL    HW247290   2.007   7.166   2.633  0.4659  1.0919 -1.0674
15046SOL     OW47291   9.550   7.690   5.670  0.3118 -0.6601 -0.4838
15046SOL    HW147292   9.564   7.599   5.697 -0.2390 -0.7477 -0.4778
15046SOL    HW247293   9.473   7.687   5.614 -0.0494 -0.1216 -0.0321
15047SOL     OW47294   2.428   2.613   7.205 -0.2351  0.0450 -0.1094
15047SOL    HW147295   2.337   2.588   7.218 -0.7527  1.0997 -1.5066
15047SOL    HW247296   2.478   2.545   7.250 -1.7221  0.7498  2.8000
15048SOL     OW47297   7.615   1.172   7.065 -0.4940  0.4503 -0.2945
15048SOL    HW147298   7.559   1.242   7.099  0.8596  0.6962  1.5666
15048SOL    HW247299   7.703   1.209   7.067  0.2424 -1.2585  0.6403
15049SOL     OW47300   1.741   8.785   2.483 -0.6073 -0.1251  0.0800
15049SOL    HW147301   1.744   8.689   2.480 -1.1514 -0.1576  0.4564
15049SOL    HW247302   1.735   8.812   2.391  0.3965 -0.4095 -0.0866
15050SOL     OW47303   3.919   3.159   4.574 -0.5388  0.0730  0.2658
15050SOL    HW147304   3.940   3.070   4.603  1.4569  0.0287 -1.1457
15050SOL    HW247305   3.938   3.214   4.651  0.3795 -0.4964  0.4649
15051SOL     OW47306   7.876   1.123   5.426  0.0496  0.2193 -0.2900
15051SOL    HW147307   7.948   1.068   5.455  0.4781  0.6411 -0.5244
15051SOL    HW247308   7.798   1.081   5.459  0.4577  0.1566  0.6194
15052SOL     OW47309   8.874   4.581   3.601 -0.2032 -0.0384 -0.1969
15052SOL    HW147310   8.782   4.564   3.581  0.0765 -0.1791 -1.4168
15052SOL    HW247311   8.907   4.497   3.633 -0.5242  0.0592  0.4256
15053SOL     OW47312   3.954   2.794   3.060  0.2982 -0.1622 -0.3078
15053SOL    HW147313   3.966   2.885   3.087 -0.3822 -0.0342 -0.4256
15053SOL    HW247314   3.863   2.774   3.082 -0.1810 -0.1605 -2.1531
15054SOL     OW47315   1.029   9.204   4.730 -0.6598  0.0513 -0.0783
15054SOL    HW147316   0.954   9.169   4.779  0.0788 -0.5467  0.6383
15054SOL    HW247317   0.991   9.236   4.648 -1.4404 -1.8875 -0.5140
15055SOL     OW47318   4.245   5.027   1.804  1.2810 -0.1231 -0.1005
15055SOL    HW147319   4.233   5.042   1.711  0.2817  0.5299  0.1155
15055SOL    HW247320   4.224   4.935   1.817 -1.5058  0.4244 -0.1079
15056SOL     OW47321   1.582   1.348   8.008  0.0041 -0.3325  0.3385
15056SOL    HW147322   1.577   1.356   8.103 -0.2919 -2.3626  0.5470
15056SOL    HW247323   1.673   1.323   7.991  0.2780  0.8379 -0.0177
15057SOL     OW47324   8.055   6.576   6.123  0.0962 -0.2691 -0.0201
15057SOL    HW147325   8.011   6.656   6.095  0.0353 -0.3697 -0.2134
15057SOL    HW247326   8.148   6.594   6.111  0.0734 -0.2843 -0.2094
15058SOL     OW47327   9.076   8.905   0.632 -0.6391  0.1015 -0.2344
15058SOL    HW147328   9.105   8.976   0.689 -1.9944  0.8672 -0.4648
15058SOL    HW247329   9.148   8.842   0.634  0.5648  1.4489  0.0121
15059SOL     OW47330   4.165   3.710   3.186 -0.0429  0.2802 -0.2653
15059SOL    HW147331   4.187   3.631   3.235 -0.1718  1.5372  1.9546
15059SOL    HW247332   4.250   3.744   3.157  0.1222  0.0425 -0.0668
15060SOL     OW47333   1.939   4.878   2.818 -0.5342  0.0934  0.0684
15060SOL    HW147334   1.883   4.910   2.748 -0.3184  1.1545  0.3550
15060SOL    HW247335   1.948   4.785   2.802  0.1421  0.4447 -1.7777
15061SOL     OW47336   4.163   6.340   9.404  0.2515 -0.8360  0.0171
15061SOL    HW147337   4.098   6.405   9.375 -0.6770 -2.0805 -0.8260
15061SOL    HW247338   4.244   6.366   9.361  0.3210  0.6912  1.0022
15062SOL     OW47339   2.983   7.476   5.037 -0.2839  0.2683  0.1455
15062SOL    HW147340   3.033   7.448   5.113 -0.4665 -0.5622 -0.0332
15062SOL    HW247341   3.003   7.570   5.028  0.6499  0.1121  0.5119
15063SOL     OW47342   7.728   0.007   0.631 -0.2218  0.3771 -0.4857
15063SOL    HW147343   7.744  -0.087   0.627 -0.2232  0.3112  0.6916
15063SOL    HW247344   7.634   0.015   0.646 -0.4122  0.6140 -1.6821
15064SOL     OW47345   8.677   9.586   2.889  0.6179  0.3414  0.0577
15064SOL    HW147346   8.648   9.506   2.933 -1.0173  0.7876 -0.1092
15064SOL    HW247347   8.730   9.556   2.816 -1.1665 -0.7057 -0.8680
15065SOL     OW47348   3.211   9.009   2.137 -0.1295 -0.4072 -0.0373
15065SOL    HW147349   3.176   9.082   2.088  1.1792 -0.1638 -0.6502
15065SOL    HW247350   3.288   8.981   2.088 -0.1317 -1.6699  0.6214
15066SOL     OW47351   8.315   8.927   7.671 -0.0115 -0.1961  0.2006
15066SOL    HW147352   8.261   8.902   7.597 -0.7777  0.5155  0.5021
15066SOL    HW247353   8.404   8.926   7.637 -0.4504  1.6086 -1.1870
15067SOL     OW47354   9.146   1.792   6.740 -0.1422 -0.0803  0.0089
15067SOL    HW147355   9.088   1.868   6.731  0.3817  0.6687  2.2812
15067SOL    HW247356   9.094   1.728   6.789 -0.1701 -0.7519 -0.8719
15068SOL     OW47357   9.047   6.366   3.350  0.2794  0.4399 -0.2116
15068SOL    HW147358   9.123   6.311   3.328 -0.7515 -1.1982  0.1802
15068SOL    HW247359   9.012   6.392   3.265 -0.0594 -0.7337 -0.4515
15069SOL     OW47360   5.977   4.742   2.717 -0.2670 -0.1332  0.0961
15069SOL    HW147361   5.895   4.787   2.738 -0.2380  0.6501 -1.3214
15069SOL    HW247362   5.977   4.664   2.773 -2.1512 -0.3372 -0.1283
15070SOL     OW47363   7.022   9.364   9.171  0.3131 -0.0649  0.7375
15070SOL    HW147364   7.054   9.455   9.171 -0.3099  0.1719 -0.0536
15070SOL    HW247365   6.935   9.370   9.211 -1.9565  0.6108 -3.6433
15071SOL     OW47366   7.523   2.077   0.097 -0.5598  0.1418  0.4263
15071SOL    HW147367   7.429   2.089   0.085 -0.2788  1.4221 -0.9648
15071SOL    HW247368   7.561   2.112   0.016  1.0403 -1.7148  0.3040
15072SOL     OW47369   1.309   3.385   1.617  0.4701  0.0634 -0.5060
15072SOL    HW147370   1.378   3.328   1.650  0.5174 -0.1963 -1.0453
15072SOL    HW247371   1.355   3.460   1.579  0.3686  1.5136  2.0195
15073SOL     OW47372   6.652   1.845   0.250 -0.2259  0.5497  0.3737
15073SOL    HW147373   6.714   1.903   0.206 -0.4682  1.0854  0.7309
15073SOL    HW247374   6.567   1.871   0.217 -0.5676  1.9346  2.1797
15074SOL     OW47375   9.538   8.662   7.457 -0.0134  0.2342 -0.2307
15074SOL    HW147376   9.449   8.693   7.469  0.0453  1.2399 -1.9799
15074SOL    HW247377   9.535   8.569   7.478 -0.7957  0.8213  2.5653
15075SOL     OW47378   1.178   6.342   3.542 -0.2303  0.8120 -0.2966
15075SOL    HW147379   1.246   6.275   3.542 -0.3837  0.6441 -0.9155
15075SOL    HW247380   1.216   6.415   3.589  0.3549  0.6932 -0.5725
15076SOL     OW47381   8.953   8.741   1.679 -0.1766 -0.1145 -0.2299
15076SOL    HW147382   9.013   8.792   1.624  1.0347  0.0894  1.2187
15076SOL    HW247383   8.969   8.650   1.654 -0.3897  0.0310 -0.9258
15077SOL     OW47384   5.780   5.254   0.602 -0.0775  0.0063 -0.0823
15077SOL    HW147385   5.728   5.265   0.523 -0.6765  0.7729  0.4005
15077SOL    HW247386   5.871   5.267   0.574 -0.0968 -1.5596 -0.9726
15078SOL     OW47387   3.743   7.333   5.533  0.6841 -0.3599  0.3152
15078SOL    HW147388   3.755   7.394   5.605  0.2040 -1.2627  1.1826
15078SOL    HW247389   3.756   7.386   5.454 -1.4764  1.3007  0.9745
15079SOL     OW47390   0.249   2.898   3.869  0.5964  0.2598 -0.0404
15079SOL    HW147391   0.211   2.965   3.812  0.9501  0.3349 -0.1876
15079SOL    HW247392   0.334   2.934   3.894  0.7927 -0.1436 -0.1270
15080SOL     OW47393   7.424   6.963   2.604 -0.2805  0.4972  0.5236
15080SOL    HW147394   7.435   6.909   2.682  1.5679  0.0319  0.0057
15080SOL    HW247395   7.482   7.038   2.619  0.3942  0.2111 -0.5249
15081SOL     OW47396   6.506   3.381   4.957  0.0053  0.4216  0.4902
15081SOL    HW147397   6.448   3.449   4.990 -1.9251 -0.4236 -0.9556
15081SOL    HW247398   6.475   3.300   4.998  0.4800  0.0077  0.0555
15082SOL     OW47399   9.422   7.374   0.684 -0.1235  0.1601  0.1475
15082SOL    HW147400   9.327   7.386   0.691 -0.2169  0.3822 -1.2336
15082SOL    HW247401   9.433   7.281   0.662 -0.3821  0.9809 -4.3111
15083SOL     OW47402   2.286   4.657   4.063  0.1762 -0.7780 -0.1920
15083SOL    HW147403   2.220   4.726   4.052  0.4368 -0.4035  0.5903
15083SOL    HW247404   2.236   4.582   4.096  0.0415 -0.6770 -0.1641
15084SOL     OW47405   8.186   7.149   1.604 -0.8004 -0.0782 -0.1258
15084SOL    HW147406   8.201   7.213   1.535 -0.9066 -0.9667 -0.9986
15084SOL    HW247407   8.092   7.157   1.624 -1.3638 -1.5599 -1.9220
15085SOL     OW47408   7.036   5.346   0.192 -0.3460  0.3663 -0.3704
15085SOL    HW147409   6.984   5.277   0.233 -0.4164  0.8524  0.3991
15085SOL    HW247410   7.068   5.398   0.266  1.2521  0.0748 -0.8240
15086SOL     OW47411   2.523   0.430   0.591 -0.4334  0.3718  0.2378
15086SOL    HW147412   2.457   0.499   0.582  0.0007  0.5007 -2.7989
15086SOL    HW247413   2.473   0.349   0.583 -0.3745  0.4581 -1.2607
15087SOL     OW47414   2.072   6.602   6.998  0.3609 -0.0527  0.5049
15087SOL    HW147415   2.057   6.626   6.907  1.1278  0.5408  0.5240
15087SOL    HW247416   1.986   6.574   7.030  0.3350 -1.6103 -0.7680
15088SOL     OW47417   6.144   2.975   7.284  0.2082  0.1073 -0.1979
15088SOL    HW147418   6.181   3.056   7.317 -1.1066  0.6405  0.0104
15088SOL    HW247419   6.211   2.909   7.302  0.3812  0.7434  1.6363
15089SOL     OW47420   4.045   0.159   1.794  0.4921  0.1318  0.0952
15089SOL    HW147421   4.101   0.188   1.866 -0.9006 -0.7382  1.6298
15089SOL    HW247422   4.054   0.226   1.727 -1.1588  3.2466  2.6653
15090SOL     OW47423   1.384   3.420   2.302  0.1725 -0.3919 -0.2817
15090SOL    HW147424   1.397   3.351   2.368 -1.0783 -0.6263 -0.2539
15090SOL    HW247425   1.358   3.497   2.353 -1.2794 -0.7023 -0.4883
15091SOL     OW47426   2.198   1.782   4.146  0.1392 -0.1802  0.0237
15091SOL    HW147427   2.131   1.848   4.132  2.0703  2.4675  2.0177
15091SOL    HW247428   2.173   1.739   4.228  0.1863 -0.1131  0.0739
15092SOL     OW47429   7.997   3.890   4.188 -0.1447  0.0526  0.5560
15092SOL    HW147430   8.053   3.868   4.262  0.7961  0.6000  0.0176
15092SOL    HW247431   7.914   3.844   4.206  0.3687 -0.5248  1.4996
15093SOL     OW47432   8.814   6.766   4.908  0.6827  0.1633 -0.3755
15093SOL    HW147433   8.876   6.801   4.844 -0.3035 -0.5762 -1.7774
15093SOL    HW247434   8.730   6.762   4.861 -0.2886  0.4764  1.2514
15094SOL     OW47435   9.212   0.338   0.635 -0.3872  0.2808 -0.4510
15094SOL    HW147436   9.280   0.293   0.585 -1.0507 -2.2880  0.7972
15094SOL    HW247437   9.238   0.328   0.726 -0.8409  2.0587 -0.0878
15095SOL     OW47438   3.897   7.751   5.289  0.0299 -0.2168  0.2704
15095SOL    HW147439   3.945   7.783   5.213  0.3582  0.5209  0.7645
15095SOL    HW247440   3.814   7.720   5.254 -0.2511  1.0903 -0.2757
15096SOL     OW47441   3.792   5.943   2.824 -0.3091 -0.0334 -0.2274
15096SOL    HW147442   3.698   5.960   2.835 -0.4831 -1.4758  0.8780
15096SOL    HW247443   3.827   5.945   2.913  0.8011  0.8788 -0.6646
15097SOL     OW47444   1.514   7.634   1.593  0.0533 -0.1062  0.3305
15097SOL    HW147445   1.516   7.704   1.528 -1.0090  0.0908  0.4836
15097SOL    HW247446   1.505   7.679   1.677 -0.3854 -0.4126  0.4533
15098SOL     OW47447   3.069   3.371   8.544 -0.1662  0.3137 -0.9659
15098SOL    HW147448   3.083   3.464   8.530 -0.6809  0.8993  1.8768
15098SOL    HW247449   2.995   3.366   8.604  0.0295 -1.9109 -0.8142
15099SOL     OW47450   3.101   6.496   1.959  0.2183  0.3498 -0.0171
15099SOL    HW147451   3.156   6.445   1.900 -1.5923 -0.2253 -1.3018
15099SOL    HW247452   3.035   6.434   1.990 -1.1299  1.5158 -0.4191
15100SOL     OW47453   5.022   0.507   7.757 -0.2490  0.2372 -0.0976
15100SOL    HW147454   5.007   0.431   7.701  0.3137 -0.4999  0.7248
15100SOL    HW247455   4.981   0.482   7.841  1.3523  0.1446  0.6931
15101SOL     OW47456   0.898   6.599   9.508 -0.0614  0.0298 -0.5502
15101SOL    HW147457   0.809   6.592   9.475  0.1127 -0.9448 -0.8560
15101SOL    HW247458   0.936   6.512   9.494  0.6191  0.1362  0.5017
15102SOL     OW47459   3.007   3.865   9.325  0.1795  0.2932 -0.3859
15102SOL    HW147460   3.046   3.802   9.386 -0.3140 -1.7073 -2.0219
15102SOL    HW247461   3.059   3.945   9.337  0.5636 -0.2319  2.0643
15103SOL     OW47462   2.106   5.912   2.098 -0.4554 -0.0165 -0.2117
15103SOL    HW147463   2.170   5.935   2.165 -0.9250  1.8205 -0.3446
15103SOL    HW247464   2.053   5.991   2.087 -1.9074 -1.0573 -1.0528
15104SOL     OW47465   3.635   1.357   5.196 -0.0719 -0.2255 -0.8866
15104SOL    HW147466   3.611   1.272   5.160 -1.9766  0.0574 -0.3629
15104SOL    HW247467   3.630   1.347   5.291 -0.5034  0.5110 -0.8195
15105SOL     OW47468   2.881   6.894   3.827  0.0046 -0.3553  0.1431
15105SOL    HW147469   2.789   6.899   3.852  0.2118 -2.6194  1.6296
15105SOL    HW247470   2.885   6.822   3.763  0.7535 -0.3030  0.1199
15106SOL     OW47471   6.415   2.153   0.168 -0.4722  0.7220 -0.5774
15106SOL    HW147472   6.338   2.204   0.141 -0.0213  1.0793 -1.2301
15106SOL    HW247473   6.474   2.158   0.092 -0.5921 -1.1473 -0.8284
15107SOL     OW47474   1.785   5.619   2.966  0.2110  0.3408  0.0192
15107SOL    HW147475   1.770   5.539   3.016  2.4215 -0.2601 -0.1532
15107SOL    HW247476   1.766   5.690   3.027 -0.1689 -0.3304  0.6964
15108SOL     OW47477   9.035   1.636   8.280  0.2870  0.0208 -0.6805
15108SOL    HW147478   9.034   1.703   8.212  0.0475 -0.8773 -1.5975
15108SOL    HW247479   9.043   1.684   8.362 -3.6361  1.5036 -0.9545
15109SOL     OW47480   6.824   8.017   4.368 -0.0402 -0.3179  0.0208
15109SOL    HW147481   6.760   7.949   4.385 -1.1910  0.4884 -0.9170
15109SOL    HW247482   6.772   8.093   4.342  1.2459  0.6659  0.2243
15110SOL     OW47483   3.712   1.896   3.109 -0.4374  0.3023  0.1448
15110SOL    HW147484   3.698   1.980   3.153 -1.2102  0.8504 -1.0948
15110SOL    HW247485   3.670   1.907   3.024  1.5092 -0.5292 -0.9642
15111SOL     OW47486   5.987   2.228   9.324 -0.1032  0.6165 -0.1178
15111SOL    HW147487   5.993   2.315   9.285  0.3286  0.7912  0.3375
15111SOL    HW247488   5.926   2.181   9.267  1.5859  0.4191 -1.8690
15112SOL     OW47489   8.377   6.963   1.628 -0.4035 -0.4550 -0.0071
15112SOL    HW147490   8.428   6.975   1.709 -0.3011  0.6166 -0.2085
15112SOL    HW247491   8.329   7.046   1.618 -2.1898 -1.4310  0.1703
15113SOL     OW47492   3.275   0.092   2.196  0.2015  0.1465  0.6418
15113SOL    HW147493   3.322   0.163   2.241 -0.3841  0.2675  1.0702
15113SOL    HW247494   3.197   0.077   2.249 -0.1595 -0.1763  0.0321
15114SOL     OW47495   1.188   2.453   2.344 -0.1125  0.4514  0.0886
15114SOL    HW147496   1.184   2.518   2.274 -0.6732  1.7372  1.2684
15114SOL    HW247497   1.098   2.444   2.375  0.0548 -0.4304  0.3574
15115SOL     OW47498   8.743   8.807   5.377 -0.0170  0.0039  0.0904
15115SOL    HW147499   8.727   8.862   5.301 -1.9412  0.8717  1.0668
15115SOL    HW247500   8.805   8.856   5.430  0.6162 -0.1901 -0.4475
15116SOL     OW47501   5.911   6.239   3.025  0.5665 -0.1457  0.1327
15116SOL    HW147502   5.924   6.205   2.937 -0.0000 -0.1399  0.0445
15116SOL    HW247503   5.943   6.329   3.021 -0.6445  0.2760 -0.4167
15117SOL     OW47504   1.835   6.052   0.864 -0.1995  0.1171  0.2300
15117SOL    HW147505   1.772   6.102   0.812 -0.2867 -1.5924 -1.4169
15117SOL    HW247506   1.882   6.000   0.800  3.5638  1.9140  1.2616
15118SOL     OW47507   7.963   5.618   3.675 -0.2097  0.3039  0.0182
15118SOL    HW147508   7.893   5.682   3.687  0.4932  1.6402 -2.3008
15118SOL    HW247509   7.984   5.623   3.582  1.2288 -1.9287  0.1410
15119SOL     OW47510   1.880   1.379   6.448  0.0286 -0.0481 -0.2777
15119SOL    HW147511   1.905   1.447   6.385 -1.2968  0.9858  0.2764
15119SOL    HW247512   1.804   1.336   6.408 -0.3220  0.0778  0.2529
15120SOL     OW47513   9.028   0.909   3.624 -0.9290  0.4474  0.5864
15120SOL    HW147514   9.040   0.962   3.703  2.0841 -1.5040  1.5946
15120SOL    HW247515   9.021   0.819   3.656  0.9618 -0.4709 -1.3297
15121SOL     OW47516   6.010   0.240   7.107  0.4098 -0.5117 -0.4325
15121SOL    HW147517   5.972   0.153   7.108 -0.2623 -0.2361 -0.8111
15121SOL    HW247518   6.023   0.259   7.014 -1.5847  0.6699 -0.5319
15122SOL     OW47519   9.438   2.639   3.600 -0.0288  0.3258 -0.4708
15122SOL    HW147520   9.450   2.590   3.518 -0.7412 -1.9476  0.6763
15122SOL    HW247521   9.524   2.636   3.642 -0.0431  0.0996 -0.4523
15123SOL     OW47522   1.398   8.252   1.046 -0.3758 -0.5220 -0.0342
15123SOL    HW147523   1.379   8.299   1.127 -0.5635 -1.3739  0.4341
15123SOL    HW247524   1.454   8.179   1.074 -1.7355 -1.7461 -0.4161
15124SOL     OW47525   4.262   5.376   6.400 -0.2715 -0.1854  0.2678
15124SOL    HW147526   4.321   5.315   6.443 -1.0310 -0.4885  0.9068
15124SOL    HW247527   4.308   5.402   6.320  0.5682 -0.6700  0.5833
15125SOL     OW47528   3.579   3.972   7.763 -0.1219 -0.1323  0.3515
15125SOL    HW147529   3.535   3.895   7.801 -1.6660  1.3072  1.6924
15125SOL    HW247530   3.531   4.047   7.801  1.4015  1.4877 -0.7948
15126SOL     OW47531   5.330   0.243   1.989  0.3182  0.0349  0.2756
15126SOL    HW147532   5.359   0.316   2.044  0.9525 -1.3409  1.8898
15126SOL    HW247533   5.381   0.252   1.909  1.1855  0.7623  0.8788
15127SOL     OW47534   3.659   2.517   7.273  0.0135 -0.5962  0.4999
15127SOL    HW147535   3.722   2.447   7.259  0.4730  0.1597 -1.5114
15127SOL    HW247536   3.574   2.476   7.261  0.3089 -0.6153 -2.0075
15128SOL     OW47537   8.135   8.488   9.395  0.1748  0.0295  0.2052
15128SOL    HW147538   8.188   8.513   9.471 -1.2862  1.5654  0.7763
15128SOL    HW247539   8.085   8.412   9.425  1.6368 -1.1282 -0.1827
15129SOL     OW47540   5.900   6.195   6.859 -0.0931  0.4640  0.3072
15129SOL    HW147541   5.968   6.170   6.797  0.3486 -0.5181  1.1496
15129SOL    HW247542   5.948   6.234   6.933 -0.4336 -0.1873  0.8839
15130SOL     OW47543   3.054   1.541   6.075  0.1218 -0.0668  0.3136
15130SOL    HW147544   2.974   1.489   6.070  0.6718 -0.9690  0.8466
15130SOL    HW247545   3.024   1.629   6.099 -0.6270 -0.6135  1.4422
15131SOL     OW47546   3.981   9.594   0.071  0.0745  0.7111  0.1854
15131SOL    HW147547   3.969   9.511   0.118 -0.0695 -0.6206 -2.0613
15131SOL    HW247548   3.894   9.635   0.073 -0.2851 -0.0160 -0.1259
15132SOL     OW47549   3.959   5.867   5.148  0.3157 -0.0465  0.0912
15132SOL    HW147550   4.029   5.918   5.190 -0.2118 -0.3770  1.4273
15132SOL    HW247551   4.002   5.787   5.119  0.7692  0.3494 -0.3581
15133SOL     OW47552   6.696   8.838   4.884 -0.3664 -0.4030 -0.0470
15133SOL    HW147553   6.777   8.794   4.858 -0.1721  0.8531 -1.7637
15133SOL    HW247554   6.657   8.779   4.949  1.6048 -1.3316  0.3928
15134SOL     OW47555   2.680   7.821   3.801 -0.2249 -0.4293 -0.2951
15134SOL    HW147556   2.674   7.872   3.721  1.1344 -0.4850 -0.4624
15134SOL    HW247557   2.590   7.799   3.824 -0.7124  0.7416 -1.0565
15135SOL     OW47558   0.246   5.758   7.871 -0.4756 -0.1759  0.0062
15135SOL    HW147559   0.268   5.758   7.964 -0.1700 -3.1898  0.0136
15135SOL    HW247560   0.153   5.780   7.868 -0.6209 -0.6189  1.0724
15136SOL     OW47561   8.128   2.004   3.120  0.3832  0.1996 -0.0216
15136SOL    HW147562   8.178   1.969   3.046  3.3044 -0.1137  1.9311
15136SOL    HW247563   8.136   2.099   3.111 -0.0504  0.1860 -0.5837
15137SOL     OW47564   7.852   8.722   5.359 -0.3537  0.3388 -0.4424
15137SOL    HW147565   7.796   8.737   5.435  0.0861  1.9009 -0.3824
15137SOL    HW247566   7.792   8.718   5.284 -0.8853 -2.1964  0.0372
15138SOL     OW47567   3.593   6.641   6.391  0.0105 -0.3716 -0.1322
15138SOL    HW147568   3.504   6.638   6.425  0.1078  0.0957  0.1809
15138SOL    HW247569   3.614   6.549   6.371  0.0076 -0.7115  1.2598
15139SOL     OW47570   9.305   5.461   2.605 -0.0654  0.2740 -0.0916
15139SOL    HW147571   9.375   5.409   2.643  0.6182  1.0725 -0.2315
15139SOL    HW247572   9.264   5.403   2.541  1.2023  0.1595 -0.8307
15140SOL     OW47573   3.045   1.402   8.988 -0.3040  0.2775  0.0178
15140SOL    HW147574   3.083   1.330   9.038 -1.1486  0.1129  0.4336
15140SOL    HW247575   3.108   1.474   9.000  0.8309 -0.5396 -0.8732
15141SOL     OW47576   8.180   6.533   0.888  0.5694 -0.2785  0.5479
15141SOL    HW147577   8.103   6.573   0.927  0.8158 -1.1761  2.0284
15141SOL    HW247578   8.243   6.526   0.960  1.4465 -1.0251 -0.2559
15142SOL     OW47579   1.563   9.267   7.126  0.0269  0.5996  0.1368
15142SOL    HW147580   1.603   9.298   7.207 -2.7560  1.0086  1.4562
15142SOL    HW247581   1.570   9.341   7.066  1.7687  0.4204  0.0622
15143SOL     OW47582   7.144   1.053   5.624  0.1486  0.3049  0.7005
15143SOL    HW147583   7.233   1.033   5.652 -0.0581 -0.0047  1.1560
15143SOL    HW247584   7.098   0.969   5.628  0.1841  0.1814 -0.9117
15144SOL     OW47585   3.814   6.469   1.801  0.1278  0.3359 -0.1773
15144SOL    HW147586   3.763   6.493   1.878  2.4473 -1.9428  2.2799
15144SOL    HW247587   3.772   6.390   1.767  1.4123 -1.0581  1.3434
15145SOL     OW47588   3.042   1.854   6.569 -0.1119 -0.3732  0.1054
15145SOL    HW147589   2.979   1.816   6.507  0.7606 -1.3040 -0.2479
15145SOL    HW247590   2.988   1.894   6.637 -1.0858 -0.9532 -0.2986
15146SOL     OW47591   7.714   8.072   7.618 -0.3071  0.2522  0.0261
15146SOL    HW147592   7.773   7.997   7.610 -0.7485  0.0471 -1.9083
15146SOL    HW247593   7.754   8.127   7.685  1.0744 -0.7648  0.0928
15147SOL     OW47594   6.953   8.069   6.493  0.0485  0.3466  0.2070
15147SOL    HW147595   6.908   7.988   6.519  1.5858 -0.7160 -0.2519
15147SOL    HW247596   6.948   8.069   6.397 -1.6367  1.8622  0.2474
15148SOL     OW47597   1.407   6.794   7.845 -1.0062  0.3121  0.2573
15148SOL    HW147598   1.352   6.809   7.922 -0.9214 -0.1276  0.4048
15148SOL    HW247599   1.348   6.753   7.782 -0.9955  0.3855  0.1988
15149SOL     OW47600   1.086   5.754   7.802 -0.3138  0.1774 -0.0345
15149SOL    HW147601   1.067   5.846   7.823  2.1859  1.2498 -1.9708
15149SOL    HW247602   1.099   5.753   7.707 -0.3096 -2.2114 -0.0643
15150SOL     OW47603   4.698   1.059   9.260  0.5810 -0.1598 -0.1618
15150SOL    HW147604   4.747   1.116   9.200 -0.3333 -0.5627 -1.3326
15150SOL    HW247605   4.688   0.977   9.212 -0.0390 -0.5469  0.6174
15151SOL     OW47606   8.565   2.956   6.801 -0.8886  0.1441  0.2301
15151SOL    HW147607   8.607   2.886   6.751 -0.0565  1.4633 -0.9918
15151SOL    HW247608   8.472   2.951   6.777 -0.7549 -0.2363 -0.2169
15152SOL     OW47609   0.102   2.025   0.175 -0.0647 -0.2819 -0.1497
15152SOL    HW147610   0.157   2.096   0.208  0.9291 -0.5427 -1.1674
15152SOL    HW247611   0.097   2.041   0.081 -0.6931 -0.9961 -0.2463
15153SOL     OW47612   3.638   7.594   0.144  0.0068 -0.5338  0.1869
15153SOL    HW147613   3.559   7.594   0.198 -0.8193 -0.6319 -0.9846
15153SOL    HW247614   3.709   7.616   0.205 -1.1113  1.0321  1.0058
15154SOL     OW47615   7.271   7.461   6.148  0.0601  0.2207 -0.0840
15154SOL    HW147616   7.354   7.425   6.116 -0.9054 -3.6052  1.1536
15154SOL    HW247617   7.204   7.419   6.094 -1.2151 -0.1347  1.6660
15155SOL     OW47618   8.850   3.570   7.200  0.1181 -0.1290 -0.7840
15155SOL    HW147619   8.891   3.655   7.185  0.3177 -0.2390 -0.8652
15155SOL    HW247620   8.760   3.580   7.169 -0.0113  0.2113 -0.3146
15156SOL     OW47621   3.747   9.163   0.424 -0.1889  0.0663 -0.0156
15156SOL    HW147622   3.776   9.225   0.491 -0.9273 -0.0033  0.3735
15156SOL    HW247623   3.671   9.121   0.461  0.8840 -1.8443  0.1391
15157SOL     OW47624   4.572   5.834   1.513 -0.0886 -0.1945 -0.1435
15157SOL    HW147625   4.523   5.831   1.596  1.5076 -1.2609  0.8126
15157SOL    HW247626   4.516   5.885   1.454 -3.0430 -2.4990  0.4217
15158SOL     OW47627   7.640   4.073   3.446  0.7060 -0.3923  0.4207
15158SOL    HW147628   7.642   4.003   3.381 -2.3120  0.8578 -1.2288
15158SOL    HW247629   7.618   4.029   3.528 -2.4865 -1.4024 -0.8220
15159SOL     OW47630   8.720   0.273   4.109  0.2271  0.4064  0.4800
15159SOL    HW147631   8.696   0.202   4.050 -1.9935  0.5244  1.1517
15159SOL    HW247632   8.680   0.249   4.192  1.6226  1.2134  1.4126
15160SOL     OW47633   7.468   5.904   0.174  0.0194  0.1678  0.0241
15160SOL    HW147634   7.501   5.975   0.119  0.7179  0.5906  0.9437
15160SOL    HW247635   7.464   5.828   0.117  2.9621  0.0016 -0.1099
15161SOL     OW47636   8.342   9.260   9.558 -0.0532  0.1917  0.4154
15161SOL    HW147637   8.365   9.230   9.470  0.2816 -1.6133  1.0870
15161SOL    HW247638   8.246   9.252   9.561 -0.1222  0.8043  0.0377
15162SOL     OW47639   1.183   5.029   4.121  0.2856 -0.1223 -0.0737
15162SOL    HW147640   1.124   5.042   4.047 -0.7249  2.0760  1.0352
15162SOL    HW247641   1.252   5.095   4.108  0.6761 -0.4248  0.4157
15163SOL     OW47642   8.435   8.439   2.565 -0.2414 -0.1598 -0.6004
15163SOL    HW147643   8.420   8.371   2.631 -0.7592  0.9113  0.4232
15163SOL    HW247644   8.391   8.516   2.600 -0.3717  0.4977 -2.1255
15164SOL     OW47645   5.636   2.395   9.561  0.1347  0.2991 -0.5163
15164SOL    HW147646   5.602   2.467   9.614  1.3672  1.3877 -1.1445
15164SOL    HW247647   5.708   2.359   9.613 -1.9845 -2.1915  0.9465
15165SOL     OW47648   8.173   2.124   3.368 -0.1129 -0.1639 -0.1123
15165SOL    HW147649   8.214   2.202   3.330 -0.7066  1.0705  1.6316
15165SOL    HW247650   8.233   2.052   3.347  1.6722  1.1659  0.1913
15166SOL     OW47651   3.816   2.211   1.186 -0.2741 -0.0465 -0.1548
15166SOL    HW147652   3.888   2.154   1.216 -0.3127  0.3356  0.7000
15166SOL    HW247653   3.860   2.282   1.141 -0.1468 -0.1042 -0.1244
15167SOL     OW47654   1.027   5.678   6.891  0.3640 -0.0700 -0.3951
15167SOL    HW147655   0.969   5.614   6.851 -0.4790  1.0673 -1.0612
15167SOL    HW247656   1.004   5.761   6.849  0.9748  0.7865  0.8818
15168SOL     OW47657   6.889   6.779   7.287  0.3356 -0.2412  0.1234
15168SOL    HW147658   6.911   6.867   7.256  0.2766 -0.1626  0.3038
15168SOL    HW247659   6.813   6.792   7.345  1.0195 -0.2676  1.0412
15169SOL     OW47660   2.837   2.135   0.263 -0.3987 -0.0895  0.1533
15169SOL    HW147661   2.821   2.083   0.184  1.2771 -1.2144  0.4951
15169SOL    HW247662   2.795   2.086   0.334 -0.8331  0.2732  0.1541
15170SOL     OW47663   3.755   5.760   7.944 -0.0642 -0.7837  0.1298
15170SOL    HW147664   3.671   5.735   7.905 -0.6323 -2.3989  2.1297
15170SOL    HW247665   3.817   5.760   7.872 -1.4559 -1.3530 -1.1124
15171SOL     OW47666   2.780   4.834   1.767  0.0300  0.5987  0.1503
15171SOL    HW147667   2.689   4.808   1.748  0.6166 -0.5867 -1.2854
15171SOL    HW247668   2.824   4.753   1.791  0.8834  1.0180  0.0548
15172SOL     OW47669   8.769   0.739   3.467  0.7797 -0.0353 -0.7589
15172SOL    HW147670   8.676   0.737   3.489  1.0931  0.3825  0.7198
15172SOL    HW247671   8.772   0.770   3.376 -0.5562 -1.0000 -1.1605
15173SOL     OW47672   7.357   0.056   2.724  0.1827 -0.5494 -0.0075
15173SOL    HW147673   7.442   0.033   2.687 -0.1339 -0.9737 -0.4889
15173SOL    HW247674   7.326   0.128   2.669  0.7825  0.4920  0.9559
15174SOL     OW47675   4.576   8.530   8.627  0.3857 -0.5762 -0.6331
15174SOL    HW147676   4.668   8.549   8.608  1.1773 -3.2312  0.0531
15174SOL    HW247677   4.573   8.521   8.722  0.0987 -3.1138 -0.7986
15175SOL     OW47678   6.039   7.123   1.735  0.2383  1.3461 -0.1686
15175SOL    HW147679   6.069   7.172   1.659  1.1037 -0.5731 -1.1180
15175SOL    HW247680   6.115   7.117   1.792 -0.2589  2.3031  0.6314
15176SOL     OW47681   3.576   8.742   7.607 -0.5545  0.3559 -0.2889
15176SOL    HW147682   3.508   8.718   7.671 -0.3991  1.2980  0.2480
15176SOL    HW247683   3.658   8.714   7.648 -0.5037  0.4310 -0.3409
15177SOL     OW47684   6.767   3.410   7.445 -0.6261  0.7346  0.0867
15177SOL    HW147685   6.757   3.376   7.356  1.6686  1.3091 -0.4618
15177SOL    HW247686   6.683   3.451   7.465 -1.3260  0.2343 -1.6469
15178SOL     OW47687   2.558   6.027   0.347 -0.0571 -0.1738 -0.0755
15178SOL    HW147688   2.644   6.013   0.307  0.4816  1.0380  0.6191
15178SOL    HW247689   2.502   6.057   0.275  1.2298  3.3027  0.1819
15179SOL     OW47690   1.243   2.698   2.224  0.1642 -0.1440  0.1068
15179SOL    HW147691   1.246   2.790   2.251  3.9342 -0.7750  2.5981
15179SOL    HW247692   1.312   2.690   2.159 -0.6203 -1.1371 -0.6402
15180SOL     OW47693   0.165   1.815   3.552 -0.7699 -0.0080  0.0423
15180SOL    HW147694   0.122   1.861   3.480  0.1511  0.6188 -0.1371
15180SOL    HW247695   0.190   1.885   3.613 -2.5922 -0.6342  1.5892
15181SOL     OW47696   5.035   9.079   3.673 -0.1083  0.6843 -0.6338
15181SOL    HW147697   5.020   9.094   3.767  1.2437  1.0980 -0.4583
15181SOL    HW247698   5.106   9.014   3.671  0.0156  0.8397 -1.3667
15182SOL     OW47699   6.340   8.122   2.020  0.2005 -0.2724  0.5618
15182SOL    HW147700   6.393   8.052   1.983  0.5315  0.4859 -0.4391
15182SOL    HW247701   6.253   8.083   2.032 -0.0974 -0.4218 -1.6028
15183SOL     OW47702   7.403   3.394   7.136 -0.2384  0.8508  0.4261
15183SOL    HW147703   7.480   3.447   7.156 -0.3586  1.5401 -0.8327
15183SOL    HW247704   7.411   3.375   7.042 -0.6635 -0.6110  0.6715
15184SOL     OW47705   1.878   6.356   1.184  0.5457 -0.0529  0.5359
15184SOL    HW147706   1.890   6.264   1.158 -0.2650  0.7043 -3.0448
15184SOL    HW247707   1.783   6.369   1.180  0.5952  0.8263  1.6885
15185SOL     OW47708   1.880   3.613   3.786 -0.0876 -0.0248 -0.0822
15185SOL    HW147709   1.964   3.655   3.767  0.8640 -1.1995  1.3235
15185SOL    HW247710   1.846   3.587   3.700  0.5007  1.2946 -0.7493
15186SOL     OW47711   4.867   5.709   2.327 -0.0821  0.4871 -0.3218
15186SOL    HW147712   4.854   5.748   2.240  0.0648  1.2540 -0.0036
15186SOL    HW247713   4.928   5.636   2.312  2.5360  2.5565 -0.3921
15187SOL     OW47714   8.390   2.461   6.355  0.2232  0.3908  0.2004
15187SOL    HW147715   8.393   2.377   6.310  0.8468  0.2805  0.4336
15187SOL    HW247716   8.389   2.439   6.448 -0.7873  0.6220  0.2580
15188SOL     OW47717   4.867   5.893   6.633 -0.1901  0.1110 -0.0327
15188SOL    HW147718   4.838   5.811   6.673  1.2798 -0.7200 -0.6111
15188SOL    HW247719   4.832   5.961   6.690 -0.8187 -0.9342  0.8640
15189SOL     OW47720   0.344   8.546   2.487 -0.6795  1.2877  0.1437
15189SOL    HW147721   0.284   8.496   2.432  1.1032 -2.3865  1.1955
15189SOL    HW247722   0.357   8.628   2.440 -2.1689 -0.0667 -2.9246
15190SOL     OW47723   7.556   3.711   2.970 -0.7090  0.0687 -0.3084
15190SOL    HW147724   7.642   3.732   2.934 -0.9803  1.1681 -0.3481
15190SOL    HW247725   7.574   3.671   3.055 -0.1726  0.7416 -0.1009
15191SOL     OW47726   8.021   4.145   1.032 -0.2799  0.0249 -0.6114
15191SOL    HW147727   7.984   4.073   1.083 -1.6804  0.8323 -0.4235
15191SOL    HW247728   8.076   4.193   1.094  0.2908 -0.6185 -0.6172
15192SOL     OW47729   1.287   8.842   0.966 -0.4148 -0.0839  0.1255
15192SOL    HW147730   1.271   8.797   0.883  1.3878  1.1752 -0.9509
15192SOL    HW247731   1.207   8.892   0.982 -1.0058 -0.8017 -0.5265
15193SOL     OW47732   6.420   3.232   8.447  0.0158  0.3296  0.3125
15193SOL    HW147733   6.509   3.198   8.452 -0.9947 -2.4768  1.1492
15193SOL    HW247734   6.408   3.257   8.356  1.3440 -0.1831 -0.0145
15194SOL     OW47735   2.668   9.005   4.149 -0.2149  0.0256  0.0661
15194SOL    HW147736   2.688   9.093   4.117 -0.7466 -0.3020 -1.2516
15194SOL    HW247737   2.575   8.993   4.130 -0.0238 -1.0141 -0.2963
15195SOL     OW47738   5.375   6.936   4.046  0.4201 -0.4013  0.7343
15195SOL    HW147739   5.293   6.945   3.998 -0.5035 -1.6169  1.9759
15195SOL    HW247740   5.353   6.878   4.119  2.8764 -2.6060 -0.1023
15196SOL     OW47741   0.333   1.369   1.578 -0.5053  0.0495 -0.2525
15196SOL    HW147742   0.324   1.412   1.662  1.3417 -1.0968  0.5961
15196SOL    HW247743   0.344   1.440   1.515  1.3305  0.8885  0.9464
15197SOL     OW47744   6.240   3.770   4.574  0.0017  0.0492  0.1554
15197SOL    HW147745   6.293   3.691   4.565 -0.7771 -0.3234 -1.5545
15197SOL    HW247746   6.172   3.761   4.508  0.1913  2.3962 -0.4553
15198SOL     OW47747   7.432   5.393   1.621  0.1250  0.0295 -0.6457
15198SOL    HW147748   7.426   5.315   1.566  1.4046 -1.1021  0.7544
15198SOL    HW247749   7.384   5.370   1.701 -0.7383  1.2372 -0.7840
15199SOL     OW47750   3.955   7.394   9.609  0.0106  0.0142  0.1981
15199SOL    HW147751   4.013   7.435   9.672 -0.0601 -2.5956  2.1234
15199SOL    HW247752   3.868   7.427   9.630  0.1946  0.3711  0.3946
15200SOL     OW47753   3.833   4.822   8.820 -0.8787  0.0313  0.7174
15200SOL    HW147754   3.887   4.892   8.784 -0.4954 -0.7491 -0.2548
15200SOL    HW247755   3.785   4.864   8.892 -1.4448  1.5511 -0.5092
15201SOL     OW47756   0.557   4.202   8.650  0.8566  0.2618  0.2910
15201SOL    HW147757   0.493   4.273   8.659  0.1141 -0.4916  1.1504
15201SOL    HW247758   0.641   4.246   8.648  0.3021  1.5053 -3.2402
15202SOL     OW47759   0.428   5.176   5.053 -0.3167  0.5547 -0.0625
15202SOL    HW147760   0.463   5.087   5.052 -0.2188  0.5962 -0.2936
15202SOL    HW247761   0.334   5.165   5.064 -0.8185  0.2694 -3.6654
15203SOL     OW47762   9.428   4.603   1.866  0.4021 -0.0039  0.0507
15203SOL    HW147763   9.397   4.579   1.778  2.7775 -2.0108 -0.3398
15203SOL    HW247764   9.486   4.531   1.892  1.4839  1.5748  2.3638
15204SOL     OW47765   6.912   9.207   6.664  0.2615 -0.0224 -0.2390
15204SOL    HW147766   6.841   9.143   6.665  0.3420 -0.1222 -0.7679
15204SOL    HW247767   6.901   9.256   6.746 -2.6716  2.3841 -1.8445
15205SOL     OW47768   3.889   9.162   2.359 -0.6211 -0.3700  0.1752
15205SOL    HW147769   3.903   9.231   2.423 -0.8397 -1.3343  1.2963
15205SOL    HW247770   3.797   9.137   2.369 -0.8154 -0.1434 -0.9202
15206SOL     OW47771   6.221   1.993   2.993 -0.7168  0.6239 -0.1455
15206SOL    HW147772   6.287   1.939   3.036  0.8262  1.5567 -1.2456
15206SOL    HW247773   6.154   2.007   3.060  0.1220 -0.4661  0.9680
15207SOL     OW47774   4.217   8.747   0.981  0.1899  0.1109 -0.7178
15207SOL    HW147775   4.285   8.760   1.047 -0.7042 -1.0840  0.4994
15207SOL    HW247776   4.255   8.683   0.921  0.1662 -0.5923 -0.0140
15208SOL     OW47777   4.966   2.410   8.048 -0.6858 -0.5063  0.3426
15208SOL    HW147778   4.945   2.320   8.072 -1.0681 -0.4299  0.3043
15208SOL    HW247779   4.899   2.463   8.092  1.7868  0.1594  3.7297
15209SOL     OW47780   6.360   8.916   0.853  0.1599  0.3258 -0.1444
15209SOL    HW147781   6.330   8.850   0.791  0.8735 -0.2142  0.0814
15209SOL    HW247782   6.370   8.869   0.936  2.0901  0.3583 -0.3145
15210SOL     OW47783   1.812   3.261   7.532  0.6987  0.4640 -0.7088
15210SOL    HW147784   1.904   3.257   7.555  0.4257  0.4265  0.4262
15210SOL    HW247785   1.805   3.210   7.451  1.6819  0.5538 -0.8577
15211SOL     OW47786   6.411   4.388   1.666 -0.4618  0.2259  0.0765
15211SOL    HW147787   6.334   4.429   1.706 -0.6691 -1.6150  1.6935
15211SOL    HW247788   6.376   4.342   1.589 -1.2076 -1.3261  1.2841
15212SOL     OW47789   1.650   7.878   5.238 -0.0508  0.2985 -0.0436
15212SOL    HW147790   1.601   7.877   5.155  0.4776  0.0718 -0.3544
15212SOL    HW247791   1.643   7.968   5.268  1.6520  0.9681 -1.4818
15213SOL     OW47792   5.059   8.522   3.165 -0.4466  0.0851 -0.5798
15213SOL    HW147793   5.089   8.599   3.117  0.7138 -0.0262 -0.0748
15213SOL    HW247794   4.993   8.556   3.226  1.5251  1.1032  1.1107
15214SOL     OW47795   0.868   5.579   2.028 -0.2524 -0.2675 -0.4674
15214SOL    HW147796   0.950   5.629   2.031 -0.7345  0.6417 -1.7363
15214SOL    HW247797   0.803   5.636   2.068 -0.2730 -1.0410  0.6576
15215SOL     OW47798   2.330   8.659   3.358 -0.1979  0.4502  0.1554
15215SOL    HW147799   2.339   8.637   3.451 -0.9546  1.4626  0.4963
15215SOL    HW247800   2.392   8.601   3.313 -0.6186 -0.8368  1.1731
15216SOL     OW47801   8.634   5.279   7.522 -0.4413  0.0127 -0.5871
15216SOL    HW147802   8.564   5.326   7.569  0.0087  1.2816 -1.1397
15216SOL    HW247803   8.661   5.210   7.582 -2.3023 -0.6486 -0.4344
15217SOL     OW47804   6.824   4.286   7.132 -0.6735 -0.0273 -0.3372
15217SOL    HW147805   6.771   4.283   7.053 -0.8911 -0.1583 -0.1884
15217SOL    HW247806   6.760   4.288   7.204 -0.4844 -0.7066 -0.1377
15218SOL     OW47807   8.544   2.712   1.615 -0.1298  0.3109 -0.2345
15218SOL    HW147808   8.458   2.689   1.650  0.1491 -0.1051  0.1847
15218SOL    HW247809   8.599   2.725   1.692 -0.0648  1.5748 -0.4793
15219SOL     OW47810   6.445   9.129   7.727 -0.5247  0.2297 -0.1067
15219SOL    HW147811   6.537   9.105   7.717 -0.4122  0.7183 -0.2959
15219SOL    HW247812   6.415   9.078   7.802  0.2710  1.0806  0.8198
15220SOL     OW47813   1.470   9.531   7.343 -0.2299  0.9318 -0.1985
15220SOL    HW147814   1.494   9.575   7.262  0.3293  0.4286 -0.3096
15220SOL    HW247815   1.464   9.602   7.408 -3.1809  1.7406 -1.1667
15221SOL     OW47816   7.273   2.944   7.748 -0.2320  0.4039  0.3170
15221SOL    HW147817   7.288   2.876   7.682 -0.3288  0.6242  0.0680
15221SOL    HW247818   7.292   2.901   7.831 -1.7139 -0.3897  0.2901
15222SOL     OW47819   2.170   8.135   8.473  0.2007 -0.1889 -0.0587
15222SOL    HW147820   2.256   8.106   8.503  0.7129 -0.1878 -1.4278
15222SOL    HW247821   2.137   8.063   8.419 -0.6899 -0.2187  0.5051
15223SOL     OW47822   6.820   3.281   8.989  0.0436  0.7469  0.2872
15223SOL    HW147823   6.888   3.217   8.969  0.0136  0.7368  0.2150
15223SOL    HW247824   6.780   3.248   9.070 -1.3522 -0.4933 -0.8356
15224SOL     OW47825   4.531   1.670   6.032 -0.4022  0.1039  0.4077
15224SOL    HW147826   4.442   1.685   6.001 -0.7932 -0.1655  1.3978
15224SOL    HW247827   4.586   1.711   5.965 -1.2024 -0.8685 -0.8878
15225SOL     OW47828   6.682   4.548   3.315  0.2325 -0.1581 -0.1729
15225SOL    HW147829   6.598   4.535   3.271  0.1629  1.7533 -0.7003
15225SOL    HW247830   6.673   4.632   3.360  2.0393  0.3773 -0.7064
15226SOL     OW47831   7.913   2.445   2.901  0.4850  0.0630 -0.3338
15226SOL    HW147832   7.930   2.379   2.833  1.0402  1.1972 -1.3386
15226SOL    HW247833   7.951   2.525   2.866 -0.9567  1.1435  0.4481
15227SOL     OW47834   0.451   5.139   4.756 -0.4155  0.1098 -0.1679
15227SOL    HW147835   0.425   5.231   4.753 -1.1901 -0.0643  0.6405
15227SOL    HW247836   0.471   5.124   4.849  1.2979 -0.1246 -0.5419
15228SOL     OW47837   3.479   4.566   1.467 -0.2048  0.3523  0.3560
15228SOL    HW147838   3.400   4.598   1.510 -0.0555  0.3120  0.6555
15228SOL    HW247839   3.467   4.590   1.375 -1.0767 -0.6445  0.1976
15229SOL     OW47840   6.162   0.177   0.674  0.8836  0.0790  0.5408
15229SOL    HW147841   6.171   0.231   0.596  1.1972 -0.9233 -0.1286
15229SOL    HW247842   6.070   0.152   0.676  0.8658  0.1429  0.5151
15230SOL     OW47843   0.013   4.546   2.498  0.3525  0.6932 -0.2987
15230SOL    HW147844   0.013   4.628   2.546  0.1360  0.9315 -0.7018
15230SOL    HW247845   0.054   4.483   2.557 -2.0850  0.4052  1.2240
15231SOL     OW47846   4.829   4.656   7.358 -0.3341  0.4374  0.4801
15231SOL    HW147847   4.737   4.650   7.332  0.2185 -0.1145 -1.5289
15231SOL    HW247848   4.842   4.748   7.380 -0.8494  1.0340 -1.4866
15232SOL     OW47849   4.346   5.372   0.195 -0.3471 -0.0396  0.4220
15232SOL    HW147850   4.356   5.380   0.100 -1.1352  0.4454  0.3666
15232SOL    HW247851   4.375   5.457   0.228  2.4948 -1.0909  0.8720
15233SOL     OW47852   5.850   9.125   2.751  0.4464  0.2310 -0.3055
15233SOL    HW147853   5.759   9.153   2.756 -0.2055 -1.8098  0.3261
15233SOL    HW247854   5.899   9.205   2.735 -1.2091  1.7588  1.7030
15234SOL     OW47855   8.490   2.633   4.902 -0.0936 -0.6675 -0.0255
15234SOL    HW147856   8.579   2.663   4.919 -0.7395  0.9348  0.6569
15234SOL    HW247857   8.440   2.713   4.887 -1.7725 -1.4204  1.2965
15235SOL     OW47858   1.514   0.247   5.170  0.0201 -0.1484 -0.3138
15235SOL    HW147859   1.439   0.306   5.169  1.1633  1.3941 -0.0455
15235SOL    HW247860   1.476   0.160   5.177 -1.7248  0.6267  0.7515
15236SOL     OW47861   5.495   4.730   8.395 -0.0055  0.0271  0.0611
15236SOL    HW147862   5.490   4.706   8.488  1.8494  0.8932  0.4251
15236SOL    HW247863   5.547   4.810   8.393  0.9574 -0.5868 -1.8211
15237SOL     OW47864   4.187   0.687   2.438 -0.1981  0.1593  0.4442
15237SOL    HW147865   4.258   0.626   2.454 -0.6015 -1.0141 -1.8919
15237SOL    HW247866   4.107   0.637   2.456 -0.5240 -0.0161 -1.3020
15238SOL     OW47867   6.485   2.541   3.856 -0.4577  0.1106  0.0800
15238SOL    HW147868   6.481   2.571   3.947  0.1386 -0.8482  0.4398
15238SOL    HW247869   6.568   2.494   3.850  0.0527  1.1054 -1.2781
15239SOL     OW47870   7.057   8.649   8.383 -0.2952 -0.5098 -0.0518
15239SOL    HW147871   7.145   8.645   8.422 -0.5374 -0.0660  0.5411
15239SOL    HW247872   7.004   8.591   8.438 -0.7672  0.5438  0.6279
15240SOL     OW47873   6.755   8.037   9.080 -0.2891 -0.1116 -0.2635
15240SOL    HW147874   6.677   8.067   9.127 -0.2999 -1.3569  0.5673
15240SOL    HW247875   6.729   8.037   8.988 -1.2283 -0.3621 -0.0087
15241SOL     OW47876   5.798   1.766   5.967 -0.1379  0.5438 -0.0120
15241SOL    HW147877   5.741   1.689   5.966 -0.5397  0.7221  2.3038
15241SOL    HW247878   5.750   1.832   5.918 -1.6040  0.4232  1.1643
15242SOL     OW47879   9.450   9.096   1.982  0.0074 -0.4824 -0.5555
15242SOL    HW147880   9.510   9.023   1.968  0.4331 -0.2253 -0.1218
15242SOL    HW247881   9.502   9.174   1.963 -0.3851 -0.2816 -0.8234
15243SOL     OW47882   7.117   3.181   8.953 -0.2993 -0.0086  0.2662
15243SOL    HW147883   7.124   3.236   8.875  0.8481  0.5406  0.7241
15243SOL    HW247884   7.204   3.141   8.962 -0.8446 -1.1967  0.4635
15244SOL     OW47885   3.839   9.216   4.938 -0.0843  0.1199 -0.1623
15244SOL    HW147886   3.891   9.295   4.954  0.8216 -0.9880  3.2245
15244SOL    HW247887   3.750   9.240   4.965 -0.0012  0.2584 -0.0051
15245SOL     OW47888   4.998   3.940   0.301  0.1467 -0.1127  0.1397
15245SOL    HW147889   5.035   4.027   0.310  0.4656 -0.3167  0.9487
15245SOL    HW247890   4.965   3.936   0.211 -1.9047  1.6153  0.7196
15246SOL     OW47891   7.148   3.709   0.837  0.8024 -0.3954  0.2459
15246SOL    HW147892   7.226   3.659   0.860  0.8534 -1.2398 -1.6127
15246SOL    HW247893   7.113   3.666   0.759 -0.9483  0.5901  0.4239
15247SOL     OW47894   3.991   7.243   4.410  0.1273  0.4724  0.2999
15247SOL    HW147895   3.966   7.154   4.388  0.4499  0.1548  1.1760
15247SOL    HW247896   4.033   7.277   4.331  0.1380 -0.1943  0.0184
15248SOL     OW47897   1.335   0.739   8.401 -0.0907 -0.3716  1.1149
15248SOL    HW147898   1.288   0.817   8.431  0.6423  1.5883 -2.3402
15248SOL    HW247899   1.267   0.673   8.389 -1.4558  1.2048 -0.1881
15249SOL     OW47900   1.837   1.763   1.618 -0.2243 -0.1693  0.2972
15249SOL    HW147901   1.827   1.740   1.711  0.2669 -0.9975  0.1461
15249SOL    HW247902   1.790   1.847   1.610 -0.3242 -0.1145  1.2772
15250SOL     OW47903   5.751   6.921   6.149 -0.2609 -0.3278  0.2016
15250SOL    HW147904   5.737   6.921   6.244 -1.5422  0.7163  0.0490
15250SOL    HW247905   5.667   6.950   6.113  0.6198  0.6411 -1.1669
15251SOL     OW47906   3.829   4.554   8.152  0.0703 -0.2325 -0.6577
15251SOL    HW147907   3.782   4.533   8.072  1.3851  2.1553 -2.1812
15251SOL    HW247908   3.913   4.508   8.144 -0.0208 -0.4541 -0.3656
15252SOL     OW47909   2.822   0.261   8.963  0.3814  0.0849 -0.1591
15252SOL    HW147910   2.774   0.339   8.992  1.8940  1.1616 -0.4034
15252SOL    HW247911   2.901   0.260   9.017  0.6905 -0.9292 -0.6008
15253SOL     OW47912   7.909   5.347   2.442  0.0911  0.2683 -0.3446
15253SOL    HW147913   7.913   5.259   2.403  1.6073  1.1288 -2.2292
15253SOL    HW247914   7.845   5.394   2.388 -0.8458  0.3274  0.7663
15254SOL     OW47915   1.909   6.328   3.171 -0.4357 -0.1405  0.5456
15254SOL    HW147916   1.852   6.344   3.247  0.0853 -1.1385  1.1758
15254SOL    HW247917   1.997   6.319   3.208 -0.2301 -1.0414 -0.1087
15255SOL     OW47918   1.908   2.690   0.857 -0.5090 -0.5596  0.1609
15255SOL    HW147919   1.815   2.709   0.850 -0.3366  1.4460  2.2029
15255SOL    HW247920   1.917   2.650   0.944  0.5856 -0.3127  0.1713
15256SOL     OW47921   3.195   1.699   0.040 -1.0573  0.9896 -0.2004
15256SOL    HW147922   3.177   1.723  -0.051  2.0860 -2.4009 -1.9638
15256SOL    HW247923   3.130   1.631   0.059 -0.9588  0.8628 -0.3200
15257SOL     OW47924   5.131   7.546   2.736 -0.5495  0.4191 -0.0749
15257SOL    HW147925   5.218   7.516   2.706 -0.2045  0.9607  0.3661
15257SOL    HW247926   5.073   7.527   2.662  0.5202  2.9322 -1.7244
15258SOL     OW47927   6.021   1.087   0.940 -0.3873 -0.3780  0.0583
15258SOL    HW147928   5.996   0.995   0.940  0.8815 -0.7345 -0.1577
15258SOL    HW247929   5.978   1.124   1.017 -0.9820 -1.1118  0.0934
15259SOL     OW47930   3.028   8.051   0.724  1.0210  0.7348 -0.5321
15259SOL    HW147931   3.020   8.081   0.815  0.1725 -0.9963  0.0042
15259SOL    HW247932   3.079   7.970   0.730  1.4676  0.9087 -1.6891
15260SOL     OW47933   5.749   2.105   6.519  0.0299  0.0917  0.0700
15260SOL    HW147934   5.771   2.198   6.514 -1.4754  0.4945  0.4118
15260SOL    HW247935   5.683   2.092   6.450  0.2288 -0.7197  0.0228
15261SOL     OW47936   7.517   1.783   2.988  0.3062 -0.2729  0.0187
15261SOL    HW147937   7.549   1.843   3.056  0.2980  0.8461 -0.9369
15261SOL    HW247938   7.433   1.819   2.962  0.5123 -0.4369 -0.8920
15262SOL     OW47939   3.722   5.618   3.729 -0.0586  0.1290 -0.3158
15262SOL    HW147940   3.795   5.641   3.786 -1.6627  1.4029  1.3554
15262SOL    HW247941   3.663   5.693   3.735 -1.2996 -0.6616 -1.9646
15263SOL     OW47942   4.834   2.359   8.788 -0.1147  0.0008 -0.1842
15263SOL    HW147943   4.795   2.289   8.736  0.2930 -0.1030 -0.3522
15263SOL    HW247944   4.820   2.332   8.878 -0.0056 -0.2723 -0.2477
15264SOL     OW47945   3.851   5.202   7.709  0.0061 -0.6207  0.0637
15264SOL    HW147946   3.869   5.211   7.616  0.9831 -1.7589  0.1144
15264SOL    HW247947   3.830   5.291   7.739  1.7311  0.1236 -0.8286
15265SOL     OW47948   5.202   4.746   4.319 -0.3397 -0.4716 -0.1954
15265SOL    HW147949   5.193   4.825   4.265 -1.7031 -0.2441  0.3273
15265SOL    HW247950   5.137   4.757   4.388 -0.9716 -2.3232 -0.4405
15266SOL     OW47951   3.164   5.966   2.123  0.3476 -0.1291  0.1157
15266SOL    HW147952   3.168   5.901   2.053 -0.2275 -0.6658  0.5652
15266SOL    HW247953   3.200   5.920   2.200  2.3297  0.9045 -0.1292
15267SOL     OW47954   0.687   3.579   3.719  0.6780 -0.3571  0.0868
15267SOL    HW147955   0.767   3.629   3.737  0.5400 -0.3095  0.5979
15267SOL    HW247956   0.682   3.575   3.624  0.8029  0.4361  0.0391
15268SOL     OW47957   8.194   3.903   4.682 -0.0533 -0.0289 -0.1919
15268SOL    HW147958   8.100   3.909   4.702 -0.5353  1.7744 -2.3870
15268SOL    HW247959   8.220   3.994   4.668  0.7399 -0.6783 -4.3915
15269SOL     OW47960   8.739   3.467   3.673 -0.2714  0.0549 -0.0071
15269SOL    HW147961   8.814   3.434   3.624  0.0748 -0.5515  0.9183
15269SOL    HW247962   8.752   3.562   3.675  0.8554 -0.0998  0.7376
15270SOL     OW47963   6.189   2.795   4.205 -0.2414  0.6022 -0.2294
15270SOL    HW147964   6.234   2.872   4.240  0.2963  0.4480 -0.5630
15270SOL    HW247965   6.123   2.773   4.271  1.3645 -0.2459  1.1542
15271SOL     OW47966   1.410   8.757   4.682 -0.2636  0.3692 -0.3751
15271SOL    HW147967   1.406   8.751   4.587  1.6439 -0.2689 -0.4470
15271SOL    HW247968   1.364   8.839   4.703 -1.4834  0.0733 -1.7365
15272SOL     OW47969   3.218   4.806   4.439  0.7291 -0.5208  0.5637
15272SOL    HW147970   3.249   4.876   4.496 -0.3608 -0.1285  0.7076
15272SOL    HW247971   3.144   4.845   4.391  1.9936 -0.6404 -1.6096
15273SOL     OW47972   3.523   5.733   2.191  0.2191 -0.1875 -0.4996
15273SOL    HW147973   3.504   5.788   2.115  0.9450  0.9804  0.1231
15273SOL    HW247974   3.595   5.677   2.162  0.1794 -0.0812 -0.8147
15274SOL     OW47975   9.579   1.300   8.779  0.2336 -0.1731  0.3373
15274SOL    HW147976   9.541   1.275   8.864  0.7321  1.0438  0.9460
15274SOL    HW247977   9.539   1.240   8.716 -1.7775  0.2534  1.1183
15275SOL     OW47978   8.306   7.771   0.768 -0.5532 -0.4044 -0.0005
15275SOL    HW147979   8.232   7.820   0.803 -1.4792  0.5494 -2.9785
15275SOL    HW247980   8.374   7.836   0.752  0.4767 -1.0697  1.4281
15276SOL     OW47981   4.531   4.756   7.922 -0.2128  0.1664 -0.2859
15276SOL    HW147982   4.547   4.751   8.016 -0.4880  1.4306 -0.1481
15276SOL    HW247983   4.435   4.759   7.915 -0.1847  0.3408 -0.5907
15277SOL     OW47984   1.489   5.143   7.199 -0.3569 -0.2560 -0.2346
15277SOL    HW147985   1.539   5.169   7.276 -0.1147  0.0034 -0.4731
15277SOL    HW247986   1.507   5.212   7.135 -0.0700 -0.7687 -0.7215
15278SOL     OW47987   6.051   9.516   6.121 -0.2009 -0.4015  0.5372
15278SOL    HW147988   6.121   9.558   6.071 -0.8895 -0.9676 -0.9652
15278SOL    HW247989   6.090   9.436   6.156  0.3104  0.0464  1.0099
15279SOL     OW47990   3.289   5.714   7.957 -0.4582  0.8035  0.5231
15279SOL    HW147991   3.279   5.666   8.039 -1.5749 -0.6294 -0.4091
15279SOL    HW247992   3.216   5.776   7.956 -2.5703 -1.5337 -0.8750
15280SOL     OW47993   4.940   5.471   4.751  0.9157  0.2325 -0.0911
15280SOL    HW147994   5.029   5.471   4.717  0.3606 -0.3077 -1.6390
15280SOL    HW247995   4.924   5.562   4.776  1.7013  0.4520 -0.3619
15281SOL     OW47996   8.979   8.712   3.614  0.6195  0.0217  0.0652
15281SOL    HW147997   8.892   8.716   3.573 -0.4018  0.4211  2.1244
15281SOL    HW247998   9.036   8.679   3.545 -1.4742 -1.8826 -0.9047
15282SOL     OW47999   4.204   5.405   0.858  0.1576 -0.0960  0.4350
15282SOL    HW148000   4.245   5.444   0.781  2.2124 -1.8711  0.5377
15282SOL    HW248001   4.268   5.419   0.928 -0.3679 -1.0951  1.1371
15283SOL     OW48002   4.228   5.854   1.474 -0.1233  0.2687 -0.1913
15283SOL    HW148003   4.280   5.856   1.554  0.1438  1.1376 -0.3663
15283SOL    HW248004   4.285   5.897   1.409 -0.5790  0.1295 -0.6861
15284SOL     OW48005   4.143   3.517   8.513  0.0804 -0.0263  0.2080
15284SOL    HW148006   4.154   3.594   8.569 -0.6694  0.1040  0.1891
15284SOL    HW248007   4.182   3.542   8.430 -0.2798  0.3862  0.1603
15285SOL     OW48008   7.575   4.101   8.716  0.4028  0.0279 -0.2877
15285SOL    HW148009   7.589   4.026   8.774  0.1869 -0.0683 -0.3578
15285SOL    HW248010   7.483   4.123   8.727  0.4127  0.1426 -0.4342
15286SOL     OW48011   0.703   5.975   0.314  0.2460  0.1298 -0.2321
15286SOL    HW148012   0.770   5.915   0.346  0.7168  1.5710  1.6250
15286SOL    HW248013   0.629   5.962   0.373 -0.2396  0.2710 -0.7932
15287SOL     OW48014   2.332   8.097   6.885 -0.0002  0.1086 -0.1216
15287SOL    HW148015   2.311   8.150   6.808  0.8408  0.6351  0.0010
15287SOL    HW248016   2.281   8.137   6.956  0.5321  0.6874 -0.0564
15288SOL     OW48017   3.378   3.365   7.677  0.1214  0.1218 -0.0047
15288SOL    HW148018   3.296   3.351   7.725  1.2136 -1.8589  1.4495
15288SOL    HW248019   3.435   3.408   7.741  1.1632 -1.3258  0.0913
15289SOL     OW48020   6.975   3.685   9.268  0.5165 -0.2642  0.4462
15289SOL    HW148021   6.958   3.635   9.187  2.0455 -1.4369  0.8043
15289SOL    HW248022   7.021   3.764   9.238 -2.2871  1.2653 -0.1718
15290SOL     OW48023   8.847   9.426   2.750 -0.3357  0.7492 -0.3496
15290SOL    HW148024   8.936   9.434   2.717 -0.5017  1.1744 -0.7057
15290SOL    HW248025   8.856   9.380   2.834  0.1767  0.4647 -0.5553
15291SOL     OW48026   7.920   6.349   1.619  0.2637 -0.1926  0.1353
15291SOL    HW148027   7.964   6.265   1.628 -0.5251 -0.4689  1.9344
15291SOL    HW248028   7.934   6.374   1.528  0.1798 -2.4671 -0.5745
15292SOL     OW48029   8.756   6.954   4.004 -0.0988 -0.1696 -0.8421
15292SOL    HW148030   8.723   6.887   4.064 -0.8827  0.8877 -0.0523
15292SOL    HW248031   8.679   7.007   3.983  0.8799  1.8334  0.3385
15293SOL     OW48032   0.072   6.188   9.494 -0.6899 -0.0792  0.1538
15293SOL    HW148033   0.160   6.206   9.463 -0.6195  0.9243  0.8800
15293SOL    HW248034   0.081   6.110   9.550 -0.3466 -0.2177 -0.0914
15294SOL     OW48035   6.884   5.977   8.269  0.0608 -0.1494  0.4215
15294SOL    HW148036   6.918   6.029   8.196 -1.3282  1.6456  0.9558
15294SOL    HW248037   6.961   5.934   8.306  1.1218  0.6813 -0.7419
15295SOL     OW48038   5.659   0.657   7.410 -0.1609  0.3012  0.0775
15295SOL    HW148039   5.644   0.580   7.355  0.5476  0.3186 -0.1525
15295SOL    HW248040   5.587   0.717   7.389 -0.5215 -0.1499  0.0029
15296SOL     OW48041   9.178   4.928   9.343  0.0376 -0.6491  0.0970
15296SOL    HW148042   9.199   4.836   9.359  0.1563 -1.0413 -2.0254
15296SOL    HW248043   9.195   4.941   9.249 -0.7781  1.3222  0.1662
15297SOL     OW48044   5.557   8.316   7.593 -0.7774  0.3165 -0.0865
15297SOL    HW148045   5.593   8.359   7.671  0.2111 -0.0122 -0.3479
15297SOL    HW248046   5.571   8.379   7.522 -0.9751  0.2998 -0.1411
15298SOL     OW48047   5.190   0.134   6.997 -0.5436 -0.3419  0.4787
15298SOL    HW148048   5.246   0.120   6.921  0.6189  2.1130  0.7778
15298SOL    HW248049   5.110   0.085   6.977 -0.4417  0.4877 -2.5342
15299SOL     OW48050   5.760   6.610   5.501  0.1673  0.1843  0.1362
15299SOL    HW148051   5.775   6.688   5.554  0.4640  0.7770 -0.7964
15299SOL    HW248052   5.844   6.564   5.502 -0.2214 -0.5631  1.3348
15300SOL     OW48053   4.365   7.583   2.144 -0.2403  0.2771 -0.1784
15300SOL    HW148054   4.302   7.539   2.201 -0.8191  1.0131 -0.2331
15300SOL    HW248055   4.352   7.543   2.058  0.2919 -0.4923  0.0937
15301SOL     OW48056   4.138   6.915   9.320 -0.0606  0.1784  0.2351
15301SOL    HW148057   4.230   6.930   9.342 -0.6527  3.4220  1.0779
15301SOL    HW248058   4.099   6.886   9.403 -0.1173  0.5540  0.3402
15302SOL     OW48059   5.274   9.214   3.927  0.3487  0.2452 -0.2638
15302SOL    HW148060   5.234   9.201   4.013 -1.8696 -1.1879 -1.4116
15302SOL    HW248061   5.368   9.209   3.942  0.0073 -0.0222  2.0466
15303SOL     OW48062   8.836   6.195   7.926 -0.4846 -0.2226 -0.2002
15303SOL    HW148063   8.766   6.240   7.975 -1.7242 -1.3638 -0.8679
15303SOL    HW248064   8.886   6.266   7.885 -1.5614  0.6036 -0.1242
15304SOL     OW48065   7.796   8.944   8.916 -0.1222 -0.0812 -1.1057
15304SOL    HW148066   7.794   8.860   8.961  0.7238  0.8197  0.7336
15304SOL    HW248067   7.875   8.941   8.862 -0.6073 -0.8014 -1.7945
15305SOL     OW48068   2.101   0.997   0.166 -0.0888  0.6385  0.0171
15305SOL    HW148069   2.029   1.020   0.107 -1.8582  1.0317  2.1752
15305SOL    HW248070   2.090   1.058   0.239  2.1816  0.3566  0.6396
15306SOL     OW48071   5.819   5.253   1.912  0.3753  0.3180  0.4110
15306SOL    HW148072   5.817   5.230   1.819 -1.5340  0.1160  0.4614
15306SOL    HW248073   5.850   5.173   1.956  0.8271  0.2630  0.0014
15307SOL     OW48074   2.328   1.583   2.373  0.3924 -0.5105 -0.5968
15307SOL    HW148075   2.295   1.533   2.448  0.9887  0.1310  0.1068
15307SOL    HW248076   2.249   1.619   2.332  0.1491  0.7583  0.8985
15308SOL     OW48077   1.812   3.675   6.929  0.8432 -0.4176  0.2637
15308SOL    HW148078   1.772   3.593   6.900 -0.5768  0.1474  0.5435
15308SOL    HW248079   1.840   3.658   7.018 -0.2439 -0.3564  0.6329
15309SOL     OW48080   1.704   6.724   5.057 -0.2197  0.2275  0.3984
15309SOL    HW148081   1.781   6.771   5.090 -0.0212  0.5445 -0.4872
15309SOL    HW248082   1.636   6.791   5.048 -0.4788  0.0213  0.7988
15310SOL     OW48083   3.425   8.745   7.382  0.2366  0.5870 -0.9498
15310SOL    HW148084   3.443   8.832   7.348  0.6482  0.1416 -1.9158
15310SOL    HW248085   3.501   8.723   7.436  0.9362  0.1693 -2.0685
15311SOL     OW48086   3.047   4.725   0.328  0.9027  0.3117  0.0739
15311SOL    HW148087   2.996   4.701   0.250  2.8791  0.8535 -1.4628
15311SOL    HW248088   2.985   4.717   0.400 -1.2649  0.6236 -1.6477
15312SOL     OW48089   2.247   2.659   5.848 -0.2172  0.1926  0.0450
15312SOL    HW148090   2.296   2.581   5.824 -0.0687  0.3329 -0.1056
15312SOL    HW248091   2.182   2.627   5.911  0.9115  0.2201  1.2728
15313SOL     OW48092   7.036   9.041   2.395  0.2153 -0.3932  0.0987
15313SOL    HW148093   7.080   8.956   2.403  0.5357 -0.1561  0.9603
15313SOL    HW248094   7.084   9.099   2.454 -1.4434 -0.2143  1.3490
15314SOL     OW48095   0.738   0.922   8.605  0.1638  0.2580  0.0727
15314SOL    HW148096   0.695   0.884   8.529  1.4089  0.5290 -0.7980
15314SOL    HW248097   0.795   0.990   8.569  2.5702 -1.1495  0.9648
15315SOL     OW48098   1.245   6.549   3.721  0.2997  0.3445  0.0619
15315SOL    HW148099   1.170   6.607   3.741  0.2009 -0.0741  0.9729
15315SOL    HW248100   1.315   6.582   3.777  0.7983  0.7170 -0.7738
15316SOL     OW48101   5.086   8.786   3.815 -0.6891 -0.0079 -0.1698
15316SOL    HW148102   5.089   8.800   3.909 -0.0001 -1.2344  0.0096
15316SOL    HW248103   5.153   8.845   3.780  0.2894 -0.8134  0.2938
15317SOL     OW48104   4.471   6.817   0.461 -0.6006 -0.0926 -0.2497
15317SOL    HW148105   4.489   6.724   0.451  0.6632  0.1099 -0.0112
15317SOL    HW248106   4.387   6.821   0.507 -0.8982 -1.1038 -0.7069
15318SOL     OW48107   1.168   0.675   5.156 -0.6897 -0.4683 -0.3953
15318SOL    HW148108   1.146   0.767   5.139 -1.0667 -0.2628  1.0820
15318SOL    HW248109   1.084   0.633   5.176 -0.3566 -0.8098  0.3257
15319SOL     OW48110   7.597   2.671   1.783 -0.0511  0.3755  0.3523
15319SOL    HW148111   7.652   2.697   1.709  0.1108  1.8374  0.9447
15319SOL    HW248112   7.637   2.590   1.815 -0.0395 -0.2026 -1.0438
15320SOL     OW48113   5.838   7.251   9.322  0.5457 -0.4771 -0.2042
15320SOL    HW148114   5.869   7.274   9.409 -0.8180 -0.7351  0.3867
15320SOL    HW248115   5.817   7.158   9.328 -1.7194 -0.0208 -0.0779
15321SOL     OW48116   2.118   1.571   8.284 -0.6359 -0.0275 -0.0943
15321SOL    HW148117   2.190   1.508   8.282 -1.8678 -1.5425  1.1049
15321SOL    HW248118   2.160   1.656   8.267  1.2613 -0.9766 -0.4235
15322SOL     OW48119   4.918   6.464   3.785 -0.0728  0.2913  0.2292
15322SOL    HW148120   4.975   6.418   3.725 -0.8114  0.3153 -0.5072
15322SOL    HW248121   4.926   6.556   3.761 -0.7629  0.2490 -0.1878
15323SOL     OW48122   8.828   4.356   2.454 -0.7322  0.5610 -0.6364
15323SOL    HW148123   8.768   4.292   2.416 -0.4029  1.2844 -2.5113
15323SOL    HW248124   8.913   4.311   2.453 -1.1797 -0.5000  2.1103
15324SOL     OW48125   6.316   4.450   0.209 -0.3215 -0.3451 -0.5362
15324SOL    HW148126   6.231   4.487   0.230 -0.0941 -0.4540  0.6381
15324SOL    HW248127   6.297   4.360   0.181 -0.6781 -0.0193 -1.3865
15325SOL     OW48128   2.945   8.154   8.358  0.2281  0.2712  0.2852
15325SOL    HW148129   3.033   8.153   8.396  0.1243  1.0082  0.5504
15325SOL    HW248130   2.939   8.238   8.313 -0.5324  0.4523  0.7196
15326SOL     OW48131   1.146   9.155   9.350  0.0754  0.2061 -0.5555
15326SOL    HW148132   1.150   9.212   9.273  0.6288  1.3879  0.3210
15326SOL    HW248133   1.066   9.181   9.395  1.2604  1.6600  0.8336
15327SOL     OW48134   5.707   7.094   0.130 -0.0146  0.7909  0.3061
15327SOL    HW148135   5.760   7.016   0.112 -0.2969  0.7469 -0.3794
15327SOL    HW248136   5.722   7.113   0.223  0.5299  0.2782  0.3283
15328SOL     OW48137   6.993   5.748   7.081 -0.3940  0.0481 -0.4658
15328SOL    HW148138   6.983   5.716   6.991  0.0902 -0.1698 -0.4463
15328SOL    HW248139   6.933   5.822   7.087 -0.3610  0.1230 -1.0013
15329SOL     OW48140   1.726   1.381   2.972  0.2539  0.0982 -0.5945
15329SOL    HW148141   1.688   1.304   3.014 -0.9410 -0.6486 -2.8926
15329SOL    HW248142   1.816   1.384   3.005 -0.0906 -1.4726  0.5964
15330SOL     OW48143   5.759   4.408   4.679  0.1254 -0.8144 -0.4911
15330SOL    HW148144   5.781   4.438   4.767 -0.6157  0.2490 -0.6369
15330SOL    HW248145   5.724   4.320   4.691 -0.2543 -0.5616  0.3121
15331SOL     OW48146   5.739   8.921   2.939 -1.2334 -0.4485 -0.1123
15331SOL    HW148147   5.702   8.850   2.886 -2.0686  1.1243 -1.7496
15331SOL    HW248148   5.728   8.999   2.885 -0.0702  0.9008  1.5002
15332SOL     OW48149   7.231   1.780   9.038  0.5056  0.4144  0.8649
15332SOL    HW148150   7.228   1.685   9.033 -0.5771  0.4986 -0.9196
15332SOL    HW248151   7.151   1.805   9.087 -0.4515  0.4677 -0.6693
15333SOL     OW48152   4.653   0.787   3.577 -0.8034  0.2656 -0.7204
15333SOL    HW148153   4.706   0.837   3.640 -0.3371 -1.0990  0.0220
15333SOL    HW248154   4.677   0.822   3.492  1.8032 -0.6961 -0.4670
15334SOL     OW48155   6.722   0.029   4.710  0.1632  0.4581  0.3973
15334SOL    HW148156   6.709   0.030   4.805  1.8375 -0.1249  0.6633
15334SOL    HW248157   6.814   0.050   4.698  0.4797 -1.4167 -0.9653
15335SOL     OW48158   5.525   1.486   0.069 -0.0117 -0.0571 -0.1769
15335SOL    HW148159   5.486   1.570   0.044  0.4931  0.4428  0.6524
15335SOL    HW248160   5.473   1.457   0.144  0.5325  0.0841  0.2593
15336SOL     OW48161   4.588   9.470   4.582  0.0839 -0.2292  0.4364
15336SOL    HW148162   4.504   9.503   4.614 -1.1756  0.2981 -3.0663
15336SOL    HW248163   4.576   9.375   4.576 -0.9486 -0.0218 -1.5897
15337SOL     OW48164   0.062   4.548   9.168 -0.4193  0.3458 -0.0238
15337SOL    HW148165   0.143   4.506   9.197  1.3452  2.4511 -1.6376
15337SOL    HW248166   0.054   4.626   9.223 -0.3007  1.1482 -1.1146
15338SOL     OW48167   3.472   3.645   7.422  0.0252  0.4536  0.1133
15338SOL    HW148168   3.493   3.698   7.345 -1.6000  1.6288  0.4075
15338SOL    HW248169   3.449   3.559   7.387 -1.8732  1.3026 -0.9043
15339SOL     OW48170   1.443   9.626   9.200 -0.2225  0.5776 -0.6822
15339SOL    HW148171   1.402   9.637   9.286 -0.3426  1.3574 -0.8331
15339SOL    HW248172   1.537   9.631   9.218 -0.2296  3.9299 -0.9414
15340SOL     OW48173   4.867   6.452   8.248  0.2147  0.0148  0.2236
15340SOL    HW148174   4.827   6.536   8.269 -0.5107 -0.2224 -0.1922
15340SOL    HW248175   4.797   6.388   8.257  1.0940 -0.7624  1.9500
15341SOL     OW48176   3.323   9.296   6.801 -0.6989  0.3875  0.0390
15341SOL    HW148177   3.357   9.207   6.817 -0.1537  0.8010  1.2554
15341SOL    HW248178   3.264   9.313   6.874 -0.5120  1.1674  0.0183
15342SOL     OW48179   2.415   1.929   2.121  0.4938 -0.2206 -0.1290
15342SOL    HW148180   2.418   1.923   2.216  0.9073 -0.9608 -0.1884
15342SOL    HW248181   2.450   2.016   2.101  1.4694 -0.4944  0.3385
15343SOL     OW48182   8.560   8.675   7.998 -0.3029  0.0306 -0.3687
15343SOL    HW148183   8.639   8.647   7.953 -0.8623 -0.6501 -0.9434
15343SOL    HW248184   8.576   8.766   8.021  1.1161 -0.4251  0.5572
15344SOL     OW48185   5.590   3.592   6.394 -0.2607  0.3641  0.2186
15344SOL    HW148186   5.569   3.500   6.379 -1.8328  0.6444  0.4268
15344SOL    HW248187   5.684   3.595   6.406 -0.0344 -1.0582 -0.9744
15345SOL     OW48188   8.309   3.667   3.353 -0.6651 -0.3097  0.1429
15345SOL    HW148189   8.346   3.622   3.278 -0.0360  0.3512  0.0472
15345SOL    HW248190   8.247   3.604   3.391 -1.6869 -0.3089 -1.4592
15346SOL     OW48191   8.830   0.874   7.740  0.4771 -0.0196  0.5897
15346SOL    HW148192   8.756   0.890   7.682  0.7572 -0.7750 -0.0007
15346SOL    HW248193   8.802   0.800   7.794  0.0636  0.9382  1.7096
15347SOL     OW48194   7.871   4.296   2.378  0.1315  0.3233  0.2135
15347SOL    HW148195   7.877   4.273   2.471  0.4662  0.2686  0.1802
15347SOL    HW248196   7.947   4.253   2.338 -0.1450  0.1513 -0.1237
15348SOL     OW48197   0.275   0.143   0.502 -0.2127 -0.3678 -0.0513
15348SOL    HW148198   0.239   0.231   0.504  3.1956  1.3315 -2.4416
15348SOL    HW248199   0.212   0.092   0.451 -0.3880  1.8147 -2.1669
15349SOL     OW48200   4.587   0.105   6.401  0.2820 -0.4742  0.7373
15349SOL    HW148201   4.585   0.141   6.490  2.6961  0.7161  0.4077
15349SOL    HW248202   4.671   0.134   6.366 -1.7827  1.6630 -3.0363
15350SOL     OW48203   4.602   8.091   4.224 -0.3056  0.4263  0.7107
15350SOL    HW148204   4.689   8.078   4.188 -1.3052 -1.3999 -1.2902
15350SOL    HW248205   4.617   8.126   4.311  2.3612  1.7064 -0.1524
15351SOL     OW48206   3.514   7.213   0.479  0.4432  0.9079  0.2270
15351SOL    HW148207   3.531   7.259   0.396 -0.4050  0.4220 -0.2261
15351SOL    HW248208   3.516   7.120   0.456 -0.1971  0.7788  0.6605
15352SOL     OW48209   3.072   4.482   1.125  0.6587 -0.3435  0.3272
15352SOL    HW148210   3.159   4.521   1.114  0.2037 -0.0205 -3.1116
15352SOL    HW248211   3.014   4.540   1.076 -1.1242 -1.8202  0.6121
15353SOL     OW48212   4.492   0.078   8.497 -0.2904  0.6873  0.4947
15353SOL    HW148213   4.559   0.039   8.553  0.4410  1.2436  0.0293
15353SOL    HW248214   4.510   0.040   8.410 -1.3934 -0.1517  0.6144
15354SOL     OW48215   6.473   6.676   2.760  0.4786  0.2490 -0.0216
15354SOL    HW148216   6.537   6.644   2.697  1.5444 -1.7327  1.9023
15354SOL    HW248217   6.486   6.771   2.763  1.6595  0.1582 -1.4172
15355SOL     OW48218   7.221   4.853   5.120 -0.0656  0.1400 -0.4372
15355SOL    HW148219   7.300   4.904   5.139  0.8360 -0.7827 -1.6139
15355SOL    HW248220   7.149   4.915   5.136  0.9725  1.7880 -1.7760
15356SOL     OW48221   2.646   1.667   2.690 -0.2454  0.0096  0.6623
15356SOL    HW148222   2.734   1.694   2.663 -0.4505 -1.5158 -1.8954
15356SOL    HW248223   2.595   1.748   2.693  0.8411  0.7122  0.5248
15357SOL     OW48224   7.804   9.431   7.793 -0.5827  0.0611  0.4289
15357SOL    HW148225   7.871   9.378   7.835 -0.0037 -0.0942 -0.6737
15357SOL    HW248226   7.846   9.466   7.715 -1.1668  1.5804  0.7560
15358SOL     OW48227   8.009   6.053   1.226 -0.0890  0.1992  0.3551
15358SOL    HW148228   8.076   6.000   1.184 -0.3954  0.5931 -0.6741
15358SOL    HW248229   7.935   5.994   1.238 -1.9414  1.0961 -4.3654
15359SOL     OW48230   6.647   4.520   5.160 -0.6297  0.0451 -0.6596
15359SOL    HW148231   6.583   4.469   5.210 -0.7511  1.3443  0.6004
15359SOL    HW248232   6.724   4.463   5.154 -0.6076 -0.1664  1.0826
15360SOL     OW48233   1.341   6.623   3.986 -0.1921 -0.2459 -0.0468
15360SOL    HW148234   1.416   6.572   4.016 -1.2120 -1.5362  0.3940
15360SOL    HW248235   1.377   6.709   3.966  1.1026 -0.2780  1.8637
15361SOL     OW48236   7.918   4.026   1.657 -0.6212  0.1268  0.9255
15361SOL    HW148237   7.848   3.989   1.604  0.3670 -0.6459  0.1023
15361SOL    HW248238   7.897   4.001   1.747  0.0299 -2.6267  0.4198
15362SOL     OW48239   2.433   6.299   8.767  0.0172  0.1301 -0.0199
15362SOL    HW148240   2.440   6.392   8.742 -3.1994  0.0160 -1.9311
15362SOL    HW248241   2.487   6.253   8.703 -2.4339  0.4322 -2.5110
15363SOL     OW48242   8.718   5.843   8.787 -0.9227  0.0851  0.5929
15363SOL    HW148243   8.722   5.938   8.800 -0.6485  0.7427 -3.1156
15363SOL    HW248244   8.625   5.823   8.783 -1.0642  0.8864 -1.8254
15364SOL     OW48245   0.079   0.261   6.247 -0.1740 -0.4479  0.3666
15364SOL    HW148246   0.132   0.183   6.265 -0.1512 -0.4986  0.0782
15364SOL    HW248247   0.126   0.332   6.293 -0.9543 -0.8334  1.8300
15365SOL     OW48248   8.736   0.629   2.272  0.4317 -0.2350  0.0170
15365SOL    HW148249   8.787   0.556   2.308 -0.5324 -0.5878  0.7361
15365SOL    HW248250   8.776   0.647   2.187  0.2664 -2.0715 -0.5066
15366SOL     OW48251   1.539   1.682   7.926  0.5563 -0.8262  0.1747
15366SOL    HW148252   1.452   1.677   7.965  1.5243 -1.4491  2.4601
15366SOL    HW248253   1.567   1.591   7.917  1.1880 -0.6245  0.0288
15367SOL     OW48254   5.157   8.341   3.341 -0.0555 -0.2296 -0.0077
15367SOL    HW148255   5.093   8.269   3.339  1.0279 -1.2455  0.6701
15367SOL    HW248256   5.121   8.406   3.282 -1.2219 -1.2064 -0.4223
15368SOL     OW48257   0.485   7.426   0.477  0.4743 -0.3957  0.7324
15368SOL    HW148258   0.390   7.436   0.463  0.3435 -1.3872  0.8573
15368SOL    HW248259   0.525   7.468   0.400 -0.0770 -0.2586  0.5143
15369SOL     OW48260   0.443   1.331   8.091 -0.3652 -0.2014 -0.5632
15369SOL    HW148261   0.499   1.364   8.162  1.1629  0.5013 -2.0243
15369SOL    HW248262   0.371   1.287   8.136  1.3449 -1.1404  1.4123
15370SOL     OW48263   8.233   8.614   2.035 -0.6334 -0.9349  0.1062
15370SOL    HW148264   8.322   8.642   2.053 -1.3571  1.6009  0.0431
15370SOL    HW248265   8.207   8.565   2.113  0.8012 -1.8045  0.0786
15371SOL     OW48266   7.038   8.480   9.492  0.2110  0.0827 -0.3006
15371SOL    HW148267   6.959   8.441   9.455 -0.6159  0.0248  1.4219
15371SOL    HW248268   7.107   8.416   9.475 -0.5604 -0.8487  0.0075
15372SOL     OW48269   8.226   5.034   4.524  0.6221  0.9057  0.8483
15372SOL    HW148270   8.236   4.955   4.577 -1.7709 -1.4277 -1.8928
15372SOL    HW248271   8.146   5.075   4.558  1.1117  1.4292  1.3836
15373SOL     OW48272   8.320   2.728   3.091 -0.4691  0.6019 -0.8733
15373SOL    HW148273   8.270   2.792   3.041  1.4255  2.1540 -0.9148
15373SOL    HW248274   8.317   2.760   3.181  2.7754  2.5307 -1.2638
15374SOL     OW48275   4.657   6.709   6.008 -0.2809  0.0482  0.1838
15374SOL    HW148276   4.578   6.670   6.045 -1.2274  0.1041 -1.6389
15374SOL    HW248277   4.716   6.635   5.993 -0.0151 -0.0094  1.4404
15375SOL     OW48278   6.704   5.932   1.701  0.2223  0.7822 -0.0194
15375SOL    HW148279   6.718   5.899   1.613  0.8758 -1.2126  0.7845
15375SOL    HW248280   6.609   5.939   1.709 -0.0425 -1.9133  0.0560
15376SOL     OW48281   0.036   2.821   2.495  0.2470  0.3825  0.1060
15376SOL    HW148282  -0.036   2.830   2.557 -1.4636 -2.0412 -1.3427
15376SOL    HW248283   0.009   2.872   2.419 -0.3284 -1.0798 -0.7063
15377SOL     OW48284   1.846   2.153   6.021  0.0705 -0.4228 -0.5425
15377SOL    HW148285   1.757   2.188   6.016 -0.4584 -1.7261 -0.8680
15377SOL    HW248286   1.884   2.193   6.099 -0.3165  1.1738 -1.1347
15378SOL     OW48287   2.864   1.188   8.431  0.4523 -0.2129  0.6598
15378SOL    HW148288   2.818   1.220   8.353  1.6638  1.2720  0.5087
15378SOL    HW248289   2.857   1.093   8.425  0.7422 -0.1648 -1.4372
15379SOL     OW48290   1.548   8.676   3.105  0.0603  0.4520  0.1050
15379SOL    HW148291   1.560   8.710   3.193  1.0207  3.0242 -0.9384
15379SOL    HW248292   1.622   8.616   3.093 -0.2173 -0.1160  1.1062
15380SOL     OW48293   6.297   7.576   2.355 -0.0256 -0.4018  0.0171
15380SOL    HW148294   6.291   7.671   2.345 -0.0528 -0.4034  0.0188
15380SOL    HW248295   6.233   7.541   2.294 -0.4207 -0.4008  0.4254
15381SOL     OW48296   5.575   3.458   9.098 -0.0775 -0.1785 -0.2382
15381SOL    HW148297   5.605   3.534   9.048  0.0194  0.1495  0.3174
15381SOL    HW248298   5.635   3.388   9.072 -1.3106 -0.5894 -2.2041
15382SOL     OW48299   2.748   2.212   6.124 -0.4540  0.1977  0.1093
15382SOL    HW148300   2.803   2.214   6.202  1.1674 -0.4452 -0.9786
15382SOL    HW248301   2.659   2.225   6.157  0.1043 -0.8277  2.1404
15383SOL     OW48302   0.135   2.262   8.957  0.0696 -0.2196 -0.3208
15383SOL    HW148303   0.098   2.343   8.922 -0.6863 -0.0867  0.7537
15383SOL    HW248304   0.159   2.212   8.879 -1.2489  0.2185 -1.0308
15384SOL     OW48305   9.174   0.403   6.198  0.0594  0.5715  0.2035
15384SOL    HW148306   9.203   0.494   6.190  0.9584  0.3247  0.5302
15384SOL    HW248307   9.255   0.352   6.193 -0.5432 -0.2946 -1.1701
15385SOL     OW48308   3.767   1.788   0.100  0.0885 -0.3339 -0.4961
15385SOL    HW148309   3.675   1.794   0.124  0.2202 -0.7093  0.1366
15385SOL    HW248310   3.813   1.777   0.184  0.7295  0.1172 -0.7845
15386SOL     OW48311   3.905   0.001   6.252  0.7905 -0.0647 -0.2193
15386SOL    HW148312   3.942   0.059   6.318  1.5582 -1.4631  0.6019
15386SOL    HW248313   3.980  -0.025   6.198 -0.0928  2.8513 -3.1826
15387SOL     OW48314   5.414   6.244   5.352 -0.5252  0.3295  0.6747
15387SOL    HW148315   5.452   6.323   5.313  0.2525 -0.1802  0.3767
15387SOL    HW248316   5.374   6.198   5.278 -0.2833  0.0559  0.7119
15388SOL     OW48317   6.868   4.484   0.713 -0.1633 -1.3885  0.3697
15388SOL    HW148318   6.802   4.414   0.709 -1.5455 -0.2957  2.1937
15388SOL    HW248319   6.823   4.561   0.680  0.3990 -0.7496  1.0648
15389SOL     OW48320   7.843   9.036   9.192 -0.1361  0.6277 -0.0774
15389SOL    HW148321   7.930   8.995   9.189 -0.2036  0.4830 -0.0557
15389SOL    HW248322   7.804   9.015   9.108 -1.5051 -2.2753  1.1578
15390SOL     OW48323   6.234   0.967   0.215 -0.0717  0.1914 -0.7736
15390SOL    HW148324   6.211   0.951   0.307 -1.5168  1.8393 -0.8017
15390SOL    HW248325   6.324   0.936   0.207  0.4090  0.8493  1.4498
15391SOL     OW48326   5.400   1.062   8.150 -0.1243 -0.2571  0.1068
15391SOL    HW148327   5.481   1.011   8.149 -0.5723 -1.0227  1.3635
15391SOL    HW248328   5.360   1.045   8.064  0.1468 -1.3506  0.1835
15392SOL     OW48329   5.827   3.592   7.084 -0.0169  0.4325  0.2692
15392SOL    HW148330   5.772   3.664   7.053 -1.0789 -1.2639 -2.1031
15392SOL    HW248331   5.838   3.536   7.007  2.6275 -0.8219  1.4474
15393SOL     OW48332   3.293   5.140   0.354 -0.1344 -0.3704  0.8709
15393SOL    HW148333   3.317   5.232   0.361  0.0592 -0.3402 -0.1069
15393SOL    HW248334   3.375   5.095   0.335 -0.5992 -0.4337 -1.1352
15394SOL     OW48335   7.337   5.290   9.217  0.2679  0.1194 -0.2010
15394SOL    HW148336   7.257   5.258   9.257  0.6831  0.1572  0.6760
15394SOL    HW248337   7.398   5.217   9.222  1.0546  0.8316  1.3527
15395SOL     OW48338   8.599   3.349   7.519  0.4705  0.0241 -0.0065
15395SOL    HW148339   8.616   3.443   7.517 -0.5856  0.2273 -0.4127
15395SOL    HW248340   8.587   3.329   7.612 -0.1304  0.4625  0.0159
15396SOL     OW48341   2.249   2.377   4.750  0.1534  0.1494  0.0962
15396SOL    HW148342   2.329   2.411   4.791  0.1394 -0.0345  0.2774
15396SOL    HW248343   2.193   2.454   4.740 -0.6406 -0.0729  2.2326
15397SOL     OW48344   1.878   0.699   5.155  0.7722 -0.5588  0.4224
15397SOL    HW148345   1.838   0.661   5.234 -1.4369 -0.4106 -0.5463
15397SOL    HW248346   1.878   0.793   5.171 -1.4375 -0.3599 -0.4413
15398SOL     OW48347   9.608   8.366   0.604  0.0895 -0.3352 -0.0002
15398SOL    HW148348   9.536   8.407   0.651  0.2255 -0.4785  0.3333
15398SOL    HW248349   9.679   8.429   0.609  0.7204 -1.1304  1.6266
15399SOL     OW48350   6.893   4.636   6.621  0.6305 -0.3269  0.1249
15399SOL    HW148351   6.901   4.630   6.526 -0.3062  0.6176 -0.0334
15399SOL    HW248352   6.860   4.550   6.648  0.0557 -0.3101 -0.5062
15400SOL     OW48353   8.717   0.778   6.062  0.2199  0.5222  0.7529
15400SOL    HW148354   8.699   0.762   6.155  1.7940  1.2284  1.2025
15400SOL    HW248355   8.640   0.827   6.032 -1.0628 -1.0630  1.2399
15401SOL     OW48356   9.276   1.539   4.524  0.1570  0.6108  0.3334
15401SOL    HW148357   9.325   1.584   4.593 -1.2047 -1.5571  2.9503
15401SOL    HW248358   9.192   1.586   4.519  0.4899  1.1394 -0.3029
15402SOL     OW48359   1.933   6.211   2.751  0.4502 -0.3683  0.2475
15402SOL    HW148360   2.018   6.211   2.796  0.5569 -1.7004  0.1024
15402SOL    HW248361   1.954   6.190   2.661  0.0683  0.5621 -0.0709
15403SOL     OW48362   3.714   4.739   0.967  0.3309  0.1721  0.1419
15403SOL    HW148363   3.718   4.644   0.956  0.4041  0.1844  0.0520
15403SOL    HW248364   3.776   4.758   1.037 -3.0579 -0.3488  3.6476
15404SOL     OW48365   6.343   7.655   5.745 -0.2799  0.1377  0.5060
15404SOL    HW148366   6.343   7.564   5.715 -1.0993  0.4572 -0.5213
15404SOL    HW248367   6.276   7.698   5.692  0.5120  1.4766  0.5442
15405SOL     OW48368   3.323   0.934   0.579  0.6599 -0.1681 -0.1403
15405SOL    HW148369   3.359   0.853   0.544 -0.8146 -0.1106 -1.9584
15405SOL    HW248370   3.229   0.917   0.585  0.2904  1.4778 -0.8100
15406SOL     OW48371   8.181   0.069   9.059  0.1950  0.5048 -0.1293
15406SOL    HW148372   8.161   0.054   8.967  0.2821  1.3450 -0.2919
15406SOL    HW248373   8.212   0.160   9.062  1.3338  0.1170  0.5404
15407SOL     OW48374   7.051   9.109   5.942 -0.3359  0.4572  0.2074
15407SOL    HW148375   7.094   9.076   6.022  1.0578 -0.1671 -0.7480
15407SOL    HW248376   7.103   9.185   5.916  0.7562 -0.7600 -1.3943
15408SOL     OW48377   5.891   2.937   0.013  0.5169  0.2901 -0.2248
15408SOL    HW148378   5.974   2.890   0.002  0.4372 -0.0464  0.5673
15408SOL    HW248379   5.859   2.949  -0.076  0.2093 -1.7802 -0.4563
15409SOL     OW48380   1.372   7.030   7.678  0.3401 -0.4771 -0.1942
15409SOL    HW148381   1.465   7.015   7.663  0.5632  0.4084  0.2560
15409SOL    HW248382   1.351   6.976   7.755  0.2761 -1.3254 -0.7893
15410SOL     OW48383   0.608   6.240   3.313 -0.1538 -0.0459 -0.5487
15410SOL    HW148384   0.632   6.151   3.337 -0.6726 -0.0823 -0.1380
15410SOL    HW248385   0.655   6.257   3.232 -0.3330 -0.8236 -0.8241
15411SOL     OW48386   2.316   8.686   7.953  0.2707  0.0644  0.1608
15411SOL    HW148387   2.297   8.653   8.041 -0.3921  1.2182  0.4741
15411SOL    HW248388   2.245   8.652   7.899 -1.5015  2.3969  0.8560
15412SOL     OW48389   9.395   0.906   3.208  0.1437 -0.3836  0.3849
15412SOL    HW148390   9.315   0.905   3.156  0.4176  0.1554 -0.0607
15412SOL    HW248391   9.448   0.975   3.169  1.0598 -1.1058  0.3283
15413SOL     OW48392   6.746   5.016   8.877 -0.3936 -0.2642 -0.1853
15413SOL    HW148393   6.739   5.083   8.946  2.4401  1.9254 -1.8345
15413SOL    HW248394   6.714   5.059   8.798 -0.1253 -1.4627 -0.9756
15414SOL     OW48395   2.076   8.364   2.272  0.2898  0.4514  0.2226
15414SOL    HW148396   2.123   8.372   2.354  1.8609  0.2378 -0.6105
15414SOL    HW248397   2.039   8.276   2.273  1.1174  0.0945  0.3152
15415SOL     OW48398   1.861   0.641   3.717  0.1421 -0.2816  0.2367
15415SOL    HW148399   1.948   0.677   3.696  0.9538 -1.9421  0.5744
15415SOL    HW248400   1.816   0.638   3.632 -0.5775  2.8854  0.3842
15416SOL     OW48401   1.390   8.496   8.253 -0.0433  0.1117  0.2845
15416SOL    HW148402   1.428   8.552   8.320  1.6478  0.4344 -0.8670
15416SOL    HW248403   1.465   8.450   8.215 -0.9384 -0.0713 -1.3642
15417SOL     OW48404   9.102   5.943   1.569  0.2186  0.3048 -0.3469
15417SOL    HW148405   9.155   5.886   1.513  0.8899  0.3765  0.1988
15417SOL    HW248406   9.058   6.002   1.508  0.2187 -0.2096 -0.8563
15418SOL     OW48407   3.878   8.753   1.424  0.5412  0.3370 -0.3206
15418SOL    HW148408   3.898   8.711   1.341 -0.6562  0.9376 -0.9349
15418SOL    HW248409   3.931   8.706   1.488 -1.1053 -2.4819 -0.8777
15419SOL     OW48410   0.181   8.164   6.648  0.3479 -0.0577  0.1522
15419SOL    HW148411   0.116   8.182   6.581 -0.2555  0.6897  0.9177
15419SOL    HW248412   0.244   8.105   6.606 -1.2134 -1.4231 -0.3966
15420SOL     OW48413   8.530   8.533   3.652  0.7299  0.4733  0.3646
15420SOL    HW148414   8.527   8.536   3.748  2.6009  1.3388  0.4409
15420SOL    HW248415   8.561   8.444   3.632 -1.7741 -0.4958  0.4098
15421SOL     OW48416   6.634   5.310   1.090  0.0373  0.0640  0.0691
15421SOL    HW148417   6.636   5.270   1.177  1.7131 -1.5239 -0.6232
15421SOL    HW248418   6.665   5.399   1.104  2.3121 -0.7816  0.8740
15422SOL     OW48419   3.589   3.106   9.244  0.3248 -0.1743 -0.4542
15422SOL    HW148420   3.497   3.118   9.266 -0.0123  1.6803 -2.4797
15422SOL    HW248421   3.589   3.082   9.151  1.8727  0.3659 -0.6320
15423SOL     OW48422   2.443   4.533   3.200 -0.6948 -0.6804  0.3436
15423SOL    HW148423   2.472   4.489   3.280  0.0610  2.3817  1.9201
15423SOL    HW248424   2.522   4.572   3.164 -1.4598  0.3231 -0.3013
15424SOL     OW48425   4.844   0.457   8.870  0.0292  0.0015 -0.0698
15424SOL    HW148426   4.871   0.467   8.961 -0.2387  0.4324 -0.0324
15424SOL    HW248427   4.878   0.371   8.844 -0.8003 -0.5968  0.7560
15425SOL     OW48428   4.791   1.775   8.913 -0.4277  0.3095  0.3056
15425SOL    HW148429   4.751   1.717   8.848  0.6399 -0.9875  0.7536
15425SOL    HW248430   4.826   1.716   8.979  0.4322  1.4958  0.9445
15426SOL     OW48431   4.176   2.589   2.067  0.2486  0.9654 -0.3862
15426SOL    HW148432   4.254   2.535   2.057 -0.0172 -0.1358  2.5171
15426SOL    HW248433   4.105   2.536   2.032  0.3166  0.3437  0.3840
15427SOL     OW48434   8.476   2.701   6.334 -0.2920  0.1836 -0.5541
15427SOL    HW148435   8.528   2.708   6.254  1.0676  0.3200  0.3136
15427SOL    HW248436   8.457   2.608   6.342 -0.6438  0.1953 -1.1442
15428SOL     OW48437   2.354   4.271   2.912 -0.2228  0.2712  0.3422
15428SOL    HW148438   2.426   4.284   2.973 -0.4399  0.5705  0.5375
15428SOL    HW248439   2.278   4.308   2.956 -0.5000 -0.0496  0.1425
15429SOL     OW48440   6.872   2.084   3.479  0.2921 -0.2308 -0.0754
15429SOL    HW148441   6.953   2.039   3.503 -1.6774 -3.5121  1.1436
15429SOL    HW248442   6.842   2.038   3.400 -0.6777  0.4706 -0.1303
15430SOL     OW48443   2.709   4.642   4.088 -0.3351 -0.3872  0.1780
15430SOL    HW148444   2.646   4.601   4.029  0.8001  0.0069 -1.3495
15430SOL    HW248445   2.720   4.579   4.159 -0.0247 -1.9174 -1.1723
15431SOL     OW48446   8.766   4.363   0.406 -0.2033  0.3098 -0.3269
15431SOL    HW148447   8.767   4.418   0.328 -0.5954  0.8180  0.0190
15431SOL    HW248448   8.844   4.389   0.455 -0.3650  0.5263 -0.1848
15432SOL     OW48449   4.085   5.351   8.999  0.1021  0.3740 -0.3348
15432SOL    HW148450   4.146   5.305   9.057 -1.2724 -2.3913 -0.9263
15432SOL    HW248451   4.104   5.316   8.912 -2.3203 -0.6637 -0.5232
15433SOL     OW48452   0.381   1.580   2.437  0.4036  0.0751  0.0833
15433SOL    HW148453   0.427   1.543   2.512 -0.7469  2.5730  2.1633
15433SOL    HW248454   0.288   1.571   2.459 -0.2578 -2.9374 -3.0623
15434SOL     OW48455   8.147   7.906   2.122 -0.0519 -0.2866  0.0919
15434SOL    HW148456   8.238   7.879   2.112 -0.2701 -0.6269 -1.1945
15434SOL    HW248457   8.148   8.001   2.108  0.1162 -0.2861  0.1131
15435SOL     OW48458   9.483   2.244   5.990 -0.2183 -0.1344 -0.9079
15435SOL    HW148459   9.500   2.320   6.047  0.7020  0.1803 -1.5820
15435SOL    HW248460   9.442   2.282   5.912 -0.5610 -0.4369 -0.8722
15436SOL     OW48461   3.399   6.144   1.504  0.5859 -0.5594 -0.6031
15436SOL    HW148462   3.358   6.146   1.417  0.8939  1.9532 -0.7598
15436SOL    HW248463   3.378   6.057   1.538  0.0173 -1.4351 -2.9665
15437SOL     OW48464   4.819   9.297   0.984  0.2047  0.3504 -0.2165
15437SOL    HW148465   4.829   9.386   0.950 -0.0930  0.2084 -0.6819
15437SOL    HW248466   4.879   9.245   0.932  0.4525  0.2899  0.1236
15438SOL     OW48467   8.035   5.869   9.583 -0.2591 -0.1982 -0.3088
15438SOL    HW148468   8.104   5.803   9.586 -0.7866 -0.8038 -1.2132
15438SOL    HW248469   7.974   5.844   9.652  1.2032  1.2731  1.6381
15439SOL     OW48470   7.308   6.762   3.873 -0.5813 -0.5758 -0.2506
15439SOL    HW148471   7.251   6.833   3.903  2.0554  1.3213  0.7028
15439SOL    HW248472   7.339   6.721   3.954  0.6992 -0.3987 -0.6257
15440SOL     OW48473   5.549   0.697   7.074  0.3342  0.0013 -0.1918
15440SOL    HW148474   5.528   0.643   6.998  1.8151 -0.0200 -0.6150
15440SOL    HW248475   5.535   0.640   7.150  0.3827 -0.4852 -0.5458
15441SOL     OW48476   5.999   1.969   8.093  0.2669  0.0323  0.1016
15441SOL    HW148477   6.032   1.907   8.027  2.3589  0.8294  0.3064
15441SOL    HW248478   6.037   1.937   8.175  2.2244  2.0454  0.0740
15442SOL     OW48479   9.426   7.062   9.213 -0.3451  0.8300  0.1416
15442SOL    HW148480   9.341   7.072   9.255 -0.2551 -0.5197  0.7038
15442SOL    HW248481   9.459   6.978   9.245  0.4483  0.5164 -1.3917
15443SOL     OW48482   7.499   9.455   7.102 -0.6151 -0.4662 -0.1364
15443SOL    HW148483   7.472   9.434   7.013  0.4951 -0.9797 -0.3786
15443SOL    HW248484   7.555   9.532   7.092 -2.5524  1.1102  0.4486
15444SOL     OW48485   8.109   6.903   3.560  0.1030 -0.0472  0.4286
15444SOL    HW148486   8.134   6.986   3.599  1.2700  0.9713 -2.2293
15444SOL    HW248487   8.160   6.898   3.479 -1.5676 -2.3124 -0.6106
15445SOL     OW48488   6.780   1.164   4.524 -0.1226 -0.0532  0.3680
15445SOL    HW148489   6.697   1.124   4.550  0.1638 -1.0580 -0.2300
15445SOL    HW248490   6.846   1.118   4.575  0.0428  1.1519  1.2944
15446SOL     OW48491   3.180   6.009   5.259 -0.0526  0.0413 -0.0711
15446SOL    HW148492   3.244   6.059   5.208 -1.5681  0.5015 -1.6125
15446SOL    HW248493   3.198   5.918   5.238  0.9287  0.0686  0.5694
15447SOL     OW48494   6.087   9.175   8.826  0.5366  0.2545  0.2119
15447SOL    HW148495   6.153   9.144   8.763 -1.2017  0.9507 -2.1111
15447SOL    HW248496   6.071   9.266   8.802 -1.4394  0.0365  0.4762
15448SOL     OW48497   0.557   1.031   5.251 -0.2548 -0.1150 -0.2829
15448SOL    HW148498   0.492   1.090   5.288  1.2616  3.2195 -2.4682
15448SOL    HW248499   0.542   0.948   5.296 -3.0187  1.6646  2.5029
15449SOL     OW48500   0.502   5.803   0.150 -0.1577  0.5489 -0.1173
15449SOL    HW148501   0.568   5.743   0.186  0.5527  2.3757  1.8790
15449SOL    HW248502   0.453   5.833   0.226 -3.2232 -0.5499 -1.5289
15450SOL     OW48503   1.598   5.608   3.611 -0.1424  0.4338  0.3675
15450SOL    HW148504   1.640   5.647   3.688 -0.6302 -0.1882  0.9647
15450SOL    HW248505   1.671   5.577   3.557  0.1951 -1.8730  2.0421
15451SOL     OW48506   5.112   5.887   6.137  0.5753 -0.5032  0.3927
15451SOL    HW148507   5.109   5.950   6.064 -1.3149 -0.4075  0.5009
15451SOL    HW248508   5.206   5.870   6.150  0.9902 -0.6467 -2.1637
15452SOL     OW48509   4.940   0.487   9.112  0.5038  0.3073 -0.5445
15452SOL    HW148510   4.954   0.553   9.180  0.2176  1.6216 -1.7196
15452SOL    HW248511   5.025   0.442   9.104  0.1507 -0.9018  1.6706
15453SOL     OW48512   8.042   6.533   0.648 -0.4678  0.2780 -0.0540
15453SOL    HW148513   8.086   6.570   0.571 -3.0068  0.0732 -1.7386
15453SOL    HW248514   8.105   6.544   0.719  1.9585  0.6253 -2.0932
15454SOL     OW48515   7.808   5.302   1.352 -0.9641  0.0042  0.1396
15454SOL    HW148516   7.876   5.238   1.370 -0.6338  0.2548 -0.2023
15454SOL    HW248517   7.826   5.374   1.413 -1.9802 -0.6812  1.2877
15455SOL     OW48518   7.431   8.997   4.231 -0.1844  0.3679  0.1853
15455SOL    HW148519   7.526   8.999   4.233 -0.1880  0.2131  0.5013
15455SOL    HW248520   7.404   8.993   4.322 -0.5101  0.8685  0.1170
15456SOL     OW48521   9.577   4.767   8.359 -0.5583 -0.1289  0.0094
15456SOL    HW148522   9.596   4.744   8.268  2.6140  0.1435  0.4949
15456SOL    HW248523   9.526   4.693   8.392  1.3291 -2.0077 -1.0455
15457SOL     OW48524   7.984   2.283   8.445 -0.5196 -0.5301  0.4568
15457SOL    HW148525   7.933   2.324   8.376 -1.8416 -1.3950  0.8880
15457SOL    HW248526   8.073   2.279   8.410 -0.9878 -0.1593 -0.8290
15458SOL     OW48527   1.004   0.115   6.835 -0.2623 -0.1362  0.2788
15458SOL    HW148528   1.044   0.030   6.852 -1.2759 -0.3209  2.0727
15458SOL    HW248529   0.976   0.146   6.922 -1.5012  1.2049 -0.5467
15459SOL     OW48530   8.841   7.601   7.184  0.0943 -0.2494 -0.4901
15459SOL    HW148531   8.856   7.630   7.274  2.4625 -1.5932 -0.3769
15459SOL    HW248532   8.754   7.560   7.186 -0.4205  0.8218  0.8527
15460SOL     OW48533   2.669   7.943   4.973 -0.3424 -0.4282  0.2290
15460SOL    HW148534   2.609   7.909   5.039  0.1682 -1.1685  0.3197
15460SOL    HW248535   2.751   7.898   4.989  0.9420  2.1837  1.5305
15461SOL     OW48536   4.039   8.101   0.797  0.3460  0.2330  0.3035
15461SOL    HW148537   4.084   8.185   0.795  0.6357  0.0751  0.1307
15461SOL    HW248538   3.971   8.108   0.730  1.6867 -0.3968 -1.1853
15462SOL     OW48539   0.890   1.836   6.200 -0.4621  0.1146 -0.3564
15462SOL    HW148540   0.941   1.877   6.270  1.6068  0.2095 -1.8330
15462SOL    HW248541   0.894   1.742   6.220  0.8176  0.0672 -0.7482
15463SOL     OW48542   8.480   9.493   4.650 -0.8194 -0.2791  0.3505
15463SOL    HW148543   8.451   9.451   4.730  0.8535 -1.8019  0.2252
15463SOL    HW248544   8.428   9.573   4.644 -0.7745  0.0519  3.1126
15464SOL     OW48545   0.939   8.056   7.820  0.2689  0.2836  0.0755
15464SOL    HW148546   0.912   8.106   7.742 -1.5821 -0.2401  0.3411
15464SOL    HW248547   0.975   7.975   7.784 -0.3177  0.1612 -0.2505
15465SOL     OW48548   3.399   6.089   3.318  0.3154 -0.2838 -0.6299
15465SOL    HW148549   3.435   6.031   3.385  0.6555 -0.1483 -0.6934
15465SOL    HW248550   3.453   6.168   3.324 -2.0693  1.3599  1.6621
15466SOL     OW48551   2.567   9.564   0.631 -0.0396  0.6233  0.2089
15466SOL    HW148552   2.528   9.600   0.711  0.9835  1.2307  0.4607
15466SOL    HW248553   2.514   9.487   0.611 -0.8243  0.9337  1.0066
15467SOL     OW48554   2.435   6.599   5.369  0.0243 -0.6564  0.3162
15467SOL    HW148555   2.380   6.606   5.447 -1.4616  1.0670 -0.8044
15467SOL    HW248556   2.401   6.523   5.322 -0.2119 -0.6754  0.5167
15468SOL     OW48557   1.567   0.715   4.971  0.3423  0.2614  1.0412
15468SOL    HW148558   1.587   0.778   5.041  1.5426  0.4508  0.5542
15468SOL    HW248559   1.640   0.653   4.974 -0.5269 -0.7864  1.1254
15469SOL     OW48560   0.369   7.905   2.120  0.4546  0.3360 -0.3522
15469SOL    HW148561   0.429   7.896   2.045  0.4056  1.3120 -0.5266
15469SOL    HW248562   0.413   7.859   2.191  1.5124  1.1811 -0.4259
15470SOL     OW48563   7.944   5.293   5.313 -0.3167 -0.7382  0.0037
15470SOL    HW148564   7.953   5.376   5.265  0.3304 -1.2364 -0.7620
15470SOL    HW248565   8.012   5.297   5.380 -0.1281 -0.7434 -0.1844
15471SOL     OW48566   6.107   8.339   1.221 -0.5137  0.2787  0.0078
15471SOL    HW148567   6.151   8.350   1.305 -0.0300  0.9252 -0.3194
15471SOL    HW248568   6.039   8.407   1.220 -0.9605 -0.1599  0.1509
15472SOL     OW48569   5.589   9.127   5.842  0.5134 -0.3096 -0.5856
15472SOL    HW148570   5.616   9.080   5.921  0.2377  1.4190  0.5957
15472SOL    HW248571   5.494   9.124   5.844  0.4993 -1.4425 -1.6426
15473SOL     OW48572   1.238   7.335   4.749 -0.4630 -0.1926 -0.0130
15473SOL    HW148573   1.264   7.410   4.695  2.1299 -1.7956 -1.1563
15473SOL    HW248574   1.277   7.352   4.834 -1.1633  0.4313  0.1965
15474SOL     OW48575   3.311   3.835   2.308 -0.3530 -0.0782 -0.5994
15474SOL    HW148576   3.394   3.801   2.340 -0.6575 -1.2063 -0.9418
15474SOL    HW248577   3.335   3.899   2.242  0.2715  1.7660  1.3185
15475SOL     OW48578   2.283   4.040   8.252 -0.5440  0.1304 -0.1211
15475SOL    HW148579   2.226   4.110   8.283 -1.9345 -0.6641 -0.7958
15475SOL    HW248580   2.257   4.027   8.160  1.6119  0.6072 -0.8656
15476SOL     OW48581   4.600   1.244   0.259 -0.1534  0.1286  0.6760
15476SOL    HW148582   4.543   1.294   0.200 -0.2912 -0.5284  0.2389
15476SOL    HW248583   4.686   1.284   0.248  0.1689 -0.9278 -1.1639
15477SOL     OW48584   1.496   8.949   8.575  0.2197 -0.3447  0.2988
15477SOL    HW148585   1.480   9.043   8.588 -0.8051 -0.4890  0.1988
15477SOL    HW248586   1.504   8.940   8.480 -1.4605 -0.5832  0.1384
15478SOL     OW48587   3.287   3.305   4.306  0.3682 -0.0081 -0.1538
15478SOL    HW148588   3.204   3.334   4.268  0.2100  0.0062  0.1992
15478SOL    HW248589   3.265   3.222   4.349  0.5945 -0.1331 -0.2807
15479SOL     OW48590   6.597   4.478   8.756 -0.0531 -0.5425 -0.3329
15479SOL    HW148591   6.600   4.496   8.662  0.3678 -2.6429 -0.7892
15479SOL    HW248592   6.520   4.525   8.788  0.0267  0.5260 -1.6381
15480SOL     OW48593   0.006   4.925   8.862  0.4558  0.1926 -0.2175
15480SOL    HW148594  -0.043   4.843   8.852  1.1981 -0.3732  0.6701
15480SOL    HW248595  -0.030   4.982   8.793 -2.4130  0.2886  1.1965
15481SOL     OW48596   8.091   5.854   5.082 -0.3500 -0.0933  0.3318
15481SOL    HW148597   8.133   5.932   5.118 -0.9351  0.4764 -0.2031
15481SOL    HW248598   8.152   5.822   5.016  0.7823 -1.2077  1.8457
15482SOL     OW48599   1.979   4.472   7.466  0.3444 -0.4543 -0.3948
15482SOL    HW148600   2.032   4.498   7.391  0.1697  0.0465 -0.3501
15482SOL    HW248601   1.924   4.401   7.433  1.3410 -1.2851 -0.3195
15483SOL     OW48602   6.868   5.796   3.660 -0.2583  0.3324  0.0824
15483SOL    HW148603   6.896   5.722   3.606  0.2651  0.8239 -0.3264
15483SOL    HW248604   6.798   5.837   3.609 -0.6110  0.0670  0.3509
15484SOL     OW48605   5.385   7.645   3.939  0.5040 -0.2543  0.5369
15484SOL    HW148606   5.395   7.587   4.014  1.2861  0.3179  0.8880
15484SOL    HW248607   5.451   7.714   3.952  0.0805  0.3196 -0.2358
15485SOL     OW48608   9.476   2.355   6.673  0.4143 -0.4092 -0.0247
15485SOL    HW148609   9.424   2.276   6.683 -0.3967  0.1577  0.3499
15485SOL    HW248610   9.427   2.422   6.720  0.1631  0.7341 -1.8207
15486SOL     OW48611   2.878   3.458   0.762  0.0129  0.0223  0.1184
15486SOL    HW148612   2.890   3.540   0.716 -1.5027 -1.2033 -2.7271
15486SOL    HW248613   2.949   3.401   0.731  0.1037 -0.2677  0.8165
15487SOL     OW48614   2.969   0.177   4.811 -0.0085 -0.5394  0.4895
15487SOL    HW148615   3.045   0.124   4.834 -0.2105 -0.7003  0.8033
15487SOL    HW248616   2.894   0.129   4.848 -0.5021 -1.4744 -1.5913
15488SOL     OW48617   7.524   6.916   1.654 -0.3969  0.4211  0.1505
15488SOL    HW148618   7.584   6.866   1.709  0.5907  1.6616  0.2456
15488SOL    HW248619   7.570   6.926   1.571 -0.3872  1.5177  0.2744
15489SOL     OW48620   7.123   3.862   1.769  0.2839 -0.0320 -0.9334
15489SOL    HW148621   7.041   3.824   1.800  0.6366 -0.4716 -0.5055
15489SOL    HW248622   7.106   3.885   1.678 -0.9456  1.7423 -0.2990
15490SOL     OW48623   4.279   8.963   5.687  0.3984  0.2292 -0.2726
15490SOL    HW148624   4.277   9.045   5.637  1.7895  0.1709 -0.4432
15490SOL    HW248625   4.241   8.986   5.772  0.7269  1.0404 -0.3382
15491SOL     OW48626   1.307   5.444   4.129 -0.3673 -0.5893 -0.0457
15491SOL    HW148627   1.354   5.466   4.049 -1.5632 -1.3296 -1.0023
15491SOL    HW248628   1.343   5.360   4.156  1.5347  0.6379  1.4518
15492SOL     OW48629   4.288   2.417   4.133  0.0316 -0.2481 -0.9765
15492SOL    HW148630   4.346   2.476   4.086  0.1938 -0.2478 -0.7786
15492SOL    HW248631   4.343   2.342   4.156  0.4565  0.5469  0.7931
15493SOL     OW48632   0.557   7.888   6.939 -0.4674  0.8036 -0.5447
15493SOL    HW148633   0.485   7.877   7.001 -0.5254 -0.0366 -0.7576
15493SOL    HW248634   0.571   7.801   6.902  0.3619  1.0515 -0.8336
15494SOL     OW48635   4.646   6.710   7.520 -0.6180  0.5525 -0.1700
15494SOL    HW148636   4.698   6.642   7.563  2.1875  1.7144 -1.4862
15494SOL    HW248637   4.634   6.678   7.431 -0.6952  1.0557 -0.3423
15495SOL     OW48638   2.836   0.121   6.603 -0.3586  0.1277 -0.2345
15495SOL    HW148639   2.886   0.203   6.604  0.0817 -0.0752  2.9530
15495SOL    HW248640   2.901   0.053   6.621 -1.1355 -0.6387 -0.2760
15496SOL     OW48641   1.311   2.808   7.773  0.1394 -0.0221  0.0948
15496SOL    HW148642   1.306   2.738   7.838 -1.5353 -1.5177 -1.5226
15496SOL    HW248643   1.390   2.789   7.723  1.4334  1.1329  1.5705
15497SOL     OW48644   4.289   1.874   4.705  0.5554 -0.3060 -0.0319
15497SOL    HW148645   4.266   1.816   4.777  1.5082 -1.3312 -0.5357
15497SOL    HW248646   4.378   1.903   4.724  0.2355  0.6990  0.0073
15498SOL     OW48647   3.120   6.678   2.856  0.0674 -0.1736 -0.2955
15498SOL    HW148648   3.165   6.762   2.864  0.7154 -0.4148 -1.2384
15498SOL    HW248649   3.096   6.654   2.945 -1.1084  1.5341 -0.1027
15499SOL     OW48650   3.188   2.149   4.529  0.4191  0.5935 -0.0419
15499SOL    HW148651   3.094   2.135   4.522 -0.0021  2.9173  0.4638
15499SOL    HW248652   3.209   2.133   4.621  1.0548 -2.4264 -0.5909
15500SOL     OW48653   7.503   2.747   6.491 -0.6101 -0.4808 -0.1481
15500SOL    HW148654   7.532   2.824   6.443 -2.0171  0.1907  0.0283
15500SOL    HW248655   7.557   2.676   6.457  2.2508  0.8815  1.1825
15501SOL     OW48656   2.074   5.369   7.727 -0.3560 -0.2089 -0.2183
15501SOL    HW148657   2.003   5.344   7.786 -0.6060 -0.7954 -0.7560
15501SOL    HW248658   2.031   5.424   7.661 -0.1182  0.2722  0.0277
15502SOL     OW48659   7.900   3.458   7.475 -0.0067  0.0764  0.2607
15502SOL    HW148660   7.916   3.481   7.567 -1.2611 -0.0014  0.5214
15502SOL    HW248661   7.856   3.535   7.438  2.8518  1.2205 -1.0525
15503SOL     OW48662   6.708   4.693   6.232 -0.0149 -0.1893  0.0990
15503SOL    HW148663   6.698   4.775   6.281  1.2691  0.1039 -0.0993
15503SOL    HW248664   6.792   4.659   6.260 -0.2076 -1.0736 -0.3797
15504SOL     OW48665   1.719   3.153   3.421 -0.4426  0.0079 -0.7723
15504SOL    HW148666   1.667   3.137   3.342  0.9233  1.5323 -2.0312
15504SOL    HW248667   1.810   3.146   3.393  0.0904 -0.4452  0.9165
15505SOL     OW48668   5.100   0.349   5.613 -0.1657 -0.4394 -0.2058
15505SOL    HW148669   5.191   0.336   5.640  0.0610  1.1822 -0.0982
15505SOL    HW248670   5.099   0.437   5.574 -1.3871 -1.0249 -1.5592
15506SOL     OW48671   9.423   5.982   6.783 -0.2153  0.5332 -0.1648
15506SOL    HW148672   9.334   6.005   6.811 -0.6783 -1.7936  0.4810
15506SOL    HW248673   9.479   6.039   6.836 -1.2809  1.0689  0.4340
15507SOL     OW48674   9.420   9.103   1.198 -0.1186  0.9005  0.3391
15507SOL    HW148675   9.444   9.027   1.145 -3.3461 -0.2924  0.4082
15507SOL    HW248676   9.458   9.178   1.151 -0.4519 -0.3715 -2.1252
15508SOL     OW48677   5.030   3.047   3.252  0.1930  0.5121 -0.5347
15508SOL    HW148678   5.048   3.057   3.346  0.9043  0.5362 -0.6654
15508SOL    HW248679   4.975   3.123   3.230 -1.4333 -0.4184  0.2087
15509SOL     OW48680   0.894   3.429   3.062 -0.0859  0.1685  0.6496
15509SOL    HW148681   0.902   3.454   2.970 -0.1872 -0.4471  0.4662
15509SOL    HW248682   0.965   3.475   3.106  0.1189  0.2692  0.2185
15510SOL     OW48683   4.449   8.095   1.331  0.0718  0.1491 -0.1395
15510SOL    HW148684   4.432   8.110   1.238  0.8652  1.8695 -0.0684
15510SOL    HW248685   4.545   8.102   1.339  0.0444 -0.3141  0.7525
15511SOL     OW48686   8.243   6.209   4.656  0.4783  0.1937  0.4478
15511SOL    HW148687   8.161   6.183   4.614  0.5215  0.8124 -0.0473
15511SOL    HW248688   8.222   6.217   4.749 -0.1326  0.7555  0.2646
15512SOL     OW48689   1.949   5.927   5.807  0.4735 -0.0985  0.3650
15512SOL    HW148690   1.956   6.020   5.827 -0.9175 -0.2612  1.7711
15512SOL    HW248691   1.894   5.923   5.728  1.3196  0.2899 -0.2609
15513SOL     OW48692   5.253   8.086   3.539 -0.6502 -0.7968  0.5818
15513SOL    HW148693   5.175   8.091   3.484  0.3548  0.5903 -0.8063
15513SOL    HW248694   5.240   8.152   3.606  0.1723  0.9463 -0.8870
15514SOL     OW48695   0.236   1.699   9.461 -0.2648  0.0369  0.1860
15514SOL    HW148696   0.248   1.656   9.377 -0.3715 -1.4742  0.9067
15514SOL    HW248697   0.317   1.748   9.475  1.4693 -2.7739  0.8987
15515SOL     OW48698   1.922   1.113   7.145  0.2203 -0.0114  0.0721
15515SOL    HW148699   1.967   1.118   7.061 -1.5456  2.6604 -0.8314
15515SOL    HW248700   1.973   1.170   7.203  0.7181 -0.8623  0.4984
15516SOL     OW48701   2.211   7.678   9.596 -0.2382  0.0496  0.1558
15516SOL    HW148702   2.199   7.758   9.544  0.7378  1.4663  1.9735
15516SOL    HW248703   2.285   7.634   9.554  1.0345  1.5592  0.6815
15517SOL     OW48704   8.971   6.238   6.019 -0.1526 -0.5602 -0.1230
15517SOL    HW148705   8.997   6.280   5.937 -1.6854 -1.1278 -0.9391
15517SOL    HW248706   8.919   6.305   6.064 -1.9095 -1.2463 -1.0537
15518SOL     OW48707   5.722   4.690   2.349 -0.2477 -0.1411 -0.5822
15518SOL    HW148708   5.643   4.681   2.402  0.1665  0.9181  0.2603
15518SOL    HW248709   5.717   4.779   2.314  1.7025  0.8716  1.4679
15519SOL     OW48710   2.469   6.897   6.641  0.1609  0.0146 -0.0370
15519SOL    HW148711   2.438   6.981   6.674  0.6804 -0.0617  0.6681
15519SOL    HW248712   2.469   6.907   6.545  0.0199  0.7434  0.0341
15520SOL     OW48713   1.360   3.977   3.569 -0.3485 -0.3663 -0.3548
15520SOL    HW148714   1.367   4.058   3.619 -2.1197  0.1867 -0.9150
15520SOL    HW248715   1.306   3.919   3.622 -2.1407  0.1815 -1.4929
15521SOL     OW48716   3.699   3.390   8.350 -0.6325 -0.3887  0.0654
15521SOL    HW148717   3.608   3.362   8.363 -0.1642 -1.9386  0.2070
15521SOL    HW248718   3.712   3.458   8.416 -1.9260  0.4609 -0.5075
15522SOL     OW48719   3.534   1.453   6.056  0.1741  0.2517 -0.1119
15522SOL    HW148720   3.603   1.401   6.098  1.0137  1.3192 -0.1253
15522SOL    HW248721   3.582   1.516   6.002 -0.8485  0.2878 -1.0129
15523SOL     OW48722   0.601   6.484   7.935  0.0701 -0.6984  0.5497
15523SOL    HW148723   0.609   6.461   7.843 -0.2595 -1.3896  0.6875
15523SOL    HW248724   0.516   6.528   7.942 -0.7644 -2.2675  0.8215
15524SOL     OW48725   7.120   0.091   7.076 -0.3980 -0.6204  0.0569
15524SOL    HW148726   7.084   0.042   7.001  2.0176 -1.9177 -0.3806
15524SOL    HW248727   7.206   0.119   7.046 -0.6400  1.6644  1.2960
15525SOL     OW48728   2.820   4.375   6.789  0.8896 -0.7006 -0.2884
15525SOL    HW148729   2.813   4.420   6.873 -0.3189 -1.2055 -0.0966
15525SOL    HW248730   2.893   4.419   6.745  1.2199 -0.0978  0.8124
15526SOL     OW48731   8.742   6.276   4.931  0.3836 -0.1082  0.1216
15526SOL    HW148732   8.656   6.297   4.896  1.2048  1.2606 -1.1589
15526SOL    HW248733   8.759   6.345   4.995  1.2662  0.6976 -0.9487
15527SOL     OW48734   5.478   8.861   5.360  0.1541  1.1254  0.8004
15527SOL    HW148735   5.440   8.787   5.407 -0.2384  0.9096  0.1476
15527SOL    HW248736   5.503   8.923   5.429 -1.2686  1.2270  1.2395
15528SOL     OW48737   1.833   4.855   2.160  0.3625  0.5885 -0.0232
15528SOL    HW148738   1.775   4.843   2.085  0.3121  0.6347  0.0075
15528SOL    HW248739   1.895   4.922   2.132 -0.0244  1.0424  0.1834
15529SOL     OW48740   7.633   2.520   2.953  0.5581  0.2515  0.1527
15529SOL    HW148741   7.610   2.486   3.040 -1.3593  1.6897  0.2900
15529SOL    HW248742   7.725   2.544   2.960  0.1248  1.6476  2.3117
15530SOL     OW48743   8.222   2.704   4.827 -0.3501 -0.8442 -0.1498
15530SOL    HW148744   8.129   2.694   4.845 -0.2619  0.5281  1.1887
15530SOL    HW248745   8.226   2.762   4.751 -0.5764 -0.3136  0.2429
15531SOL     OW48746   6.206   6.209   8.850 -0.1037 -0.1056 -0.7665
15531SOL    HW148747   6.242   6.214   8.762  0.1971 -0.8070 -0.6908
15531SOL    HW248748   6.262   6.266   8.903 -1.2889  1.6572 -1.3354
15532SOL     OW48749   2.106   9.569   3.979 -0.0057  0.0683  0.2972
15532SOL    HW148750   2.196   9.600   3.990  0.1455 -0.1604 -0.2806
15532SOL    HW248751   2.095   9.504   4.048  0.7013 -0.8370 -0.4284
15533SOL     OW48752   0.262   8.585   5.229  0.0582  0.2753  0.0013
15533SOL    HW148753   0.290   8.528   5.300 -0.0421 -0.8340 -0.8213
15533SOL    HW248754   0.336   8.645   5.216  0.4699 -0.1369  0.3905
15534SOL     OW48755   5.386   6.970   5.554 -0.5841  0.0185  0.0358
15534SOL    HW148756   5.352   6.894   5.506 -0.0547  0.0262 -0.3610
15534SOL    HW248757   5.411   6.935   5.640 -3.3953  0.3734  1.1188
15535SOL     OW48758   2.387   1.535   5.544 -0.0985  0.1597 -0.3490
15535SOL    HW148759   2.370   1.504   5.633  1.1593  1.2121  0.2879
15535SOL    HW248760   2.481   1.552   5.542 -0.3465  1.5797 -1.4046
15536SOL     OW48761   9.257   4.292   6.240 -0.3704  0.4964 -0.4747
15536SOL    HW148762   9.286   4.383   6.251  0.9199  0.1224 -0.5706
15536SOL    HW248763   9.246   4.259   6.329  0.6188  0.3258 -0.3992
15537SOL     OW48764   7.419   4.847   4.805 -0.0547  0.3854 -0.0882
15537SOL    HW148765   7.497   4.902   4.799  0.5592 -0.3896  0.4904
15537SOL    HW248766   7.346   4.908   4.809  0.5946  1.1481  0.3657
15538SOL     OW48767   7.599   0.440   8.956 -0.1495 -0.2112 -0.6163
15538SOL    HW148768   7.599   0.386   9.035 -0.3480 -1.5565 -1.4943
15538SOL    HW248769   7.546   0.516   8.978  0.3418 -0.2368  0.7442
15539SOL     OW48770   9.262   8.334   9.075  0.0252  0.4073 -0.5448
15539SOL    HW148771   9.324   8.261   9.080 -0.1377  0.3375  0.7739
15539SOL    HW248772   9.308   8.400   9.023  1.6209  0.7233  1.1931
15540SOL     OW48773   9.161   5.474   5.110 -0.0177 -0.2185  0.1636
15540SOL    HW148774   9.209   5.395   5.084  1.1328  1.2092 -2.4936
15540SOL    HW248775   9.178   5.536   5.039 -2.3539  1.8323  1.2703
15541SOL     OW48776   9.595   2.754   8.651 -0.7174 -0.0089  0.6705
15541SOL    HW148777   9.680   2.713   8.637 -0.9806 -0.0158 -1.1800
15541SOL    HW248778   9.609   2.815   8.724  0.4175 -1.2474  1.5225
15542SOL     OW48779   3.482   6.203   8.005  0.0006  0.5239  0.2604
15542SOL    HW148780   3.563   6.152   8.006 -0.2140  0.1835  0.3909
15542SOL    HW248781   3.415   6.142   7.973  0.1757  1.3796 -1.9112
15543SOL     OW48782   7.150   1.323   8.360 -0.3531 -0.4182 -0.1800
15543SOL    HW148783   7.233   1.371   8.356 -0.5763 -0.0183 -0.0668
15543SOL    HW248784   7.143   1.279   8.276 -1.0488  1.2709 -1.0665
15544SOL     OW48785   1.041   4.934   8.612 -0.1308 -0.1721  0.5045
15544SOL    HW148786   1.006   5.014   8.650  1.3777  0.4902  0.5823
15544SOL    HW248787   0.983   4.864   8.643 -1.4756  0.8779  0.4140
15545SOL     OW48788   0.659   1.585   0.659  0.2116  0.0683  0.3309
15545SOL    HW148789   0.684   1.541   0.578  0.2338 -0.1500  0.4531
15545SOL    HW248790   0.724   1.654   0.671 -0.7590  1.1972 -0.7094
15546SOL     OW48791   6.597   1.950   9.095 -0.2420  0.4476 -0.1328
15546SOL    HW148792   6.649   1.877   9.063 -1.9514 -0.6161 -0.5953
15546SOL    HW248793   6.653   1.992   9.160  1.4536 -0.1974 -1.1060
15547SOL     OW48794   2.246   2.273   3.233 -0.1325  0.3189  0.4565
15547SOL    HW148795   2.222   2.312   3.317 -1.2107 -0.8037  0.7019
15547SOL    HW248796   2.195   2.322   3.168 -0.0608  0.5372  0.5650
15548SOL     OW48797   5.759   0.353   3.472  0.4581 -0.1537 -0.3055
15548SOL    HW148798   5.756   0.274   3.417 -2.1232 -0.3817  0.0279
15548SOL    HW248799   5.684   0.405   3.442  0.4858  0.8813  1.3224
15549SOL     OW48800   8.473   8.572   9.219  0.1334 -0.4326 -0.4697
15549SOL    HW148801   8.392   8.521   9.218 -0.0115 -0.1901 -1.5592
15549SOL    HW248802   8.506   8.562   9.309 -1.4663  0.0566  0.2028
15550SOL     OW48803   3.219   7.086   0.023 -0.2439  0.1002 -0.2035
15550SOL    HW148804   3.284   7.057  -0.042 -0.2772 -0.6329  0.0772
15550SOL    HW248805   3.191   7.172  -0.008 -0.5362 -0.3905 -1.3728
15551SOL     OW48806   0.420   1.879   0.089  0.1532 -0.3968 -0.0384
15551SOL    HW148807   0.390   1.938   0.158  0.4496  0.6480 -0.7726
15551SOL    HW248808   0.403   1.926   0.008 -2.5989 -2.6428 -0.9116
15552SOL     OW48809   4.585   7.175   0.099 -0.2508 -0.0984  0.2808
15552SOL    HW148810   4.601   7.270   0.094  1.4998 -0.3363  0.9379
15552SOL    HW248811   4.558   7.160   0.189  0.1917 -0.3352  0.3726
15553SOL     OW48812   1.794   7.462   0.536 -0.2012  0.1726 -0.6297
15553SOL    HW148813   1.824   7.494   0.451  0.2247  0.0845 -0.5120
15553SOL    HW248814   1.849   7.385   0.553 -0.6506 -0.1296 -0.5232
15554SOL     OW48815   3.678   7.178   6.726  0.1542 -0.8221  0.2696
15554SOL    HW148816   3.713   7.092   6.707  2.0873 -0.4085  1.6237
15554SOL    HW248817   3.710   7.198   6.814  0.0252  1.3956 -0.1256
15555SOL     OW48818   7.936   4.784   0.975 -0.6427  0.0600 -0.6892
15555SOL    HW148819   7.853   4.771   1.019 -0.2535 -0.3042 -0.0483
15555SOL    HW248820   7.994   4.822   1.041  0.8641 -3.3045  0.1384
15556SOL     OW48821   6.952   7.011   4.722 -0.2725  0.3283  0.2056
15556SOL    HW148822   7.045   7.003   4.744 -0.3226  0.5293  0.5077
15556SOL    HW248823   6.936   7.106   4.720 -0.9358  0.3244  2.2715
15557SOL     OW48824   4.277   7.754   3.278  0.3632  0.1988 -0.1711
15557SOL    HW148825   4.264   7.662   3.254  1.7811 -0.1601  0.3136
15557SOL    HW248826   4.252   7.758   3.371 -2.2958  0.9389 -0.8313
15558SOL     OW48827   2.245   2.200   6.012  0.3808  0.4022  0.2937
15558SOL    HW148828   2.302   2.246   5.950  1.2462  0.6837  1.2692
15558SOL    HW248829   2.163   2.248   6.008  0.4620  0.4866 -0.5462
15559SOL     OW48830   4.321   6.959   6.946 -0.0145 -0.4114 -0.2249
15559SOL    HW148831   4.266   6.881   6.953  0.2726 -0.5039  1.2262
15559SOL    HW248832   4.280   7.023   7.003 -0.4937  0.6877 -1.7395
15560SOL     OW48833   1.069   7.345   7.909  0.0393 -0.0154 -0.2699
15560SOL    HW148834   1.055   7.351   7.814  2.6254  1.8037 -0.6260
15560SOL    HW248835   1.163   7.328   7.918 -0.3166 -1.1502  1.9946
15561SOL     OW48836   6.903   4.224   0.344  0.1034  0.3844 -0.2514
15561SOL    HW148837   6.948   4.185   0.419 -1.2081 -0.2580  0.2405
15561SOL    HW248838   6.945   4.309   0.332 -0.4712  1.0418  2.0130
15562SOL     OW48839   4.867   1.459   2.485 -0.7637  0.2047  0.2530
15562SOL    HW148840   4.957   1.427   2.479 -1.2354 -0.9419 -1.7044
15562SOL    HW248841   4.847   1.458   2.578  1.1892  0.3684  0.7253
15563SOL     OW48842   7.709   5.350   9.397 -0.3917 -0.4659 -0.6872
15563SOL    HW148843   7.802   5.370   9.389 -0.6421  0.7424 -0.8646
15563SOL    HW248844   7.702   5.256   9.379  1.1899 -1.3222  2.5192
15564SOL     OW48845   0.497   9.479   0.362 -0.1263 -0.2473  0.3216
15564SOL    HW148846   0.516   9.464   0.454 -0.1003  1.2184  0.5723
15564SOL    HW248847   0.474   9.572   0.356 -1.1255 -0.5427 -0.9875
15565SOL     OW48848   5.825   7.481   5.280 -0.1303 -0.3025 -0.2458
15565SOL    HW148849   5.747   7.448   5.326 -0.5998  2.4867  1.1548
15565SOL    HW248850   5.791   7.511   5.195 -0.2087 -0.8195 -0.4014
15566SOL     OW48851   5.740   5.289   9.088 -0.1273 -0.4548 -0.0993
15566SOL    HW148852   5.666   5.342   9.058  0.4489  0.1855 -0.4212
15566SOL    HW248853   5.705   5.200   9.092 -1.2351 -0.0052  0.8529
15567SOL     OW48854   8.571   6.956   5.763  0.1946 -0.5929  0.1931
15567SOL    HW148855   8.498   6.979   5.820  0.1791  1.8810 -0.6915
15567SOL    HW248856   8.649   6.983   5.812  0.3685 -1.0462  0.1725
15568SOL     OW48857   2.107   7.255   8.824  0.4212 -0.1842 -0.6808
15568SOL    HW148858   2.049   7.264   8.748  0.9902 -0.8526 -1.2040
15568SOL    HW248859   2.189   7.223   8.788  0.8910  0.0450  0.1540
15569SOL     OW48860   7.632   9.129   6.634 -0.9584  0.5728  0.5268
15569SOL    HW148861   7.621   9.138   6.729 -0.4423 -3.4198  1.1149
15569SOL    HW248862   7.554   9.081   6.606  0.2908 -0.9146 -0.5127
15570SOL     OW48863   5.225   7.447   9.570 -0.2131  0.0486  0.2024
15570SOL    HW148864   5.260   7.510   9.634 -0.7593  0.5931 -0.0184
15570SOL    HW248865   5.168   7.390   9.621 -3.1910  2.3942 -0.1709
15571SOL     OW48866   4.822   7.964   6.255 -0.0872 -0.1589 -0.0852
15571SOL    HW148867   4.737   7.998   6.283  0.3389  1.5733 -0.7185
15571SOL    HW248868   4.815   7.869   6.266 -1.6913  0.0306  0.9410
15572SOL     OW48869   4.334   9.168   7.965  0.2763  0.4525 -0.0787
15572SOL    HW148870   4.281   9.241   7.935  1.0958  1.3855  0.6703
15572SOL    HW248871   4.271   9.103   7.996 -0.5075  0.3043 -1.8674
15573SOL     OW48872   3.483   0.533   6.967  0.4513  0.0418  0.4501
15573SOL    HW148873   3.413   0.587   7.005  0.9084  1.4505 -0.6311
15573SOL    HW248874   3.448   0.444   6.969 -1.1645  0.6450  0.4309
15574SOL     OW48875   8.887   3.310   7.586 -0.3262  0.4812 -0.9347
15574SOL    HW148876   8.920   3.361   7.511 -1.6337  1.9816 -0.5365
15574SOL    HW248877   8.793   3.303   7.570 -0.9748  2.4786  1.4401
15575SOL     OW48878   3.185   0.982   7.711  0.2704 -0.5149 -0.4845
15575SOL    HW148879   3.211   0.945   7.627  2.5385  0.4685 -0.2949
15575SOL    HW248880   3.259   1.037   7.736 -1.6679  1.7614  0.6396
15576SOL     OW48881   2.095   2.700   7.349 -0.1869 -0.3829 -0.9085
15576SOL    HW148882   2.084   2.648   7.429  0.3909  0.6008 -0.1655
15576SOL    HW248883   2.113   2.789   7.381  1.3404 -0.2206 -2.1213
15577SOL     OW48884   5.441   4.587   0.876 -0.4932 -0.3273 -0.3393
15577SOL    HW148885   5.385   4.513   0.899  0.2081 -1.5536 -2.3214
15577SOL    HW248886   5.528   4.562   0.907 -0.2834 -0.2665 -0.8723
15578SOL     OW48887   6.337   2.314   8.122  0.2236  0.0428  0.8966
15578SOL    HW148888   6.368   2.384   8.064 -0.0926 -0.0440  0.6196
15578SOL    HW248889   6.387   2.326   8.203  0.4402  0.3593  0.7196
15579SOL     OW48890   0.921   6.096   6.376 -0.1408  0.1342  0.0045
15579SOL    HW148891   0.991   6.105   6.440  0.0150  1.7657 -0.3509
15579SOL    HW248892   0.926   6.176   6.323 -1.3854 -0.3546 -0.9077
15580SOL     OW48893   4.557   6.452   5.864 -0.9651 -0.0978 -0.5035
15580SOL    HW148894   4.558   6.357   5.850  0.1443 -0.0051 -1.1431
15580SOL    HW248895   4.617   6.487   5.798 -2.6388  1.2256 -1.3913
15581SOL     OW48896   7.035   7.237   7.353 -0.6669  0.7183  0.1200
15581SOL    HW148897   7.093   7.183   7.407 -1.0703 -1.1184 -1.1482
15581SOL    HW248898   7.084   7.317   7.336  1.2170 -0.4489 -0.2638
15582SOL     OW48899   4.219   0.851   5.651  0.0555 -0.3497  0.2591
15582SOL    HW148900   4.244   0.929   5.700  0.0788 -0.1496 -0.0641
15582SOL    HW248901   4.195   0.787   5.718  1.9949 -0.7564  0.6299
15583SOL     OW48902   9.297   6.699   7.563  0.0437 -0.1440 -0.3588
15583SOL    HW148903   9.292   6.608   7.592  2.5109  0.1938  1.4147
15583SOL    HW248904   9.254   6.698   7.477 -2.2400 -2.4150  0.6401
15584SOL     OW48905   4.479   6.238   1.476 -0.4838 -0.0684  0.0313
15584SOL    HW148906   4.407   6.301   1.466  0.5663  1.2762  0.6265
15584SOL    HW248907   4.463   6.198   1.561 -1.5545 -1.1672 -0.6583
15585SOL     OW48908   2.854   5.810   6.969 -0.5707 -0.0636 -0.4925
15585SOL    HW148909   2.858   5.766   6.885 -2.2775  1.3000 -1.3729
15585SOL    HW248910   2.875   5.902   6.949 -0.4330  0.1718  0.6521
15586SOL     OW48911   1.553   3.741   4.077 -0.4296  0.1985 -0.0675
15586SOL    HW148912   1.638   3.708   4.048  1.0713  1.4089  2.5205
15586SOL    HW248913   1.554   3.729   4.172 -3.3741 -0.0947  0.0193
15587SOL     OW48914   2.952   2.395   2.020 -0.2751  0.4599 -0.0596
15587SOL    HW148915   2.900   2.315   2.015  0.3576  0.0603 -0.3336
15587SOL    HW248916   3.040   2.366   2.044  0.4808  0.8296 -2.1003
15588SOL     OW48917   5.598   6.735   7.319 -0.0788 -0.0094 -0.3508
15588SOL    HW148918   5.512   6.695   7.306  0.3969 -0.7592 -1.3328
15588SOL    HW248919   5.661   6.664   7.305  0.7063  0.4052  0.8335
15589SOL     OW48920   7.537   7.803   8.205  0.0368  0.0650 -0.9471
15589SOL    HW148921   7.594   7.879   8.219 -0.4178  0.2313  0.1433
15589SOL    HW248922   7.510   7.778   8.293 -1.2861 -0.2318 -1.4192
15590SOL     OW48923   0.192   6.262   3.542 -0.0530 -0.2293  0.5138
15590SOL    HW148924   0.269   6.208   3.560 -0.4066 -0.3560  1.7843
15590SOL    HW248925   0.218   6.351   3.567 -0.4050 -0.3250  1.2532
15591SOL     OW48926   1.662   6.808   0.430 -0.4344  0.2961  0.4131
15591SOL    HW148927   1.663   6.887   0.377 -2.5531  0.0221 -0.1232
15591SOL    HW248928   1.587   6.758   0.397  0.4002 -1.5849  1.2431
15592SOL     OW48929   8.969   7.783   8.388 -0.4151  0.1756  0.4316
15592SOL    HW148930   8.877   7.775   8.363 -0.6041 -0.6589  1.3308
15592SOL    HW248931   9.013   7.715   8.336 -0.5976 -0.6283  1.2982
15593SOL     OW48932   5.591   6.203   8.306 -0.5383  0.1016 -0.1438
15593SOL    HW148933   5.665   6.144   8.289  0.8172  1.6148  0.2122
15593SOL    HW248934   5.631   6.290   8.312 -2.1460  0.7698  1.7803
15594SOL     OW48935   1.044   4.315   7.886 -0.5962 -0.1940 -0.5493
15594SOL    HW148936   1.111   4.257   7.922 -1.1921 -0.5896 -0.0670
15594SOL    HW248937   0.962   4.266   7.893 -1.0730  0.5970 -0.3664
15595SOL     OW48938   0.878   5.771   4.934  0.1251 -0.1631  0.0840
15595SOL    HW148939   0.972   5.764   4.916 -0.0671  0.3640 -1.2097
15595SOL    HW248940   0.852   5.683   4.962  1.1831 -0.0846  1.4658
15596SOL     OW48941   8.451   7.216   2.112  0.1386 -0.7328  0.0799
15596SOL    HW148942   8.364   7.197   2.075  0.7180  0.2234 -1.8804
15596SOL    HW248943   8.483   7.131   2.143 -0.8062 -1.3875 -0.6956
15597SOL     OW48944   1.660   7.201   5.079 -0.1637 -0.9210  0.2666
15597SOL    HW148945   1.640   7.295   5.077  1.6114 -0.4839 -1.5858
15597SOL    HW248946   1.618   7.167   5.000  0.4043 -1.3710  0.1555
15598SOL     OW48947   8.218   4.297   8.499 -0.4866 -0.8084  0.4977
15598SOL    HW148948   8.210   4.389   8.475  1.3733 -0.5388  0.7592
15598SOL    HW248949   8.139   4.279   8.549 -1.2100  0.4467 -0.1219
15599SOL     OW48950   0.043   9.366   9.025 -0.6115  0.2634 -0.1761
15599SOL    HW148951   0.135   9.356   9.047 -0.5907 -0.1904 -0.4559
15599SOL    HW248952   0.026   9.460   9.035 -1.3335 -0.0965  4.6228
15600SOL     OW48953   5.289   6.573   3.928  0.7829  0.5965  0.3478
15600SOL    HW148954   5.302   6.616   3.843  0.0121  1.8331  0.8289
15600SOL    HW248955   5.261   6.484   3.906 -2.7252  1.8283 -0.7995
15601SOL     OW48956   1.619   8.844   5.937 -0.2636  0.1958  0.1165
15601SOL    HW148957   1.670   8.869   6.013  2.5359 -0.7857 -1.3000
15601SOL    HW248958   1.578   8.925   5.907  1.4265  1.3153  0.6763
15602SOL     OW48959   6.882   0.882   4.129 -0.7752 -0.2468 -0.0062
15602SOL    HW148960   6.798   0.884   4.174 -0.2222 -1.7503  1.1872
15602SOL    HW248961   6.947   0.883   4.199  0.2141  0.3757 -0.8873
15603SOL     OW48962   7.543   2.098   6.177 -0.2417  0.0903  0.3548
15603SOL    HW148963   7.606   2.080   6.107 -0.7781 -1.3824  0.2149
15603SOL    HW248964   7.587   2.068   6.257 -0.3101  0.1335  0.4085
15604SOL     OW48965   4.573   2.158   1.709  0.5041 -0.2320  0.0332
15604SOL    HW148966   4.563   2.070   1.747  0.9648 -0.4495 -0.3376
15604SOL    HW248967   4.514   2.213   1.760  0.3406 -0.7250  0.3845
15605SOL     OW48968   2.115   2.986   1.821 -0.0276  0.4607  0.6857
15605SOL    HW148969   2.091   2.894   1.812  0.6062  0.3906 -0.3931
15605SOL    HW248970   2.205   2.984   1.856  1.2324  0.5657 -2.2747
15606SOL     OW48971   6.593   2.894   0.645  0.5783 -0.3998 -0.2113
15606SOL    HW148972   6.588   2.821   0.583 -0.0448  0.5413 -1.3006
15606SOL    HW248973   6.508   2.893   0.690  0.4969 -0.2323 -0.3613
15607SOL     OW48974   6.072   7.141   2.654  0.2563  0.0854 -0.0087
15607SOL    HW148975   6.030   7.204   2.595  0.0547 -1.2264 -1.3339
15607SOL    HW248976   6.000   7.093   2.692  0.4615 -0.6377 -0.5164
15608SOL     OW48977   2.950   6.052   4.602 -0.2096 -0.1318  0.2979
15608SOL    HW148978   2.872   6.024   4.650 -0.4586  1.1213  0.6722
15608SOL    HW248979   3.019   5.993   4.632 -0.8386 -0.7372  0.5790
15609SOL     OW48980   8.266   6.454   2.932 -0.6971 -0.9951  0.1992
15609SOL    HW148981   8.195   6.514   2.910  0.4491 -0.0645 -1.1611
15609SOL    HW248982   8.241   6.371   2.891 -0.1858 -0.1714 -1.9585
15610SOL     OW48983   4.257   5.588   3.759  0.2475 -0.0463  0.1985
15610SOL    HW148984   4.251   5.655   3.690  0.6576 -1.3466 -1.1404
15610SOL    HW248985   4.168   5.554   3.766 -0.1471  1.1417  1.4556
15611SOL     OW48986   4.404   7.820   7.770  0.2296  0.4749 -0.0219
15611SOL    HW148987   4.415   7.882   7.842  0.3264 -0.9682  1.2307
15611SOL    HW248988   4.313   7.793   7.776  0.0106  0.9475 -0.9726
15612SOL     OW48989   7.785   6.729   5.983 -0.2291  0.0759  0.3199
15612SOL    HW148990   7.744   6.814   5.963  2.3600  1.1572 -0.8815
15612SOL    HW248991   7.726   6.665   5.944 -0.8603  1.5321 -1.2857
15613SOL     OW48992   3.245   2.558   6.415 -0.2259 -0.1296  0.0084
15613SOL    HW148993   3.281   2.598   6.335 -1.0507  0.0484 -0.2771
15613SOL    HW248994   3.321   2.550   6.473  0.1343  0.9960 -0.2750
15614SOL     OW48995   3.169   8.111   7.330 -0.0832  0.3117  0.0974
15614SOL    HW148996   3.244   8.169   7.318  1.1167 -1.4451 -1.3730
15614SOL    HW248997   3.099   8.152   7.279  0.4425  0.9409 -0.1423
15615SOL     OW48998   9.092   8.931   9.139  0.0340 -0.2969  0.3436
15615SOL    HW148999   9.094   8.866   9.210  0.6454  0.6426  1.2075
15615SOL    HW249000   9.173   8.915   9.090  0.9254  0.7288  1.4262
15616SOL     OW49001   1.468   7.681   4.249 -0.4904  0.2472 -0.5564
15616SOL    HW149002   1.544   7.665   4.194  0.6942 -2.9521  1.7007
15616SOL    HW249003   1.429   7.594   4.262 -0.8485  0.8129  3.2741
15617SOL     OW49004   0.460   6.925   5.465 -0.4147  0.1078  0.1749
15617SOL    HW149005   0.549   6.927   5.502 -0.1965  0.6538 -0.3806
15617SOL    HW249006   0.464   6.981   5.388 -0.7677 -1.3239 -0.9258
15618SOL     OW49007   4.522   3.668   0.726  0.1007  0.2817  0.1584
15618SOL    HW149008   4.581   3.742   0.725 -0.7796  1.0579  2.1047
15618SOL    HW249009   4.572   3.597   0.765  0.8060 -0.0711 -1.3217
15619SOL     OW49010   3.617   1.046   2.404  0.0184 -0.4716 -0.0014
15619SOL    HW149011   3.631   1.039   2.498 -1.0302 -1.8264  0.0851
15619SOL    HW249012   3.544   0.986   2.386  1.9001 -2.3380 -2.0782
15620SOL     OW49013   0.921   5.733   5.506 -0.4368  0.0416 -0.6401
15620SOL    HW149014   0.835   5.760   5.474 -0.2162  0.0427 -1.2627
15620SOL    HW249015   0.908   5.713   5.598 -1.5124 -1.6980 -1.1194
15621SOL     OW49016   2.041   3.965   8.769 -0.1916 -0.0386 -0.0804
15621SOL    HW149017   2.105   3.985   8.837  0.4119 -0.7154 -0.4342
15621SOL    HW249018   2.004   3.881   8.795 -0.5919  0.1196 -0.1319
15622SOL     OW49019   5.689   5.474   3.672 -0.0239  0.2850  0.2744
15622SOL    HW149020   5.611   5.419   3.679  0.1091  0.1726  1.0036
15622SOL    HW249021   5.655   5.563   3.672 -0.1698  0.2305  0.3295
15623SOL     OW49022   6.524   0.351   1.548  0.2117 -0.7019 -0.5941
15623SOL    HW149023   6.463   0.421   1.569  0.8527  0.1668 -1.5271
15623SOL    HW249024   6.581   0.345   1.624  0.1714 -0.1838 -0.5188
15624SOL     OW49025   5.313   9.407   4.707  0.9507  0.0114 -0.1322
15624SOL    HW149026   5.375   9.356   4.655  0.4275 -3.1516  2.0547
15624SOL    HW249027   5.364   9.482   4.740  2.0766  0.3959 -2.5695
15625SOL     OW49028   8.273   8.089   3.941 -0.0095 -0.1142  0.5084
15625SOL    HW149029   8.249   8.146   4.014 -2.7127  0.9054 -1.0133
15625SOL    HW249030   8.335   8.140   3.890  2.3923 -1.0812  2.3097
15626SOL     OW49031   8.414   0.091   7.446 -0.1250  0.3602  0.4008
15626SOL    HW149032   8.352   0.049   7.505  0.1571  0.2451  0.6173
15626SOL    HW249033   8.414   0.036   7.368 -0.3996  0.4400  0.3429
15627SOL     OW49034   5.019   1.361   3.034  0.3003  0.2323  0.3664
15627SOL    HW149035   5.065   1.395   2.958  0.7701 -1.7549 -0.3082
15627SOL    HW249036   4.959   1.295   2.998  0.0236 -0.2412  1.6459
15628SOL     OW49037   1.693   6.088   3.640  0.3495 -0.2397  0.0490
15628SOL    HW149038   1.704   6.182   3.654  0.6453 -0.2118 -0.3608
15628SOL    HW249039   1.620   6.064   3.697  1.7615 -0.2135  1.9744
15629SOL     OW49040   3.774   5.577   7.403 -0.4422  0.1374 -0.1571
15629SOL    HW149041   3.812   5.492   7.382  2.0320  1.1750 -0.1604
15629SOL    HW249042   3.701   5.556   7.462 -1.0043 -2.0620 -1.5071
15630SOL     OW49043   1.670   2.167   4.273  0.4279  0.3063 -0.2786
15630SOL    HW149044   1.645   2.219   4.350 -0.2357  0.1437 -0.3720
15630SOL    HW249045   1.615   2.202   4.203 -0.6516 -1.0507 -0.1569
15631SOL     OW49046   0.370   7.816   1.662  0.7085  0.4135  0.1977
15631SOL    HW149047   0.333   7.898   1.629 -1.9158 -1.0585 -0.7976
15631SOL    HW249048   0.343   7.812   1.753  2.2491  1.3456  0.7405
15632SOL     OW49049   2.318   5.932   2.313  0.3920  0.1434 -0.3000
15632SOL    HW149050   2.401   5.972   2.287  0.9493 -0.7398  0.1013
15632SOL    HW249051   2.300   5.970   2.399  0.3596  0.3488 -0.3945
15633SOL     OW49052   5.094   8.812   4.907 -0.0954 -0.0135  0.0000
15633SOL    HW149053   5.063   8.722   4.919 -1.0009  0.0372 -1.5899
15633SOL    HW249054   5.069   8.857   4.987 -1.3924 -0.7353  0.0254
15634SOL     OW49055   8.594   6.032   1.195  0.2736 -0.0781  0.6713
15634SOL    HW149056   8.575   6.124   1.208  1.9389 -0.0533  4.0903
15634SOL    HW249057   8.685   6.030   1.165  0.0208 -0.6289 -0.1054
15635SOL     OW49058   1.928   8.465   3.392  0.4559  0.3070  0.1803
15635SOL    HW149059   1.836   8.483   3.374 -0.3885 -1.2286  2.5063
15635SOL    HW249060   1.951   8.523   3.464  0.6558 -0.7448  0.9970
15636SOL     OW49061   4.698   3.035   0.284 -0.4130  0.1514  0.8304
15636SOL    HW149062   4.723   2.987   0.205 -0.3973  1.1070  0.2352
15636SOL    HW249063   4.664   2.968   0.343 -2.5806 -0.3102 -0.8388
15637SOL     OW49064   1.699   1.787   6.271 -0.0183  0.4165  0.1099
15637SOL    HW149065   1.703   1.847   6.345 -1.2605  0.7427 -0.0549
15637SOL    HW249066   1.754   1.827   6.204  0.3339  0.6195  0.5197
15638SOL     OW49067   3.041   6.192   6.505 -0.0082  0.1692  0.8970
15638SOL    HW149068   3.048   6.099   6.524  2.1572 -0.1229 -0.9983
15638SOL    HW249069   3.106   6.233   6.562 -0.1491  0.4064  0.8910
15639SOL     OW49070   3.443   1.576   2.449 -0.0312  0.6394  0.3877
15639SOL    HW149071   3.446   1.614   2.362 -2.3792  1.8618  0.7792
15639SOL    HW249072   3.474   1.486   2.437  0.8901  1.1530 -1.4321
15640SOL     OW49073   5.538   5.168   8.207  0.0375  0.1410 -0.1074
15640SOL    HW149074   5.613   5.186   8.150 -0.7671  1.2488 -0.8630
15640SOL    HW249075   5.523   5.251   8.253 -0.2377 -0.3100  0.6220
15641SOL     OW49076   0.778   2.369   0.109 -0.0854  0.0231  0.1327
15641SOL    HW149077   0.849   2.304   0.107  0.0287 -0.1073  3.2937
15641SOL    HW249078   0.722   2.346   0.035  0.8085 -2.6934  0.1932
15642SOL     OW49079   0.552   4.906   3.866 -0.0254  0.2501 -0.1396
15642SOL    HW149080   0.619   4.869   3.809  0.2354 -0.3047  0.5241
15642SOL    HW249081   0.585   4.894   3.955 -0.5526  0.8611  0.1550
15643SOL     OW49082   4.917   4.441   1.242 -0.3847 -0.6855 -0.1812
15643SOL    HW149083   4.967   4.475   1.316  0.3327  0.1620 -1.0285
15643SOL    HW249084   4.834   4.412   1.280  0.5344 -1.6439  1.1699
15644SOL     OW49085   5.271   8.081   6.442 -0.1265 -0.1785 -0.1769
15644SOL    HW149086   5.294   8.010   6.382  0.0661  0.0075 -0.3226
15644SOL    HW249087   5.300   8.161   6.397 -0.1369 -0.0259  0.0863
15645SOL     OW49088   3.280   8.388   9.140  0.1107 -0.0958 -0.9421
15645SOL    HW149089   3.343   8.443   9.187 -1.6436  1.4531 -0.3157
15645SOL    HW249090   3.282   8.304   9.187 -1.8738  1.5078  2.3185
15646SOL     OW49091   5.825   8.678   8.490  0.1393 -0.2329  0.1317
15646SOL    HW149092   5.846   8.660   8.399  1.9356 -0.1833  0.5124
15646SOL    HW249093   5.907   8.707   8.529 -0.7183  0.2753  1.6450
15647SOL     OW49094   8.573   0.664   1.152  0.2421  0.4931  0.0372
15647SOL    HW149095   8.499   0.713   1.117  0.6567  0.0212 -1.5384
15647SOL    HW249096   8.610   0.721   1.219 -0.2611  1.6347 -0.6396
15648SOL     OW49097   8.193   0.358   5.119  0.6021  0.0959  0.1974
15648SOL    HW149098   8.269   0.337   5.173 -0.6129 -1.3026  1.4405
15648SOL    HW249099   8.217   0.440   5.075  3.6599 -1.3161 -1.0945
15649SOL     OW49100   6.307   8.948   1.322 -0.2104  0.3627 -0.2338
15649SOL    HW149101   6.336   9.011   1.388 -0.0311  1.7821 -1.5974
15649SOL    HW249102   6.365   8.873   1.332 -1.1553 -0.1254  2.1934
15650SOL     OW49103   6.607   4.841   3.786 -0.4238  0.6574 -0.5397
15650SOL    HW149104   6.650   4.916   3.828 -0.5868  0.6124 -0.2963
15650SOL    HW249105   6.528   4.879   3.747 -1.2048  0.3701  0.7204
15651SOL     OW49106   4.370   3.114   4.288 -0.1549 -0.1044  0.2272
15651SOL    HW149107   4.315   3.042   4.320 -0.2151  0.4014  1.3065
15651SOL    HW249108   4.325   3.193   4.317 -0.5225  0.4278 -1.6408
15652SOL     OW49109   3.133   3.597   3.422 -0.1174 -0.0004 -0.6336
15652SOL    HW149110   3.154   3.569   3.334 -0.6586  1.6641 -1.3363
15652SOL    HW249111   3.123   3.692   3.415  1.8722  0.4756  1.6225
15653SOL     OW49112   1.697   9.326   7.723  0.2266  0.0796 -0.5107
15653SOL    HW149113   1.780   9.320   7.771 -1.0766  1.3431  2.1516
15653SOL    HW249114   1.675   9.419   7.724 -2.2855 -0.4185  0.9527
15654SOL     OW49115   4.645   2.822   0.422 -0.1590  0.0759 -0.4710
15654SOL    HW149116   4.582   2.776   0.477 -0.2513 -0.1883 -0.7938
15654SOL    HW249117   4.726   2.772   0.430  0.3250  0.9942  0.7636
15655SOL     OW49118   5.796   2.475   2.523  0.1756  0.5214 -0.6671
15655SOL    HW149119   5.856   2.426   2.580 -1.2914 -0.3868  0.1550
15655SOL    HW249120   5.838   2.473   2.437  1.0037 -0.6678 -0.2640
15656SOL     OW49121   8.273   7.433   7.115 -0.0148 -0.0078 -0.2270
15656SOL    HW149122   8.328   7.394   7.183  0.9746  0.0678 -0.9588
15656SOL    HW249123   8.191   7.453   7.159  0.3974 -0.5018  0.7990
15657SOL     OW49124   2.541   6.146   0.762  0.1133  0.2206  0.7373
15657SOL    HW149125   2.497   6.125   0.844  3.2314 -0.1967  2.4668
15657SOL    HW249126   2.528   6.068   0.707 -1.6151  0.3275  0.9288
15658SOL     OW49127   1.921   7.660   4.761  0.0693  0.0821 -0.1929
15658SOL    HW149128   1.949   7.639   4.671  0.5313 -0.7115  0.1259
15658SOL    HW249129   1.962   7.593   4.815 -2.4948 -1.2041  0.3068
15659SOL     OW49130   6.134   8.668   7.098  0.4004  0.2888 -0.4065
15659SOL    HW149131   6.091   8.584   7.111  0.8257 -0.0823 -1.3522
15659SOL    HW249132   6.184   8.682   7.179 -0.5312  0.1687  0.2059
15660SOL     OW49133   8.364   4.425   7.645 -0.6549  0.5315 -0.1566
15660SOL    HW149134   8.437   4.483   7.664  0.6278 -1.4142  1.1776
15660SOL    HW249135   8.286   4.474   7.672  0.0780  2.6066 -1.5349
15661SOL     OW49136   7.117   5.218   6.699  0.2744 -0.5222  0.3828
15661SOL    HW149137   7.195   5.176   6.664 -0.9802 -0.0950 -3.3496
15661SOL    HW249138   7.053   5.147   6.707 -0.3737 -0.1784 -1.3121
15662SOL     OW49139   6.992   6.656   6.613  0.2016  0.2544 -0.0948
15662SOL    HW149140   6.907   6.694   6.592  1.5138  2.3706 -2.0844
15662SOL    HW249141   7.031   6.719   6.674  1.2954  0.6636 -1.1862
15663SOL     OW49142   3.534   3.719   6.817 -0.0572 -0.1902 -0.2219
15663SOL    HW149143   3.472   3.657   6.855  0.7136 -1.5128 -1.0679
15663SOL    HW249144   3.613   3.710   6.871  0.0542  0.0948 -0.3314
15664SOL     OW49145   4.052   9.423   4.971  0.8766 -0.1652  0.1778
15664SOL    HW149146   4.134   9.425   4.921  0.4177  0.1987 -0.5768
15664SOL    HW249147   3.995   9.486   4.926 -0.7701 -2.3469 -0.9890
15665SOL     OW49148   2.004   6.928   2.390  0.1140  0.3781  0.3791
15665SOL    HW149149   1.972   6.997   2.448  0.1549  0.0665  0.7774
15665SOL    HW249150   2.097   6.921   2.410  0.5230  1.4626 -0.9616
15666SOL     OW49151   7.678   8.599   6.082 -0.3426 -0.0307  0.8516
15666SOL    HW149152   7.628   8.665   6.035 -0.0334 -0.5793 -0.3209
15666SOL    HW249153   7.617   8.525   6.092 -0.5740  0.2856  1.8186
15667SOL     OW49154   2.511   5.040   7.585 -0.1678 -0.4498  0.2560
15667SOL    HW149155   2.605   5.051   7.570 -0.6443  2.1845 -1.4581
15667SOL    HW249156   2.491   4.955   7.545  1.3718 -0.8143  0.1833
15668SOL     OW49157   7.432   6.040   4.068  0.9705  0.3714  0.0625
15668SOL    HW149158   7.386   6.116   4.105  0.4274 -0.7762  1.8711
15668SOL    HW249159   7.364   5.992   4.022  0.6143 -0.5156  1.4331
15669SOL     OW49160   3.288   7.836   2.049  0.2455 -0.1587 -0.3554
15669SOL    HW149161   3.240   7.877   1.978  0.4966  0.1836 -0.3309
15669SOL    HW249162   3.326   7.909   2.098  2.3597 -0.4381 -1.4585
15670SOL     OW49163   6.003   7.418   2.079 -0.2593  0.1800 -0.0075
15670SOL    HW149164   5.939   7.355   2.045  0.5043  0.5918 -2.3749
15670SOL    HW249165   6.013   7.395   2.172 -1.8233 -1.5873 -0.2309
15671SOL     OW49166   4.104   4.605   1.313  0.6154  1.5122 -0.1311
15671SOL    HW149167   4.156   4.562   1.246 -1.4892  0.2839 -1.0974
15671SOL    HW249168   4.127   4.559   1.394 -0.7880 -0.8687 -0.9687
15672SOL     OW49169   8.588   8.257   8.876 -0.1334 -0.3667 -0.5295
15672SOL    HW149170   8.634   8.175   8.853  1.0247  0.2296 -0.3906
15672SOL    HW249171   8.646   8.326   8.844 -0.1957  0.4379  1.0449
15673SOL     OW49172   3.303   1.231   7.851 -0.5667  0.1944 -0.1217
15673SOL    HW149173   3.360   1.212   7.776 -1.4444 -0.0122 -0.7582
15673SOL    HW249174   3.222   1.263   7.811 -0.7246  0.9610  0.7847
15674SOL     OW49175   4.621   3.037   4.190  0.0811 -0.2473  0.3039
15674SOL    HW149176   4.601   3.040   4.096 -0.8325  1.5301  0.5351
15674SOL    HW249177   4.538   3.054   4.234  0.7294  0.1309  1.4283
15675SOL     OW49178   0.015   0.344   8.554 -0.6678  0.3555 -0.2073
15675SOL    HW149179  -0.081   0.343   8.549 -0.7240 -2.2689 -0.1320
15675SOL    HW249180   0.043   0.289   8.481  0.7444  0.3524  0.3139
15676SOL     OW49181   2.677   0.336   5.591  0.6707  0.4597  0.0753
15676SOL    HW149182   2.685   0.242   5.604  0.8992  0.3599 -0.7304
15676SOL    HW249183   2.660   0.346   5.497  2.3243  1.3052 -0.1594
15677SOL     OW49184   2.479   0.443   1.717 -0.7447  0.2062  0.5179
15677SOL    HW149185   2.561   0.394   1.722 -0.1384  1.3188  2.2392
15677SOL    HW249186   2.495   0.509   1.649  0.1885  1.0713  1.5391
15678SOL     OW49187   6.943   6.870   7.920  0.2509 -0.1045 -0.0692
15678SOL    HW149188   6.993   6.788   7.921 -0.2498 -0.4378 -0.8269
15678SOL    HW249189   7.009   6.939   7.925  0.7049 -0.5542  0.1832
15679SOL     OW49190   9.388   5.288   1.655  0.1392  0.3563  0.3498
15679SOL    HW149191   9.428   5.327   1.577  3.2655  0.6000  1.9212
15679SOL    HW249192   9.320   5.229   1.621  3.1769 -1.6987 -2.7835
15680SOL     OW49193   3.918   7.633   6.395 -0.6031  0.1272  0.2013
15680SOL    HW149194   3.869   7.675   6.324 -0.9848 -2.0975 -0.9445
15680SOL    HW249195   3.925   7.700   6.462  0.6685  2.7153 -2.2990
15681SOL     OW49196   4.989   0.939   2.769 -0.0955 -0.1316  0.2010
15681SOL    HW149197   5.078   0.921   2.797  1.2689  1.0431 -2.9213
15681SOL    HW249198   4.956   0.855   2.737  0.8481 -0.1156 -0.8748
15682SOL     OW49199   5.588   2.707   1.446  0.1216 -0.5674  0.7823
15682SOL    HW149200   5.557   2.796   1.462  0.2633 -0.4049  0.1770
15682SOL    HW249201   5.509   2.652   1.455 -0.0346 -0.3409  0.7886
15683SOL     OW49202   1.976   3.334   2.737 -0.1911 -0.5413 -0.1027
15683SOL    HW149203   1.982   3.322   2.642  0.7613 -2.0980  0.1303
15683SOL    HW249204   1.903   3.277   2.763 -0.2781 -0.3178  0.1447
15684SOL     OW49205   1.014   2.076   8.400 -0.3996 -0.1493  0.0644
15684SOL    HW149206   1.066   2.127   8.337 -1.4488 -0.0817 -0.7860
15684SOL    HW249207   1.050   1.988   8.396  1.7372  0.5446  1.8761
15685SOL     OW49208   2.721   7.137   0.518  0.1784 -0.0038  0.2426
15685SOL    HW149209   2.801   7.158   0.470  0.8983  0.0130  1.4186
15685SOL    HW249210   2.681   7.222   0.537  0.6423  0.0766  0.8997
15686SOL     OW49211   9.131   0.083   4.327  0.3318  0.4224  0.3462
15686SOL    HW149212   9.173   0.122   4.250 -0.8804 -0.6461 -0.9122
15686SOL    HW249213   9.051   0.042   4.293 -0.3371  0.0696  2.2135
15687SOL     OW49214   8.608   3.491   1.769  0.8062 -0.6999 -0.8800
15687SOL    HW149215   8.551   3.440   1.711  1.2445 -2.3015  0.0364
15687SOL    HW249216   8.554   3.508   1.847  1.0272 -0.7643 -0.7094
15688SOL     OW49217   5.474   0.278   6.813  0.5879 -0.2608  0.4507
15688SOL    HW149218   5.395   0.240   6.775  0.8958  1.0712 -1.7220
15688SOL    HW249219   5.546   0.232   6.770  0.9623  0.1653  0.6139
15689SOL     OW49220   5.462   2.617   8.445 -0.0626  0.3437 -0.5668
15689SOL    HW149221   5.539   2.581   8.400  0.1807  0.7048 -0.4439
15689SOL    HW249222   5.434   2.547   8.503 -0.7506 -0.3641 -1.7057
15690SOL     OW49223   6.592   1.481   9.455 -0.0447 -0.2248  0.0757
15690SOL    HW149224   6.499   1.477   9.433 -0.4647 -1.4753  1.8896
15690SOL    HW249225   6.603   1.566   9.498  0.0609  0.6711 -1.6055
15691SOL     OW49226   1.716   3.344   3.829 -0.4237 -0.1318 -0.1756
15691SOL    HW149227   1.749   3.254   3.820 -2.4325 -0.9019 -0.3130
15691SOL    HW249228   1.741   3.386   3.746 -0.2417 -0.8276 -0.4905
15692SOL     OW49229   6.351   6.698   0.882  0.0211  0.1222 -0.0259
15692SOL    HW149230   6.431   6.748   0.864  0.3899 -0.4680 -0.0592
15692SOL    HW249231   6.289   6.727   0.815  0.9554 -1.0755 -1.4718
15693SOL     OW49232   6.655   1.241   4.059 -0.0551  0.4856 -0.1565
15693SOL    HW149233   6.746   1.211   4.057 -0.5426 -1.1867  0.8253
15693SOL    HW249234   6.624   1.217   4.146 -1.6483  0.3895 -0.7277
15694SOL     OW49235   6.843   7.518   5.984  0.5855 -0.3368 -0.0028
15694SOL    HW149236   6.915   7.469   6.024  1.0297  0.4237  0.1357
15694SOL    HW249237   6.838   7.599   6.034 -0.4435 -0.4298  0.0565
15695SOL     OW49238   9.524   5.671   3.906  0.1260 -0.0338 -0.1619
15695SOL    HW149239   9.528   5.622   3.988  1.5249  0.6238  0.1921
15695SOL    HW249240   9.616   5.686   3.882 -0.2590  0.0100 -1.7193
15696SOL     OW49241   3.887   6.146   8.293 -0.3129 -0.3971  0.1869
15696SOL    HW149242   3.813   6.107   8.337 -0.8219  0.2550 -0.0665
15696SOL    HW249243   3.895   6.097   8.211  0.9155 -1.9030  1.1703
15697SOL     OW49244   4.174   2.307   1.797 -0.2465 -0.1219 -0.3826
15697SOL    HW149245   4.117   2.241   1.758  1.5031 -2.4430  0.7903
15697SOL    HW249246   4.118   2.353   1.860 -1.5769 -0.2099 -1.4516
15698SOL     OW49247   2.199   6.998   1.253  0.2463  0.2276 -0.0602
15698SOL    HW149248   2.117   7.039   1.227  0.4783 -0.3123 -1.7668
15698SOL    HW249249   2.254   7.069   1.286 -0.0384  0.9837 -1.1918
15699SOL     OW49250   4.763   5.158   4.960 -0.1469  0.8348  0.2850
15699SOL    HW149251   4.674   5.124   4.956  1.2111 -3.2166 -0.4281
15699SOL    HW249252   4.780   5.192   4.872 -1.0351  1.9200  0.5152
15700SOL     OW49253   3.277   7.973   7.707 -0.8901  0.2142  0.2923
15700SOL    HW149254   3.294   8.017   7.790  1.0022 -0.1239  0.1443
15700SOL    HW249255   3.342   8.009   7.647  0.2155 -2.1206 -0.0520
15701SOL     OW49256   3.656   5.551   6.117 -0.5096 -0.0062 -0.1415
15701SOL    HW149257   3.720   5.607   6.073 -0.3508 -1.5974 -2.0589
15701SOL    HW249258   3.690   5.541   6.205 -0.8038  3.2529  0.4924
15702SOL     OW49259   2.635   7.744   8.215 -0.0884  0.0823  0.4559
15702SOL    HW149260   2.709   7.782   8.167  0.6229  0.0104  1.4548
15702SOL    HW249261   2.671   7.723   8.301 -0.9553 -1.1393  0.5459
15703SOL     OW49262   2.531   5.479   8.340 -0.4146 -0.4549  0.1967
15703SOL    HW149263   2.484   5.397   8.323  0.4556 -0.8312 -0.4570
15703SOL    HW249264   2.520   5.530   8.260 -0.1500 -0.3188  0.2464
15704SOL     OW49265   6.013   8.535   2.425 -0.0022  0.1619  0.2353
15704SOL    HW149266   5.940   8.481   2.458  1.2598 -1.0515  1.1656
15704SOL    HW249267   6.047   8.486   2.350 -0.4403  0.9926 -0.5270
15705SOL     OW49268   7.182   6.619   6.095  0.1481  0.2682  0.1050
15705SOL    HW149269   7.271   6.647   6.115  0.7409  0.0586 -2.0858
15705SOL    HW249270   7.130   6.651   6.169  1.6901  2.2596  0.3967
15706SOL     OW49271   4.770   2.647   6.480  0.2192 -0.0687 -0.0127
15706SOL    HW149272   4.865   2.653   6.470  0.2715 -0.1686  0.3921
15706SOL    HW249273   4.740   2.737   6.486  0.7543  0.0004  3.9199
15707SOL     OW49274   6.125   0.411   0.515  0.4571  0.8323  0.1792
15707SOL    HW149275   6.048   0.398   0.460  0.6383 -0.4724  0.1966
15707SOL    HW249276   6.130   0.506   0.528  0.8416  1.2966 -2.7022
15708SOL     OW49277   8.851   3.932   9.547  0.7253 -0.0668  0.0781
15708SOL    HW149278   8.771   3.970   9.582 -1.4239 -1.3123 -3.0360
15708SOL    HW249279   8.877   3.867   9.612 -1.3649 -0.2942  0.7588
15709SOL     OW49280   8.770   7.882   6.141  0.0782 -0.3304  0.4189
15709SOL    HW149281   8.717   7.812   6.102 -1.5289 -0.8005  3.1249
15709SOL    HW249282   8.820   7.839   6.210  0.3065  0.9205  1.0711
15710SOL     OW49283   5.667   5.396   7.163  0.0488  0.2268 -1.0859
15710SOL    HW149284   5.584   5.355   7.140  0.0689 -1.4757  1.4083
15710SOL    HW249285   5.647   5.490   7.170 -1.8253 -0.2098 -0.0330
15711SOL     OW49286   7.038   4.760   1.587  0.2936  0.0534 -0.2702
15711SOL    HW149287   7.106   4.794   1.530  1.3247 -1.7754 -0.2087
15711SOL    HW249288   7.073   4.768   1.675 -0.6415  1.4057  0.0108
15712SOL     OW49289   4.425   9.090   6.164  0.0423  0.4825  0.3287
15712SOL    HW149290   4.388   9.173   6.195  1.4267  0.5449  1.9180
15712SOL    HW249291   4.361   9.059   6.099 -1.7618  1.5605  1.4860
15713SOL     OW49292   8.130   9.567   0.003  0.0570  0.0109 -0.3116
15713SOL    HW149293   8.049   9.619   0.005 -0.5279 -0.8934  1.0073
15713SOL    HW249294   8.162   9.576  -0.087 -1.8969 -0.2014 -1.0823
15714SOL     OW49295   6.534   6.032   0.319 -0.7187  0.9875 -0.3566
15714SOL    HW149296   6.560   5.997   0.404 -1.7128 -0.3428 -0.5613
15714SOL    HW249297   6.453   6.080   0.337  0.2567  2.6312 -0.2013
15715SOL     OW49298   8.157   1.152   8.590  0.5476 -0.2817 -0.5847
15715SOL    HW149299   8.226   1.172   8.527  0.9227 -0.1056 -0.1259
15715SOL    HW249300   8.078   1.145   8.538  0.4940  1.8249 -0.8691
15716SOL     OW49301   9.242   8.097   0.739  0.2919 -0.9466  0.3829
15716SOL    HW149302   9.192   8.105   0.820 -1.4199 -0.4312 -0.6843
15716SOL    HW249303   9.198   8.026   0.691  0.6732 -0.5764 -0.5212
15717SOL     OW49304   4.979   6.748   3.422 -0.6006  0.5197 -0.3405
15717SOL    HW149305   5.058   6.798   3.404 -0.7989  0.8885 -0.2127
15717SOL    HW249306   4.954   6.710   3.338  1.8610 -2.8675  0.2434
15718SOL     OW49307   4.544   4.388   3.814 -0.3968  0.3091 -0.7687
15718SOL    HW149308   4.545   4.483   3.807  0.5244  0.3837  0.2408
15718SOL    HW249309   4.558   4.358   3.724  0.8100  1.1439 -0.8875
15719SOL     OW49310   2.239   5.970   0.688  0.2298  0.2551  0.3379
15719SOL    HW149311   2.323   5.938   0.655 -0.1158 -0.0903 -0.2207
15719SOL    HW249312   2.192   5.998   0.610  0.4524  1.9902  0.7986
15720SOL     OW49313   2.337   6.103   9.198 -0.0382  0.2419 -0.0089
15720SOL    HW149314   2.389   6.136   9.124  1.5325 -0.1080  0.8809
15720SOL    HW249315   2.300   6.021   9.166  1.1437 -0.2265 -0.2224
15721SOL     OW49316   5.932   8.832   9.626  0.4213  0.0468  0.1474
15721SOL    HW149317   5.948   8.757   9.683  0.6180  0.2432  0.3512
15721SOL    HW249318   6.002   8.894   9.647  0.8569 -0.1317 -0.7487
15722SOL     OW49319   3.556   4.656   2.235 -0.0842  0.0632 -0.0015
15722SOL    HW149320   3.548   4.729   2.173 -0.1317  0.9273  1.0010
15722SOL    HW249321   3.583   4.582   2.180 -0.4216  0.7224 -1.1055
15723SOL     OW49322   5.407   6.868   7.973 -0.5237  0.2819 -0.2723
15723SOL    HW149323   5.454   6.830   8.047  1.8383  0.8364 -1.3627
15723SOL    HW249324   5.325   6.900   8.009 -0.2589 -1.1254  1.6987
15724SOL     OW49325   2.762   4.652   3.365  0.0497  0.4834 -0.2306
15724SOL    HW149326   2.769   4.563   3.401  0.2652  0.2563 -0.8157
15724SOL    HW249327   2.847   4.692   3.385  0.6705 -0.0816 -1.6032
15725SOL     OW49328   3.785   3.294   3.158  0.0440  0.3021 -0.2493
15725SOL    HW149329   3.712   3.251   3.203 -0.6251  0.3795 -1.2340
15725SOL    HW249330   3.856   3.230   3.162 -0.3470 -0.1249 -0.0415
15726SOL     OW49331   0.533   2.591   3.222  0.5114  0.2025  0.1161
15726SOL    HW149332   0.536   2.501   3.254  2.4421 -0.4057 -1.5671
15726SOL    HW249333   0.582   2.641   3.287  1.1457 -0.3350  0.0664
15727SOL     OW49334   8.444   8.121   4.691  0.5846  0.0287  0.6517
15727SOL    HW149335   8.459   8.121   4.785  1.8219  3.3898  0.5786
15727SOL    HW249336   8.423   8.211   4.669 -0.6229 -0.8206 -2.2029
15728SOL     OW49337   5.549   0.329   5.109 -0.1227  0.2656  0.0689
15728SOL    HW149338   5.518   0.248   5.148 -0.3775 -0.2274 -1.1157
15728SOL    HW249339   5.473   0.387   5.111 -0.4568 -0.1338 -0.6734
15729SOL     OW49340   2.287   9.231   7.992  0.5640 -0.7419  0.1403
15729SOL    HW149341   2.288   9.326   7.991  0.3105 -0.7364  0.3671
15729SOL    HW249342   2.239   9.207   7.913  1.4690 -0.7032 -0.4416
15730SOL     OW49343   0.988   3.518   8.688 -0.5127  0.4031 -0.7676
15730SOL    HW149344   1.068   3.498   8.736 -0.2718 -0.0690 -1.3479
15730SOL    HW249345   0.918   3.502   8.751 -0.1449  1.0196 -0.1947
15731SOL     OW49346   7.697   5.047   9.402  0.0443 -0.0779  0.1674
15731SOL    HW149347   7.663   5.027   9.315 -0.2917  1.0735  0.0118
15731SOL    HW249348   7.625   5.028   9.462 -0.3010  0.7316  0.0148
15732SOL     OW49349   6.427   9.079   8.326  0.1216 -0.1566  0.0924
15732SOL    HW149350   6.502   9.136   8.344  0.2259  0.3732 -1.8577
15732SOL    HW249351   6.424   9.021   8.402  0.6285  1.7540  1.6759
15733SOL     OW49352   3.634   1.698   4.854  0.9986  0.0188  0.3088
15733SOL    HW149353   3.661   1.685   4.945 -3.0036 -1.6369  1.4834
15733SOL    HW249354   3.596   1.787   4.854  2.6773  0.7702 -0.3083
15734SOL     OW49355   6.285   6.016   5.433  0.0210  0.1898 -0.2325
15734SOL    HW149356   6.281   6.032   5.528  0.7344  0.8340 -0.3031
15734SOL    HW249357   6.288   5.920   5.426  1.7254  0.1523  0.4926
15735SOL     OW49358   5.467   8.969   1.722 -0.0503 -0.4027 -0.2976
15735SOL    HW149359   5.385   8.921   1.721  1.3934 -3.0965  0.5668
15735SOL    HW249360   5.535   8.903   1.705  2.0189  1.5105 -0.0361
15736SOL     OW49361   6.580   2.518   6.667 -0.6495  0.5514 -0.1567
15736SOL    HW149362   6.672   2.531   6.642 -0.9700  0.9575 -1.1703
15736SOL    HW249363   6.573   2.424   6.685 -0.3883  0.2267 -1.6282
15737SOL     OW49364   3.928   3.895   7.524 -0.2504 -0.0947  0.0878
15737SOL    HW149365   3.988   3.828   7.557 -0.6251 -0.6549 -0.3514
15737SOL    HW249366   3.982   3.975   7.518  1.1653 -1.1234 -2.6117
15738SOL     OW49367   3.589   4.340   3.213 -0.3738 -0.0798 -0.0053
15738SOL    HW149368   3.609   4.247   3.203  2.3985  0.5655 -1.5350
15738SOL    HW249369   3.662   4.375   3.265  0.3360  1.7310 -2.0897
15739SOL     OW49370   7.214   8.646   6.727 -0.2613 -0.0090 -0.4338
15739SOL    HW149371   7.174   8.666   6.812 -0.7815 -1.0632 -0.4216
15739SOL    HW249372   7.147   8.598   6.679  0.6652 -1.0423 -0.7449
15740SOL     OW49373   1.937   6.180   5.755  0.1266  0.2048  0.6586
15740SOL    HW149374   1.923   6.212   5.666 -1.3648 -1.3485  0.2760
15740SOL    HW249375   1.931   6.258   5.810  0.5167  1.1102 -0.5441
15741SOL     OW49376   8.028   8.996   7.279 -0.2197 -0.0533  0.3601
15741SOL    HW149377   7.945   8.978   7.325 -0.8746 -0.0968 -0.8099
15741SOL    HW249378   8.043   9.089   7.293 -0.9779  0.1670 -0.2214
15742SOL     OW49379   2.137   2.327   5.753 -0.4103 -0.1382  0.2052
15742SOL    HW149380   2.162   2.398   5.812 -1.6160 -0.5683  1.2743
15742SOL    HW249381   2.203   2.260   5.768 -2.5334 -1.7065  3.8062
15743SOL     OW49382   3.861   0.381   8.856 -0.1425 -0.0800 -0.2096
15743SOL    HW149383   3.865   0.356   8.948 -0.4913 -1.7401 -0.6058
15743SOL    HW249384   3.861   0.476   8.857 -0.2458 -0.0604  1.5014
15744SOL     OW49385   5.944   2.456   8.144  0.0317  0.3238 -0.5362
15744SOL    HW149386   6.017   2.456   8.206  0.2852 -0.7090 -0.8186
15744SOL    HW249387   5.984   2.481   8.061  0.2915 -1.2854 -0.9213
15745SOL     OW49388   9.021   3.131   8.254  0.3510  0.3044  0.1510
15745SOL    HW149389   9.084   3.061   8.269  1.3712  1.0885 -0.3786
15745SOL    HW249390   9.053   3.176   8.176 -1.1522  0.4022 -0.4526
15746SOL     OW49391   1.208   9.623   2.748 -0.5224 -0.2465  0.1012
15746SOL    HW149392   1.141   9.629   2.816  0.4594  1.1984  0.9912
15746SOL    HW249393   1.259   9.545   2.771 -1.2142 -0.7394  0.0165
15747SOL     OW49394   2.747   6.294   6.882 -0.8200  0.1285 -0.6501
15747SOL    HW149395   2.838   6.323   6.884 -0.8250  0.1255 -0.3583
15747SOL    HW249396   2.724   6.279   6.974 -0.9673 -0.3323 -0.7580
15748SOL     OW49397   1.382   8.396   2.691 -0.5205 -0.8124 -0.5437
15748SOL    HW149398   1.418   8.310   2.713 -0.0762 -0.4363  0.2323
15748SOL    HW249399   1.412   8.453   2.761 -0.9676 -0.0576 -0.9564
15749SOL     OW49400   1.941   3.394   2.447  0.0822  0.7161  0.7367
15749SOL    HW149401   2.020   3.436   2.414 -0.7305  0.7190 -1.3385
15749SOL    HW249402   1.879   3.466   2.459 -0.3335  0.4704  0.1125
15750SOL     OW49403   8.721   4.568   3.928  0.2117 -0.6081  0.0274
15750SOL    HW149404   8.647   4.615   3.890  1.2231  0.4921 -0.6503
15750SOL    HW249405   8.786   4.564   3.857  1.2841 -0.4359  0.9704
15751SOL     OW49406   1.783   7.690   8.822  0.5339  0.2380  0.1652
15751SOL    HW149407   1.785   7.782   8.849  1.4820  0.6684 -1.2569
15751SOL    HW249408   1.843   7.647   8.883 -0.4149  0.3962  1.2642
15752SOL     OW49409   7.388   6.092   6.760 -0.2043 -0.1987 -0.1174
15752SOL    HW149410   7.432   6.121   6.840  0.4342  2.1105 -1.2272
15752SOL    HW249411   7.296   6.112   6.774  0.0238  1.0049 -0.2616
15753SOL     OW49412   5.783   5.726   7.377 -0.2140 -0.5224  0.5062
15753SOL    HW149413   5.863   5.769   7.406 -0.9208 -0.1722  2.0391
15753SOL    HW249414   5.750   5.781   7.306  0.5728 -0.3194  0.2943
15754SOL     OW49415   4.196   8.221   1.894 -0.0347  0.2361 -0.2056
15754SOL    HW149416   4.281   8.205   1.935 -0.1896 -1.1683 -0.4052
15754SOL    HW249417   4.139   8.152   1.927 -0.0917 -1.1539 -2.9077
15755SOL     OW49418   2.973   5.414   0.915 -0.5780 -0.2940  0.5930
15755SOL    HW149419   3.058   5.436   0.877 -0.0034 -0.2384  1.8343
15755SOL    HW249420   2.962   5.320   0.898 -1.1553  0.0677 -1.1921
15756SOL     OW49421   8.181   1.073   6.540 -0.1505 -0.0953 -0.1432
15756SOL    HW149422   8.209   1.018   6.613  0.2289  0.1037 -0.1328
15756SOL    HW249423   8.094   1.041   6.517  0.6425 -1.6896 -1.1037
15757SOL     OW49424   7.600   8.653   8.161 -0.0434 -0.2278  0.5026
15757SOL    HW149425   7.511   8.636   8.132  0.8445  0.2203 -2.8504
15757SOL    HW249426   7.654   8.592   8.111  1.7411  1.2504  0.5252
15758SOL     OW49427   5.674   2.800   3.872  0.3392 -0.0504  0.2745
15758SOL    HW149428   5.669   2.751   3.790  1.7629 -1.5089  1.0111
15758SOL    HW249429   5.688   2.733   3.940 -1.4378  1.0335  1.8395
15759SOL     OW49430   9.482   1.340   7.615  0.0516  0.2506 -0.1025
15759SOL    HW149431   9.431   1.352   7.535  1.3896  2.8140 -0.6934
15759SOL    HW249432   9.554   1.283   7.590  1.6857  2.7081 -1.4798
15760SOL     OW49433   9.260   7.060   5.173 -0.3773  0.2479 -0.1742
15760SOL    HW149434   9.345   7.023   5.151 -0.5312  0.2143 -0.7186
15760SOL    HW249435   9.230   7.008   5.248  1.1705  1.8378  1.6553
15761SOL     OW49436   4.752   3.409   4.259 -0.3102 -0.1568 -0.1130
15761SOL    HW149437   4.774   3.339   4.320  1.1097  0.5329  0.1965
15761SOL    HW249438   4.767   3.372   4.172  1.2920  0.0188  0.0709
15762SOL     OW49439   8.668   0.990   1.527 -0.0779  0.2809  0.2083
15762SOL    HW149440   8.678   1.075   1.569  0.6435 -0.5163  1.7073
15762SOL    HW249441   8.720   0.997   1.447 -0.6747  1.4970 -0.0982
15763SOL     OW49442   8.965   8.486   2.466 -0.2355  0.0188  0.7384
15763SOL    HW149443   8.898   8.422   2.492  0.7676 -0.9341  1.0264
15763SOL    HW249444   8.992   8.458   2.379  1.1618 -0.7899  1.3963
15764SOL     OW49445   2.050   7.626   4.039  0.1464 -0.1161  0.9962
15764SOL    HW149446   2.032   7.712   4.077 -0.0473  0.3448 -0.1036
15764SOL    HW249447   1.994   7.566   4.088 -0.6731  0.5766  0.9294
15765SOL     OW49448   6.622   4.640   9.433 -1.0868  0.4233  0.2238
15765SOL    HW149449   6.561   4.708   9.462 -1.6816 -0.4679  1.1385
15765SOL    HW249450   6.674   4.619   9.511 -1.6897 -0.9541  0.2965
15766SOL     OW49451   3.135   8.030   5.507 -0.4408 -0.3773  0.1884
15766SOL    HW149452   3.051   7.985   5.494 -0.4512 -0.1201 -0.7165
15766SOL    HW249453   3.183   8.015   5.426 -0.3131  0.9350  0.0009
15767SOL     OW49454   0.812   7.162   3.367  0.1051  0.6732 -0.7433
15767SOL    HW149455   0.886   7.163   3.307 -0.1500  0.2164 -1.0748
15767SOL    HW249456   0.746   7.219   3.327 -0.3956 -0.2940 -1.3451
15768SOL     OW49457   5.401   5.595   0.314  0.3254  0.2045  0.0041
15768SOL    HW149458   5.454   5.663   0.354 -1.3518  2.8310 -1.9214
15768SOL    HW249459   5.312   5.611   0.347  0.0898 -2.0337  0.6410
15769SOL     OW49460   0.836   1.591   4.010 -0.0910 -0.0781  0.2352
15769SOL    HW149461   0.800   1.548   3.933 -1.2083 -0.0884  0.7517
15769SOL    HW249462   0.855   1.680   3.981  2.1102 -0.8183 -0.8010
15770SOL     OW49463   6.279   3.477   7.325 -0.1096 -0.1293  0.3862
15770SOL    HW149464   6.184   3.484   7.338 -0.1424 -0.3608  0.2635
15770SOL    HW249465   6.298   3.539   7.255 -0.7010 -2.6153 -2.1749
15771SOL     OW49466   5.711   3.944   3.231  0.6004 -0.2260 -0.1957
15771SOL    HW149467   5.715   3.874   3.297 -0.6337  0.1576  0.3069
15771SOL    HW249468   5.655   3.908   3.162 -2.1327  1.1046  1.1829
15772SOL     OW49469   7.063   2.787   2.305 -0.2318 -0.2541 -0.3720
15772SOL    HW149470   7.087   2.768   2.395 -1.3468 -0.8231 -0.1810
15772SOL    HW249471   7.132   2.745   2.253  1.6194  1.8621  0.1998
15773SOL     OW49472   5.015   4.328   4.402  0.0302 -0.1688  0.1790
15773SOL    HW149473   5.034   4.317   4.495  1.2635 -0.9967 -0.1447
15773SOL    HW249474   4.982   4.243   4.374  0.0194 -0.0351 -0.2201
15774SOL     OW49475   7.349   2.416   7.712 -0.0358  0.3444  0.1038
15774SOL    HW149476   7.423   2.458   7.756 -1.6028  2.1201  1.2195
15774SOL    HW249477   7.287   2.399   7.782 -1.0760 -0.2098 -0.9306
15775SOL     OW49478   5.599   6.167   2.277  0.3227 -0.7870  0.0553
15775SOL    HW149479   5.524   6.113   2.249 -0.7346 -1.1491  3.2284
15775SOL    HW249480   5.676   6.116   2.252 -0.5701 -1.9434 -0.4387
15776SOL     OW49481   0.199   7.683   4.101 -0.0906  0.1776  0.1601
15776SOL    HW149482   0.229   7.697   4.190  0.5752  1.3140 -0.2231
15776SOL    HW249483   0.137   7.610   4.108 -0.6705  0.7727  1.6637
15777SOL     OW49484   3.416   1.874   3.388 -0.6028  0.2086 -0.0247
15777SOL    HW149485   3.483   1.924   3.340 -0.5740  1.5238  1.3196
15777SOL    HW249486   3.439   1.782   3.373  1.9405  0.6065  0.9499
15778SOL     OW49487   5.677   7.840   4.988  0.0169 -0.3785  0.4010
15778SOL    HW149488   5.675   7.930   5.020  0.1283  0.0584 -0.7626
15778SOL    HW249489   5.644   7.846   4.898 -1.0317 -1.6630  0.6672
15779SOL     OW49490   1.019   4.006   0.784 -0.5707 -0.0748 -0.1019
15779SOL    HW149491   1.028   3.978   0.693 -2.8991 -0.6868 -0.2230
15779SOL    HW249492   1.097   3.973   0.827 -0.0747 -0.9751 -1.6058
15780SOL     OW49493   4.850   5.488   6.623 -0.1880 -0.1884  0.2423
15780SOL    HW149494   4.841   5.466   6.530 -2.1813 -0.2064  0.3850
15780SOL    HW249495   4.808   5.574   6.631  2.6041  1.2395  0.6611
15781SOL     OW49496   6.380   6.972   9.224  0.0414  0.2723 -0.5639
15781SOL    HW149497   6.296   6.938   9.193  0.4626 -0.6189 -0.7879
15781SOL    HW249498   6.365   7.065   9.238 -0.9269  0.1629 -0.7869
15782SOL     OW49499   1.561   0.549   8.607 -0.4167 -0.2313  0.5032
15782SOL    HW149500   1.527   0.579   8.522  1.4705 -2.1382 -1.0462
15782SOL    HW249501   1.504   0.475   8.630 -1.4291  0.7882  1.3438
15783SOL     OW49502   7.130   6.762   6.813  0.2222  0.1253  0.0771
15783SOL    HW149503   7.118   6.697   6.883 -0.1643  0.3519  0.2237
15783SOL    HW249504   7.217   6.743   6.778  0.6003  0.2780  0.9014
15784SOL     OW49505   1.926   6.156   1.402 -0.0138 -0.0151  0.7106
15784SOL    HW149506   2.020   6.141   1.413  0.1094  0.5715  0.4806
15784SOL    HW249507   1.920   6.242   1.361 -0.6145 -0.3889 -0.0244
15785SOL     OW49508   1.094   9.354   3.599  0.3368 -0.2959 -0.1816
15785SOL    HW149509   1.022   9.317   3.547  0.8172 -0.4938 -0.7225
15785SOL    HW249510   1.119   9.283   3.658 -1.5445  0.5820  1.7824
15786SOL     OW49511   6.683   6.782   0.872  0.4103 -0.3051  0.3613
15786SOL    HW149512   6.721   6.750   0.791  0.2084  0.3366  0.0089
15786SOL    HW249513   6.747   6.843   0.907  0.3552 -0.3352  0.5182
15787SOL     OW49514   8.082   2.222   1.448  0.5420  0.0703 -0.3419
15787SOL    HW149515   8.150   2.285   1.470  0.9469 -0.1681 -0.8828
15787SOL    HW249516   8.124   2.136   1.460 -0.0346 -0.1035  0.5032
15788SOL     OW49517   1.642   8.499   3.365  0.0199  0.4912 -0.2344
15788SOL    HW149518   1.600   8.443   3.300  0.5917 -0.0303 -0.1568
15788SOL    HW249519   1.594   8.483   3.446  0.2000  0.0962 -0.2064
15789SOL     OW49520   7.358   7.831   8.931  0.1735 -0.0020  0.6071
15789SOL    HW149521   7.282   7.811   8.877 -0.1747 -0.8443  1.3820
15789SOL    HW249522   7.428   7.777   8.896  0.1420 -0.0103  0.5565
15790SOL     OW49523   7.355   4.670   5.920 -0.1632  0.3745  0.1456
15790SOL    HW149524   7.363   4.739   5.986  0.6572  1.0020 -0.5912
15790SOL    HW249525   7.385   4.591   5.964  1.2262  0.9524  0.2786
15791SOL     OW49526   1.083   9.145   8.539 -0.0557 -0.0107 -0.0717
15791SOL    HW149527   1.053   9.116   8.452  1.4937 -4.1486  0.5384
15791SOL    HW249528   1.177   9.129   8.538  0.1815  0.9718  2.0463
15792SOL     OW49529   9.456   3.575   7.518 -0.0706 -0.7818  0.2701
15792SOL    HW149530   9.376   3.554   7.565  0.1749  0.5561  1.3395
15792SOL    HW249531   9.519   3.509   7.546 -0.3007 -0.7766  0.7946
15793SOL     OW49532   1.281   4.550   4.280  0.7474  0.9274 -0.2166
15793SOL    HW149533   1.345   4.520   4.344  0.3462  1.4503  0.4486
15793SOL    HW249534   1.198   4.509   4.308  1.0404 -1.1140 -2.0260
15794SOL     OW49535   1.872   0.588   1.463  0.3364  0.5707  0.7853
15794SOL    HW149536   1.807   0.576   1.393  2.0109  0.0280 -0.7572
15794SOL    HW249537   1.859   0.514   1.521  0.9316 -0.7528 -0.6917
15795SOL     OW49538   1.230   4.013   2.614 -0.3437 -0.3847 -0.3789
15795SOL    HW149539   1.323   4.007   2.593 -0.0132 -2.2244  1.2814
15795SOL    HW249540   1.226   4.009   2.710 -2.1909 -2.0850 -0.4514
15796SOL     OW49541   7.007   3.115   2.583 -0.3514 -0.2394 -0.7537
15796SOL    HW149542   7.098   3.114   2.614 -0.3719 -2.1788 -0.6340
15796SOL    HW249543   6.964   3.180   2.639  0.7132 -0.0863 -0.0717
15797SOL     OW49544   2.074   3.286   7.887 -0.1866 -0.9342  0.2282
15797SOL    HW149545   2.044   3.350   7.822  0.1387  0.2597  1.2300
15797SOL    HW249546   2.037   3.203   7.856 -0.3963 -0.3363 -1.2486
15798SOL     OW49547   7.753   6.401   5.622 -0.3860 -0.3017 -0.1594
15798SOL    HW149548   7.807   6.478   5.642  1.1898 -1.5280  0.5788
15798SOL    HW249549   7.731   6.411   5.529 -0.1346  0.9894 -0.0976
15799SOL     OW49550   7.205   4.395   5.713  0.1262 -0.3733  0.4404
15799SOL    HW149551   7.247   4.310   5.726  1.9319  0.3255 -0.5421
15799SOL    HW249552   7.129   4.376   5.658 -0.0414 -1.4559  1.0147
15800SOL     OW49553   8.061   7.022   5.334  0.4812 -0.2540  0.2983
15800SOL    HW149554   7.971   6.992   5.346  0.7613 -1.6872 -0.8852
15800SOL    HW249555   8.060   7.064   5.248  1.4501 -2.6024 -0.9425
15801SOL     OW49556   0.216   7.116   4.078 -0.0564 -0.2426 -0.3252
15801SOL    HW149557   0.211   7.210   4.097 -1.7797 -0.5508  1.0580
15801SOL    HW249558   0.128   7.084   4.096  0.8277 -2.3635  0.5912
15802SOL     OW49559   8.128   0.812   3.694  0.6477 -0.1722 -0.4122
15802SOL    HW149560   8.074   0.861   3.632 -0.0928  1.2240  1.2716
15802SOL    HW249561   8.075   0.736   3.718  0.2690  0.1474 -0.2485
15803SOL     OW49562   3.395   6.776   0.327  0.6072 -0.2159  0.0954
15803SOL    HW149563   3.396   6.871   0.320 -3.0987 -0.1130 -1.5664
15803SOL    HW249564   3.474   6.747   0.281  1.0904  2.0383 -0.5985
15804SOL     OW49565   4.284   8.297   2.845  0.0029 -0.4600  0.4438
15804SOL    HW149566   4.292   8.212   2.888  0.2661 -0.1314  1.0578
15804SOL    HW249567   4.316   8.360   2.910  0.5349  0.0322 -0.2816
15805SOL     OW49568   8.858   6.621   2.655  0.6580 -0.1018 -1.0446
15805SOL    HW149569   8.774   6.584   2.684  0.6553 -1.1972 -2.3579
15805SOL    HW249570   8.846   6.716   2.664 -0.5514 -0.2546 -0.7752
15806SOL     OW49571   4.232   7.360   8.832  0.0860  0.6973  0.1908
15806SOL    HW149572   4.171   7.289   8.811 -0.2240  0.8215  0.6661
15806SOL    HW249573   4.287   7.326   8.902 -0.0872  0.9404  0.4464
15807SOL     OW49574   7.075   3.273   4.860 -0.2626 -0.0639 -0.3407
15807SOL    HW149575   7.155   3.289   4.810 -1.2298 -1.3987 -2.4878
15807SOL    HW249576   7.013   3.338   4.827 -0.1709  0.7843  1.1121
15808SOL     OW49577   6.562   1.103   1.178 -0.5582 -0.2031  0.5625
15808SOL    HW149578   6.588   1.175   1.235  0.3476  0.1644 -0.2928
15808SOL    HW249579   6.468   1.117   1.165 -0.2612  1.3142 -0.2275
15809SOL     OW49580   5.830   8.409   4.167  0.1199 -0.2861 -0.0311
15809SOL    HW149581   5.813   8.501   4.151  0.7011 -0.2503 -0.5009
15809SOL    HW249582   5.749   8.374   4.203 -0.4346  0.1835 -0.8121
15810SOL     OW49583   7.015   2.594   4.567  0.0184 -0.5978 -0.2277
15810SOL    HW149584   6.959   2.517   4.554 -1.0026 -0.0761  0.9157
15810SOL    HW249585   7.072   2.571   4.640 -0.9100  0.0377  0.7229
15811SOL     OW49586   4.010   0.833   0.740  0.1068 -0.2762  0.4555
15811SOL    HW149587   3.992   0.766   0.674  1.9780 -0.7970  0.4200
15811SOL    HW249588   4.098   0.864   0.719  0.6111 -0.2163  2.5146
15812SOL     OW49589   3.839   1.375   5.556 -0.0930  0.1769 -0.1473
15812SOL    HW149590   3.748   1.353   5.538 -0.0275 -1.1530  1.0112
15812SOL    HW249591   3.837   1.469   5.576 -0.7906  0.7523 -2.6201
15813SOL     OW49592   6.500   1.391   5.116  0.1215  0.2231 -0.7523
15813SOL    HW149593   6.407   1.413   5.120  0.1295  0.0985  0.8093
15813SOL    HW249594   6.504   1.313   5.060 -0.7650 -0.0065 -0.5152
15814SOL     OW49595   4.424   1.568   3.438  0.3660  0.3252 -0.2981
15814SOL    HW149596   4.389   1.556   3.526  1.2903 -0.2338  0.0170
15814SOL    HW249597   4.479   1.646   3.444  0.3098  0.3743 -0.4167
15815SOL     OW49598   5.370   5.081   4.503  0.4275 -0.0287 -0.0748
15815SOL    HW149599   5.365   5.017   4.432  1.7809 -2.0994  1.5478
15815SOL    HW249600   5.424   5.038   4.570  0.1915  2.2743  1.7334
15816SOL     OW49601   1.597   2.390   0.854  0.7903  0.6938 -0.3183
15816SOL    HW149602   1.574   2.402   0.762 -1.0364  0.4928  0.0807
15816SOL    HW249603   1.670   2.328   0.853  0.4415  0.2841 -1.5913
15817SOL     OW49604   4.577   2.869   3.769 -0.0459 -0.0377 -0.0496
15817SOL    HW149605   4.508   2.890   3.831  0.2419 -2.3085  1.1595
15817SOL    HW249606   4.658   2.897   3.813 -0.0217  0.6335 -0.5118
15818SOL     OW49607   7.436   3.771   2.244 -0.2027  0.5161  0.3480
15818SOL    HW149608   7.413   3.864   2.248  1.1116  0.9095 -0.6262
15818SOL    HW249609   7.531   3.770   2.251 -0.3206 -1.0199  3.8409
15819SOL     OW49610   2.486   5.712   0.905 -0.1058  0.6962  0.1893
15819SOL    HW149611   2.562   5.766   0.885  0.5049  0.1264  0.8905
15819SOL    HW249612   2.521   5.640   0.957 -1.2735  0.9434  1.3734
15820SOL     OW49613   6.075   2.746   7.988  0.4386 -0.1716  0.5183
15820SOL    HW149614   6.116   2.704   8.063 -0.3580 -3.7261 -0.8556
15820SOL    HW249615   5.992   2.780   8.021  0.9720  0.1347  1.6025
15821SOL     OW49616   3.406   1.567   5.682  0.0370  0.0567 -1.0691
15821SOL    HW149617   3.376   1.624   5.752 -0.9480 -1.1671 -0.4542
15821SOL    HW249618   3.431   1.626   5.612  0.7035  1.3005  0.1712
15822SOL     OW49619   4.071   2.312   8.847 -0.4609 -0.5273 -0.3539
15822SOL    HW149620   4.009   2.381   8.822  0.0099 -1.0505 -3.2787
15822SOL    HW249621   4.149   2.359   8.877 -0.8300  0.1810 -0.4880
15823SOL     OW49622   6.036   1.908   1.236 -0.0884  0.4191 -0.2467
15823SOL    HW149623   6.081   1.985   1.201  0.6741  1.0874  2.0748
15823SOL    HW249624   5.960   1.943   1.282 -0.6415 -0.3792 -0.5231
15824SOL     OW49625   1.200   2.069   2.501  0.2722 -0.3873 -0.1086
15824SOL    HW149626   1.166   2.104   2.418  1.7531  1.8469  0.1387
15824SOL    HW249627   1.138   2.100   2.567 -1.2411 -2.6653 -0.3433
15825SOL     OW49628   5.265   7.574   6.359  0.3329 -0.1358  0.1798
15825SOL    HW149629   5.293   7.513   6.291 -1.0110  1.0977 -1.5742
15825SOL    HW249630   5.343   7.625   6.381  0.6646 -0.1827 -0.8554
15826SOL     OW49631   5.937   1.361   5.082 -0.5513  0.1256  0.0502
15826SOL    HW149632   5.934   1.392   5.173 -0.8783 -0.4298  0.2362
15826SOL    HW249633   5.848   1.332   5.064 -0.5813  0.6057 -0.5881
15827SOL     OW49634   3.399   4.672   3.129  0.0006 -0.3491  0.2386
15827SOL    HW149635   3.421   4.747   3.185 -1.7575  0.0739  0.4274
15827SOL    HW249636   3.360   4.711   3.051  0.0743 -1.0240 -0.1394
15828SOL     OW49637   3.633   5.258   3.231 -0.2853 -0.3109  0.1101
15828SOL    HW149638   3.620   5.171   3.193 -1.2850  0.4210 -1.3038
15828SOL    HW249639   3.544   5.293   3.241  0.1359  0.8079  0.0245
15829SOL     OW49640   2.429   5.884   6.008 -0.2172  0.2490  0.4435
15829SOL    HW149641   2.403   5.936   5.932  0.2472  1.3327  0.9995
15829SOL    HW249642   2.350   5.877   6.061 -0.2000  0.6649  0.5227
15830SOL     OW49643   5.643   3.826   7.706  0.1324  0.3608 -0.8484
15830SOL    HW149644   5.578   3.893   7.683 -1.4684 -0.6807  0.3795
15830SOL    HW249645   5.606   3.783   7.783  0.6358 -2.5159 -2.0770
15831SOL     OW49646   4.164   9.469   9.144  0.1550 -0.9669  0.6222
15831SOL    HW149647   4.220   9.412   9.092  0.6186 -0.6262  0.7477
15831SOL    HW249648   4.138   9.416   9.219 -1.3195 -1.8048 -0.4255
15832SOL     OW49649   9.284   3.589   2.848 -0.2933  0.1975 -0.2379
15832SOL    HW149650   9.243   3.673   2.826 -2.3332 -1.0605 -1.5960
15832SOL    HW249651   9.332   3.564   2.769 -0.5020 -0.3401 -0.1998
15833SOL     OW49652   9.067   7.560   0.076 -0.4922 -0.4632  0.2453
15833SOL    HW149653   8.987   7.609   0.060 -0.8206 -0.9936  0.2612
15833SOL    HW249654   9.117   7.568  -0.006 -0.8748 -0.7287 -0.0141
15834SOL     OW49655   2.053   2.044   3.227 -0.0222 -0.5506  0.3972
15834SOL    HW149656   2.121   2.087   3.279 -0.5664 -0.8813  1.4097
15834SOL    HW249657   2.013   2.115   3.177  0.3711 -0.1943  0.5765
15835SOL     OW49658   3.396   8.430   6.045 -0.3131  0.3996 -0.5301
15835SOL    HW149659   3.489   8.450   6.036  0.2380 -1.3064  0.7872
15835SOL    HW249660   3.365   8.493   6.111 -0.3080  1.5028 -1.5554
15836SOL     OW49661   1.649   5.993   6.507  0.1688  0.5594 -0.3485
15836SOL    HW149662   1.644   5.938   6.585 -0.5049 -0.2224 -0.9179
15836SOL    HW249663   1.561   5.987   6.468  0.5538  0.7739 -1.2688
15837SOL     OW49664   2.941   8.805   5.093 -0.2817  0.5227  0.4358
15837SOL    HW149665   2.942   8.894   5.056  1.2535 -0.5855 -2.4957
15837SOL    HW249666   2.853   8.772   5.074 -0.0458  0.5652 -0.8110
15838SOL     OW49667   0.328   0.327   2.893  0.0730 -0.5305  0.3250
15838SOL    HW149668   0.322   0.422   2.894  1.9137 -0.2399 -3.1357
15838SOL    HW249669   0.240   0.297   2.915 -0.3522  1.8850  2.2905
15839SOL     OW49670   7.523   0.805   1.296 -0.1960 -0.4317 -0.3735
15839SOL    HW149671   7.601   0.758   1.325 -1.9655 -2.2427  1.8340
15839SOL    HW249672   7.538   0.895   1.323  0.6551 -0.9958  1.1639
15840SOL     OW49673   9.185   9.169   4.278  0.5916  0.3777 -0.0523
15840SOL    HW149674   9.130   9.213   4.214  0.0832  0.1492  0.2184
15840SOL    HW249675   9.173   9.218   4.359  1.1672  0.6160 -0.1057
15841SOL     OW49676   2.244   6.160   7.905 -0.0729  0.2903  0.0245
15841SOL    HW149677   2.186   6.093   7.941  0.7339  0.0486  0.9248
15841SOL    HW249678   2.234   6.235   7.964  0.7024  0.1504  0.3602
15842SOL     OW49679   9.470   1.171   3.728 -0.1458 -0.6342  0.8584
15842SOL    HW149680   9.472   1.187   3.822 -1.6316 -1.1588  0.9916
15842SOL    HW249681   9.527   1.095   3.715 -1.0381 -1.4432  1.5352
15843SOL     OW49682   5.976   0.530   9.217  0.8174  0.3014 -0.2843
15843SOL    HW149683   5.964   0.573   9.302 -0.6395 -0.2642 -0.1736
15843SOL    HW249684   6.030   0.591   9.166  1.1824  0.9289  0.8315
15844SOL     OW49685   2.639   0.420   8.271 -0.2989  0.0181  0.2611
15844SOL    HW149686   2.713   0.479   8.285 -0.4097  0.4183 -0.7679
15844SOL    HW249687   2.631   0.372   8.353  1.9420 -0.9776 -0.0277
15845SOL     OW49688   7.042   4.094   0.516 -0.4330  0.1102  0.4458
15845SOL    HW149689   6.960   4.052   0.544 -1.7277  1.7416 -0.7465
15845SOL    HW249690   7.072   4.141   0.594 -0.4272 -0.7641  0.9867
15846SOL     OW49691   1.775   7.565   2.999 -0.1409  0.0553 -0.6233
15846SOL    HW149692   1.729   7.600   3.075  1.1875  0.6089 -0.0423
15846SOL    HW249693   1.722   7.489   2.972 -1.2120  0.4900  0.1794
15847SOL     OW49694   9.315   8.678   1.584 -0.2913  0.4883 -0.1388
15847SOL    HW149695   9.269   8.654   1.503 -1.4595  0.5382  0.4831
15847SOL    HW249696   9.300   8.604   1.643  0.1284  0.6711  0.2002
15848SOL     OW49697   1.874   6.947   7.802 -0.0572  0.1410 -0.1083
15848SOL    HW149698   1.840   6.894   7.875  0.6811  0.3023  0.3631
15848SOL    HW249699   1.919   6.884   7.746 -1.1607 -0.0855 -0.7740
15849SOL     OW49700   2.300   8.232   8.751  0.2865  0.1457  0.0590
15849SOL    HW149701   2.335   8.242   8.662 -0.6235  0.6881 -0.2472
15849SOL    HW249702   2.222   8.179   8.741  0.7569 -0.6822  0.6832
15850SOL     OW49703   8.476   3.561   6.526  0.3157 -0.2965 -0.1329
15850SOL    HW149704   8.490   3.625   6.596  1.0090  1.0318 -1.4294
15850SOL    HW249705   8.476   3.477   6.571  1.7116  0.4423  1.3674
15851SOL     OW49706   4.924   8.539   7.432  0.2340  0.3345  0.5289
15851SOL    HW149707   4.866   8.575   7.499 -1.5899 -2.2405  0.4745
15851SOL    HW249708   5.007   8.523   7.478  0.2555  2.0419  1.1625
15852SOL     OW49709   4.630   0.153   7.577  0.2440 -0.3535  0.0085
15852SOL    HW149710   4.638   0.218   7.647 -0.3064 -0.2694  0.0015
15852SOL    HW249711   4.720   0.129   7.555  0.4328 -1.8562  2.1194
15853SOL     OW49712   8.332   6.809   1.245 -0.1397  0.5126 -0.1060
15853SOL    HW149713   8.295   6.869   1.310  1.6710  1.4593  0.1067
15853SOL    HW249714   8.414   6.778   1.285 -0.7988 -1.8163 -0.3858
15854SOL     OW49715   8.279   8.578   4.469 -0.6428 -0.7658  0.2735
15854SOL    HW149716   8.266   8.598   4.376  1.8222 -2.4527 -0.5601
15854SOL    HW249717   8.213   8.629   4.515  0.0445  2.6411 -2.1577
15855SOL     OW49718   6.782   4.648   2.537 -0.1246 -0.1281 -0.5813
15855SOL    HW149719   6.840   4.721   2.513  0.4691 -0.2460  0.4159
15855SOL    HW249720   6.738   4.625   2.456  1.8572 -0.5850 -1.6034
15856SOL     OW49721   8.901   9.291   2.231 -0.3993 -0.1242 -0.0698
15856SOL    HW149722   8.849   9.254   2.302 -0.5615 -0.1385 -0.1946
15856SOL    HW249723   8.908   9.220   2.167  0.6661 -0.4659  0.4130
15857SOL     OW49724   4.403   3.268   5.446  0.0238 -0.1830 -0.2095
15857SOL    HW149725   4.416   3.255   5.353 -1.5484 -1.5885 -0.2832
15857SOL    HW249726   4.447   3.195   5.488  2.2132  1.3503  0.3342
15858SOL     OW49727   0.282   1.143   6.857 -0.6942  0.8715  0.6894
15858SOL    HW149728   0.297   1.054   6.887 -1.4143  0.2801 -0.6450
15858SOL    HW249729   0.337   1.197   6.914  1.2024 -0.5750  0.2986
15859SOL     OW49730   5.802   8.165   5.228  0.3373  0.2756 -0.1170
15859SOL    HW149731   5.833   8.096   5.169 -0.3755 -0.1200 -0.0461
15859SOL    HW249732   5.863   8.163   5.302 -0.5745 -1.3843  0.6492
15860SOL     OW49733   7.211   5.599   3.461 -0.1913 -0.0639 -0.0248
15860SOL    HW149734   7.289   5.552   3.432 -1.2056 -1.4122 -0.6605
15860SOL    HW249735   7.236   5.691   3.456  1.0176 -0.4168 -1.2099
15861SOL     OW49736   4.790   3.925   5.238 -0.8260  0.6380 -0.2302
15861SOL    HW149737   4.843   3.845   5.231 -1.0786  0.3310  1.1614
15861SOL    HW249738   4.851   3.992   5.266 -0.6686  0.8938 -1.1451
15862SOL     OW49739   0.438   9.226   6.875  0.2495 -0.1063 -0.1036
15862SOL    HW149740   0.466   9.135   6.864  0.1685 -0.2861  1.0289
15862SOL    HW249741   0.501   9.276   6.823  0.0081 -0.8311 -1.1344
15863SOL     OW49742   2.775   2.997   1.551 -0.4760  0.2008 -0.4775
15863SOL    HW149743   2.863   3.034   1.543 -0.2610 -0.2940 -0.4536
15863SOL    HW249744   2.733   3.050   1.618  0.4948 -0.8197  1.0063
15864SOL     OW49745   2.312   8.216   6.639 -0.2293 -0.0064  0.2744
15864SOL    HW149746   2.247   8.249   6.577  0.0554  0.1358  0.0509
15864SOL    HW249747   2.372   8.289   6.652  0.0314 -0.2218  0.2839
15865SOL     OW49748   2.681   2.512   5.679  0.5103 -0.6277  0.3469
15865SOL    HW149749   2.694   2.536   5.770 -1.5324 -2.4478  1.2264
15865SOL    HW249750   2.703   2.591   5.629  3.6103 -0.1847  2.1958
15866SOL     OW49751   3.812   0.920   4.911 -0.2237 -0.2411 -0.2490
15866SOL    HW149752   3.769   0.916   4.996  0.0139 -1.3684 -0.1641
15866SOL    HW249753   3.903   0.896   4.929 -0.1579 -0.4337 -0.8070
15867SOL     OW49754   5.658   6.447   0.593 -0.0427 -0.2090 -0.2086
15867SOL    HW149755   5.695   6.493   0.668 -1.7278 -1.1777  1.3118
15867SOL    HW249756   5.592   6.506   0.558 -0.6996 -0.5565  0.4033
15868SOL     OW49757   2.884   2.157   2.588 -0.0610  0.9389 -0.2413
15868SOL    HW149758   2.980   2.154   2.582  0.0611  2.9966  0.0951
15868SOL    HW249759   2.857   2.190   2.502 -0.3617  1.5453  0.0798
15869SOL     OW49760   4.283   8.229   9.187  0.1274 -0.4741 -0.1544
15869SOL    HW149761   4.290   8.134   9.180 -1.9257 -0.6240 -0.7822
15869SOL    HW249762   4.314   8.262   9.102 -1.7004 -0.7856 -0.9809
15870SOL     OW49763   1.172   6.034   8.475 -0.1733  0.5894 -0.0442
15870SOL    HW149764   1.102   5.969   8.470 -1.9630  2.4130  0.1329
15870SOL    HW249765   1.201   6.044   8.384 -0.3340  0.0094 -0.1626
15871SOL     OW49766   2.063   2.000   5.268 -0.2779 -0.1716  0.2835
15871SOL    HW149767   2.016   2.044   5.339  0.1123  1.8902 -0.6564
15871SOL    HW249768   1.993   1.963   5.213 -0.5627 -2.3946  2.0399
15872SOL     OW49769   9.472   7.562   0.408 -0.1218 -0.5454 -0.4823
15872SOL    HW149770   9.440   7.618   0.337  1.2587 -0.2841 -0.9207
15872SOL    HW249771   9.563   7.545   0.386 -0.2101 -2.0697  0.2348
15873SOL     OW49772   6.097   4.026   5.946 -0.2914  0.0977  0.2273
15873SOL    HW149773   6.041   4.050   5.872  0.2945 -1.1294 -0.6697
15873SOL    HW249774   6.185   4.054   5.919  0.2102 -1.8012 -0.3399
15874SOL     OW49775   1.410   4.056   6.271 -0.5295  0.4616 -0.2404
15874SOL    HW149776   1.319   4.033   6.287 -0.7299  1.3723  0.0043
15874SOL    HW249777   1.406   4.145   6.235  0.1159 -0.3228 -2.4487
15875SOL     OW49778   2.564   1.542   1.180 -0.1079  0.2513 -0.3079
15875SOL    HW149779   2.534   1.624   1.219  1.1093  0.3543  0.4438
15875SOL    HW249780   2.484   1.503   1.143 -0.7306  1.6829 -0.5496
15876SOL     OW49781   6.670   3.696   3.910 -0.4191  0.0217  0.1191
15876SOL    HW149782   6.659   3.612   3.955 -0.9535  0.1579  0.2537
15876SOL    HW249783   6.751   3.732   3.947  0.2748 -0.8086 -0.5574
15877SOL     OW49784   6.342   7.654   6.973  0.0269  0.0021 -0.0528
15877SOL    HW149785   6.392   7.726   7.011 -0.7931  0.0853  0.8887
15877SOL    HW249786   6.380   7.643   6.886  1.5782  0.1738  0.5608
15878SOL     OW49787   4.571   2.481   2.443 -0.1026 -0.0499  0.6823
15878SOL    HW149788   4.592   2.421   2.371 -0.5611  0.4077  0.1564
15878SOL    HW249789   4.500   2.535   2.409  0.0114  0.5052  1.3080
15879SOL     OW49790   7.472   3.466   7.914 -0.2336 -0.3220 -0.2333
15879SOL    HW149791   7.490   3.409   7.839  1.7291  1.4260 -1.1767
15879SOL    HW249792   7.377   3.461   7.925 -0.4905 -1.2541 -2.3404
15880SOL     OW49793   2.065   0.622   1.854 -0.4511  0.2861 -0.0997
15880SOL    HW149794   2.103   0.658   1.774 -0.4355  0.9256  0.1891
15880SOL    HW249795   2.137   0.575   1.896 -0.4275  0.0540 -0.3965
15881SOL     OW49796   3.352   4.561   0.098  0.8047 -0.3983 -0.8003
15881SOL    HW149797   3.443   4.585   0.081  1.2937 -1.9198 -0.5077
15881SOL    HW249798   3.326   4.617   0.170  2.0348 -0.9952  0.1503
15882SOL     OW49799   8.227   3.286   7.555  0.1784  0.3837  0.0724
15882SOL    HW149800   8.231   3.382   7.561  0.5611  0.3185  1.1391
15882SOL    HW249801   8.312   3.261   7.518 -0.4211  0.5141 -1.4709
15883SOL     OW49802   4.924   3.343   3.291  0.2124  0.1214  0.0355
15883SOL    HW149803   5.007   3.378   3.257  0.4628 -0.4040  0.0938
15883SOL    HW249804   4.944   3.317   3.381  0.4215 -1.4778 -0.4483
15884SOL     OW49805   9.611   8.558   1.259  0.3431 -0.0260  0.4813
15884SOL    HW149806   9.622   8.652   1.243 -0.5380  0.0673  0.3518
15884SOL    HW249807   9.686   8.534   1.312 -0.1104  1.0441  1.6754
15885SOL     OW49808   0.528   3.295   0.005 -0.0811 -0.0983 -0.5450
15885SOL    HW149809   0.596   3.297   0.073 -0.9295 -0.8847  0.3664
15885SOL    HW249810   0.529   3.383  -0.033 -0.3143  0.7316  1.2512
15886SOL     OW49811   4.504   1.774   0.257  0.3800  0.0239  0.4841
15886SOL    HW149812   4.508   1.687   0.297  1.7094 -0.4203 -0.5269
15886SOL    HW249813   4.580   1.820   0.292 -0.9826  1.2447  1.9511
15887SOL     OW49814   2.045   4.658   8.131 -0.2578  0.0998  0.5170
15887SOL    HW149815   2.081   4.622   8.050  0.3992 -0.9203  1.2389
15887SOL    HW249816   1.977   4.596   8.157  0.1684 -0.0924  1.2204
15888SOL     OW49817   1.141   2.479   5.988  0.1810 -0.2414  0.0083
15888SOL    HW149818   1.176   2.460   6.075 -0.7731  2.3996  1.0570
15888SOL    HW249819   1.048   2.458   5.994  0.4123 -1.6488 -0.9433
15889SOL     OW49820   1.162   8.851   2.506  0.0848 -0.2951  0.6992
15889SOL    HW149821   1.090   8.871   2.566 -0.7579 -2.3897  0.4672
15889SOL    HW249822   1.227   8.806   2.559  0.4731  0.0853  0.5529
15890SOL     OW49823   7.244   0.496   2.350 -0.3181 -0.3136 -0.2584
15890SOL    HW149824   7.311   0.454   2.405  0.5839  1.9972  0.5259
15890SOL    HW249825   7.294   0.555   2.294 -1.5971  0.3838 -0.6884
15891SOL     OW49826   0.942   8.711   3.847  0.6646 -0.5478  0.2422
15891SOL    HW149827   0.863   8.742   3.892 -0.1685  0.8488 -1.9798
15891SOL    HW249828   0.995   8.790   3.835  0.3376 -0.6345 -2.1165
15892SOL     OW49829   7.235   6.143   8.845 -0.0072 -0.5498 -0.5828
15892SOL    HW149830   7.265   6.056   8.817  0.5841 -0.3107 -0.6993
15892SOL    HW249831   7.218   6.190   8.764 -1.0818 -0.8078 -0.5180
15893SOL     OW49832   8.761   0.925   9.074  0.0384  0.0091 -0.0458
15893SOL    HW149833   8.784   0.842   9.115  0.7930 -0.1449 -0.7508
15893SOL    HW249834   8.805   0.923   8.989  0.4457  1.3276  0.1088
15894SOL     OW49835   5.390   2.208   9.114 -0.4014 -0.2800 -0.6147
15894SOL    HW149836   5.311   2.160   9.141 -0.6100  0.3136 -0.1618
15894SOL    HW249837   5.434   2.231   9.195  0.0451 -0.2790 -0.8539
15895SOL     OW49838   2.318   6.475   6.840 -0.6502 -0.1161 -0.4113
15895SOL    HW149839   2.297   6.565   6.865 -1.5618 -0.4474  0.0624
15895SOL    HW249840   2.407   6.480   6.806 -0.8354  1.0356 -0.7800
15896SOL     OW49841   3.734   4.456   0.883 -0.4037 -0.2054 -0.3574
15896SOL    HW149842   3.734   4.410   0.799  0.7082  2.0805 -1.7089
15896SOL    HW249843   3.823   4.445   0.916 -0.0349  1.1251 -0.8423
15897SOL     OW49844   2.321   1.710   0.821 -0.1487 -0.0042  0.4285
15897SOL    HW149845   2.384   1.640   0.838 -2.2148 -1.6837  1.6272
15897SOL    HW249846   2.335   1.773   0.892  0.1333 -0.3977  0.7283
15898SOL     OW49847   5.701   5.289   0.335 -0.5600 -0.1695  0.0777
15898SOL    HW149848   5.762   5.225   0.298 -1.5966 -0.7535 -0.6756
15898SOL    HW249849   5.733   5.374   0.305  0.4243 -0.3887  0.4882
15899SOL     OW49850   1.554   3.346   4.995  0.2287 -0.2868 -0.0501
15899SOL    HW149851   1.563   3.438   5.018  1.6835  0.0645 -1.7991
15899SOL    HW249852   1.508   3.347   4.910  1.0646 -1.0877 -0.5287
15900SOL     OW49853   5.414   3.095   5.352  0.2465 -0.0690 -0.1957
15900SOL    HW149854   5.473   3.045   5.408  3.0320  1.7167 -1.3631
15900SOL    HW249855   5.408   3.181   5.394 -2.2689 -0.3973  0.3075
15901SOL     OW49856   1.268   2.332   6.636 -0.6873 -0.4358  0.1247
15901SOL    HW149857   1.298   2.292   6.718  1.0025  1.6969  0.6399
15901SOL    HW249858   1.315   2.284   6.568  0.4333 -0.1221  0.6501
15902SOL     OW49859   4.396   0.384   6.503  0.0884 -0.9179  0.4965
15902SOL    HW149860   4.400   0.417   6.592 -0.9647 -0.6851  0.4601
15902SOL    HW249861   4.342   0.305   6.509 -0.8101 -0.3623 -0.0872
15903SOL     OW49862   6.212   8.672   1.567 -0.2193  0.3016 -0.4215
15903SOL    HW149863   6.201   8.762   1.598  1.1778  0.6657 -0.8815
15903SOL    HW249864   6.124   8.635   1.568 -0.9952  1.9966 -1.1895
15904SOL     OW49865   7.424   8.080   4.578 -0.4872 -0.7226  0.3580
15904SOL    HW149866   7.506   8.031   4.574  0.6871  1.0012  1.8042
15904SOL    HW249867   7.442   8.160   4.529  0.5055  1.9513  4.5660
15905SOL     OW49868   7.441   8.618   1.638 -0.4966  0.0325 -0.2008
15905SOL    HW149869   7.350   8.643   1.650 -0.2570  0.4027  0.9650
15905SOL    HW249870   7.479   8.621   1.726  0.9986  1.2777 -0.8334
15906SOL     OW49871   4.961   3.274   9.540  0.0676 -0.6331  0.5674
15906SOL    HW149872   4.904   3.197   9.533 -0.7992  0.0107  0.2848
15906SOL    HW249873   4.927   3.334   9.474  0.0976  0.3863  1.4623
15907SOL     OW49874   6.496   7.654   7.588 -0.0450  0.1894  0.3893
15907SOL    HW149875   6.440   7.675   7.513  0.1833  2.3202  0.7538
15907SOL    HW249876   6.577   7.703   7.572 -0.3574  1.5104  2.4419
15908SOL     OW49877   0.779   4.163   8.113 -0.0348  0.0002 -0.0626
15908SOL    HW149878   0.797   4.147   8.020  1.8352  0.1936  0.2251
15908SOL    HW249879   0.736   4.084   8.144  1.0326 -0.8497 -0.6917
15909SOL     OW49880   0.579   5.362   7.221  0.2465  0.5020 -0.5253
15909SOL    HW149881   0.553   5.442   7.267 -3.0914 -1.3256  1.1734
15909SOL    HW249882   0.652   5.328   7.273 -1.0319  0.4042  1.3259
15910SOL     OW49883   3.713   4.215   6.715 -0.1360 -0.5470  0.3682
15910SOL    HW149884   3.645   4.249   6.657 -1.3933  0.7665  2.4946
15910SOL    HW249885   3.666   4.157   6.775  1.1098 -1.7490  0.2315
15911SOL     OW49886   8.633   4.726   7.672  0.1533 -0.3834 -0.0399
15911SOL    HW149887   8.670   4.806   7.708 -1.7944  0.5299  0.0857
15911SOL    HW249888   8.671   4.719   7.584  0.1206  0.8504 -0.1673
15912SOL     OW49889   4.987   2.563   2.633  0.0127  0.3037  0.4371
15912SOL    HW149890   4.970   2.502   2.704  0.7948  0.2157  0.5606
15912SOL    HW249891   5.066   2.610   2.660  0.0806  0.5616 -0.1861
15913SOL     OW49892   1.148   1.754   9.085  0.1236  0.0077 -0.3720
15913SOL    HW149893   1.206   1.829   9.069  0.4237 -0.3665 -1.0732
15913SOL    HW249894   1.103   1.740   9.002  0.8887 -1.2901 -0.5935
15914SOL     OW49895   3.126   7.362   6.266  0.2413  0.5298  0.2978
15914SOL    HW149896   3.125   7.451   6.302  1.2569  0.7803 -0.2713
15914SOL    HW249897   3.037   7.349   6.232 -0.4741  0.6259  2.0325
15915SOL     OW49898   8.448   2.995   8.614  0.2826  0.2836  0.7166
15915SOL    HW149899   8.429   2.916   8.564  0.0981  0.2084  0.9017
15915SOL    HW249900   8.383   2.995   8.684 -0.3554  1.1202  0.1448
15916SOL     OW49901   4.759   4.377   5.000  0.7582 -0.1332 -0.1938
15916SOL    HW149902   4.735   4.367   5.092 -1.3731 -0.0575 -0.6982
15916SOL    HW249903   4.762   4.288   4.966 -3.6121 -0.1179 -1.1847
15917SOL     OW49904   6.919   7.680   9.130  0.4140  0.1551 -0.2894
15917SOL    HW149905   6.872   7.597   9.136  0.6846  0.0230  0.0459
15917SOL    HW249906   6.993   7.670   9.190  0.7327  0.4497 -0.6263
15918SOL     OW49907   5.667   1.469   4.754  0.2458  0.0797 -0.0980
15918SOL    HW149908   5.670   1.391   4.698 -0.7543  0.0393 -0.1157
15918SOL    HW249909   5.639   1.539   4.696 -2.2436 -0.2494  0.6141
15919SOL     OW49910   1.938   0.360   6.083  0.0332  0.0703  0.0588
15919SOL    HW149911   1.964   0.415   6.008 -0.3236  0.8673  0.5031
15919SOL    HW249912   2.015   0.306   6.100  0.2840  0.2068 -0.5949
15920SOL     OW49913   6.821   4.264   2.080 -0.2548  0.2057  0.6189
15920SOL    HW149914   6.903   4.272   2.031 -0.2201 -0.6286  0.5148
15920SOL    HW249915   6.782   4.351   2.077 -0.5746  0.0417 -1.4949
15921SOL     OW49916   3.807   8.961   2.131  0.2271  1.0580 -0.4160
15921SOL    HW149917   3.795   8.902   2.057 -2.6276  1.9660 -0.7989
15921SOL    HW249918   3.866   9.030   2.099 -0.3521  1.0171 -1.6022
15922SOL     OW49919   8.150   2.418   1.751 -0.3645  0.0776  0.0418
15922SOL    HW149920   8.205   2.434   1.675 -0.4460  0.4585  0.0592
15922SOL    HW249921   8.065   2.456   1.728 -1.3449 -2.5414 -0.9079
15923SOL     OW49922   1.231   8.181   7.298  0.0728 -0.0801  0.2680
15923SOL    HW149923   1.315   8.191   7.342  0.3955  1.3879 -0.6210
15923SOL    HW249924   1.215   8.266   7.256 -1.3051 -0.6957 -0.5369
15924SOL     OW49925   4.764   3.245   1.750  0.2657 -0.3948 -0.1097
15924SOL    HW149926   4.789   3.326   1.795 -2.1656  2.0506 -2.6892
15924SOL    HW249927   4.833   3.231   1.686  0.8040 -0.4883  0.4840
15925SOL     OW49928   6.800   7.898   2.010 -0.2994  0.1502  0.4312
15925SOL    HW149929   6.808   7.806   1.982 -0.3727  0.1220  0.5040
15925SOL    HW249930   6.848   7.902   2.092  0.4689  0.3767 -0.0139
15926SOL     OW49931   2.791   0.996   4.254  0.1562 -0.7363  0.9935
15926SOL    HW149932   2.785   1.039   4.339  0.4283  3.2012 -0.7522
15926SOL    HW249933   2.885   0.981   4.242  0.2642 -0.0068  0.8636
15927SOL     OW49934   2.640   2.996   8.271  0.0236 -0.1894  0.1915
15927SOL    HW149935   2.560   3.016   8.319  0.9751 -0.3034  1.9203
15927SOL    HW249936   2.638   2.901   8.260  0.5132 -0.3677  1.4276
15928SOL     OW49937   8.275   7.374   0.175  0.7169  0.2858  0.1199
15928SOL    HW149938   8.301   7.446   0.233 -1.8720  0.2073  1.4884
15928SOL    HW249939   8.330   7.300   0.203  1.4274  0.9687  0.5805
15929SOL     OW49940   8.036   9.257   9.031  0.6553 -0.1002 -0.1054
15929SOL    HW149941   8.082   9.227   8.952  2.3053  3.4902 -0.7176
15929SOL    HW249942   7.966   9.312   8.998 -0.6705 -1.0927  0.9610
15930SOL     OW49943   5.586   4.553   6.026 -0.7035  0.2702  0.1492
15930SOL    HW149944   5.596   4.562   5.932  0.9714 -2.5983 -0.0577
15930SOL    HW249945   5.670   4.518   6.057 -1.6909 -0.2765  2.4735
15931SOL     OW49946   0.841   7.055   0.867  0.2384 -0.3462 -0.2108
15931SOL    HW149947   0.751   7.024   0.858 -0.2260  0.4227  1.5057
15931SOL    HW249948   0.833   7.145   0.898  1.6019 -0.2836  0.0402
15932SOL     OW49949   7.871   5.779   2.454  0.1134  0.2373  0.4406
15932SOL    HW149950   7.875   5.870   2.424 -0.1305  0.3794  0.8306
15932SOL    HW249951   7.958   5.743   2.433  0.0911  0.4564 -0.0297
15933SOL     OW49952   7.940   7.420   4.184 -0.3761 -0.2337 -1.0487
15933SOL    HW149953   8.012   7.364   4.156  1.4904  0.8170  1.3232
15933SOL    HW249954   7.946   7.497   4.127  2.4288  1.2237  1.0124
15934SOL     OW49955   3.911   4.852   0.300  0.3894  0.4647 -0.6101
15934SOL    HW149956   3.920   4.922   0.236  0.5530  0.0150 -1.0894
15934SOL    HW249957   3.888   4.896   0.382 -1.6698  0.9071 -1.3651
15935SOL     OW49958   7.522   3.657   2.609  0.0033 -0.2464 -0.4461
15935SOL    HW149959   7.555   3.735   2.651  0.9010 -0.2343 -1.1550
15935SOL    HW249960   7.588   3.634   2.544 -1.0989 -0.5590 -1.4905
15936SOL     OW49961   5.060   5.662   7.389 -0.2153  0.2141 -0.1445
15936SOL    HW149962   4.996   5.591   7.391  0.7841 -0.7165 -0.6890
15936SOL    HW249963   5.046   5.709   7.471  0.4569 -1.8347  1.2080
15937SOL     OW49964   5.836   9.476   0.795 -0.3438 -0.2789  0.4621
15937SOL    HW149965   5.871   9.554   0.839 -0.5281 -0.8543  1.6659
15937SOL    HW249966   5.769   9.511   0.736  0.4538  0.5839  0.0309
15938SOL     OW49967   3.195   8.466   7.800  0.1308 -0.3619  0.0551
15938SOL    HW149968   3.220   8.396   7.740 -1.6693  0.3636 -1.6541
15938SOL    HW249969   3.100   8.464   7.801  0.0056  2.1162 -0.1633
15939SOL     OW49970   0.324   0.332   6.897  0.1522 -0.2494 -0.8820
15939SOL    HW149971   0.413   0.297   6.903 -0.1244 -0.7219  1.2155
15939SOL    HW249972   0.312   0.379   6.980 -0.8698  1.5276 -1.9707
15940SOL     OW49973   4.205   0.491   0.433 -0.7031 -0.1044 -0.2122
15940SOL    HW149974   4.142   0.439   0.483 -1.4862  1.1779  0.1701
15940SOL    HW249975   4.159   0.514   0.352 -0.3965  0.0556 -0.3423
15941SOL     OW49976   7.609   3.116   1.080 -0.5320 -0.1347  0.3075
15941SOL    HW149977   7.631   3.189   1.139 -2.0809  0.4730  0.1974
15941SOL    HW249978   7.640   3.144   0.994 -0.1430 -0.0972  0.4568
15942SOL     OW49979   2.091   7.643   5.903 -0.6159 -0.5288 -0.7593
15942SOL    HW149980   2.089   7.729   5.861  0.9676  0.1932  0.5287
15942SOL    HW249981   2.183   7.617   5.901 -0.7826 -1.3163  0.5706
15943SOL     OW49982   4.201   1.685   0.349 -0.6099 -0.4857  0.3036
15943SOL    HW149983   4.219   1.592   0.335 -2.8522 -0.7024 -1.8071
15943SOL    HW249984   4.284   1.721   0.380  0.9162 -2.7913 -0.8337
15944SOL     OW49985   3.674   8.641   3.101  0.2877  0.3188 -0.0368
15944SOL    HW149986   3.619   8.617   3.176 -0.4476 -1.5831 -1.1086
15944SOL    HW249987   3.625   8.711   3.057 -1.2837 -1.2305 -0.8786
15945SOL     OW49988   5.920   6.026   1.733  0.4175 -0.2191  0.7503
15945SOL    HW149989   5.945   6.118   1.733 -0.6394  0.1351 -1.4353
15945SOL    HW249990   5.825   6.027   1.744  0.5584 -1.1769  2.3604
15946SOL     OW49991   1.531   0.482   0.065  0.0646  0.4531  0.3807
15946SOL    HW149992   1.600   0.441   0.116  0.3167 -0.6497 -0.8062
15946SOL    HW249993   1.565   0.483  -0.025 -0.6549  1.6930  0.0989
15947SOL     OW49994   3.044   1.326   5.762  0.0181 -0.4707 -0.2688
15947SOL    HW149995   2.948   1.330   5.763  0.0009 -0.8012 -0.2569
15947SOL    HW249996   3.066   1.313   5.669  0.1038  0.5901 -0.4084
15948SOL     OW49997   1.087   4.344   0.870  0.4856 -0.1443  0.0728
15948SOL    HW149998   1.014   4.292   0.903  0.1940  0.4684  0.4157
15948SOL    HW249999   1.165   4.304   0.908  0.5128 -1.8673 -1.6469
15949SOL     OW50000   1.609   4.465   8.852 -0.2414  0.6623  0.4054
15949SOL    HW150001   1.635   4.391   8.797 -0.6048  0.7613  0.0964
15949SOL    HW250002   1.600   4.428   8.940 -0.5415  0.3132  0.2279
15950SOL     OW50003   7.110   9.015   5.676  0.0431  0.1195  0.1339
15950SOL    HW150004   7.129   8.923   5.696  0.8497  0.1294 -0.5750
15950SOL    HW250005   7.049   9.042   5.745  0.9119 -0.5363  1.1905
15951SOL     OW50006   1.485   4.803   3.005  0.8590 -0.2596 -0.4452
15951SOL    HW150007   1.476   4.729   2.945  1.0203 -1.6574  1.1719
15951SOL    HW250008   1.536   4.868   2.956 -0.0196 -0.8412 -2.2092
15952SOL     OW50009   0.452   5.049   0.740  0.2299  0.1310  0.2203
15952SOL    HW150010   0.520   5.049   0.808 -0.8476  0.1358  1.3191
15952SOL    HW250011   0.470   5.129   0.689  1.3623 -0.1447  0.1466
15953SOL     OW50012   0.936   2.404   0.826 -0.1158  0.0503  0.2803
15953SOL    HW150013   0.964   2.465   0.894  0.8838  1.1922 -1.1031
15953SOL    HW250014   0.857   2.443   0.789  1.2078  1.2679 -1.4540
15954SOL     OW50015   2.719   1.826   2.937 -0.6610  0.1669 -0.7119
15954SOL    HW150016   2.809   1.851   2.959 -1.1846  1.5437  0.0236
15954SOL    HW250017   2.696   1.882   2.862 -1.1022  0.2724 -0.5046
15955SOL     OW50018   8.526   6.700   1.403 -0.4991  0.3217  0.4631
15955SOL    HW150019   8.470   6.627   1.428 -0.1787 -0.3027 -0.5949
15955SOL    HW250020   8.578   6.718   1.481 -0.1699 -0.9751  0.5539
15956SOL     OW50021   3.132   1.793   4.585  0.4773  0.1265  0.2644
15956SOL    HW150022   3.105   1.842   4.663  0.5218 -1.0840  1.0550
15956SOL    HW250023   3.073   1.824   4.516 -0.1548  0.5514  0.9784
15957SOL     OW50024   6.065   2.466   5.378 -0.3749  0.1460 -0.3608
15957SOL    HW150025   6.124   2.390   5.376 -1.3778 -0.6641  0.1972
15957SOL    HW250026   6.040   2.479   5.287 -1.2659 -1.0597 -0.3067
15958SOL     OW50027   4.303   4.368   2.035  0.5877  0.1618 -0.4349
15958SOL    HW150028   4.247   4.291   2.030  3.3163 -2.2183  1.9666
15958SOL    HW250029   4.259   4.426   2.098 -1.3383  0.5199 -2.0325
15959SOL     OW50030   6.017   7.491   4.936  0.2544  0.1211  0.0478
15959SOL    HW150031   5.927   7.515   4.959 -0.1691  0.3512 -1.7292
15959SOL    HW250032   6.014   7.471   4.843  1.9441 -0.4511  0.0756
15960SOL     OW50033   2.391   4.856   6.253  0.0439  0.4926  0.0738
15960SOL    HW150034   2.425   4.910   6.324 -0.4832  2.1511 -0.8761
15960SOL    HW250035   2.453   4.870   6.181 -0.7584  0.8018 -0.5655
15961SOL     OW50036   2.882   3.168   7.538  0.2269  1.2164 -0.0031
15961SOL    HW150037   2.944   3.133   7.474  1.1945  1.4747  0.7545
15961SOL    HW250038   2.826   3.228   7.488 -0.3132 -0.0572 -0.9677
15962SOL     OW50039   5.009   7.630   8.307  0.0619  0.5089  0.6734
15962SOL    HW150040   5.061   7.707   8.281 -1.8178  1.5283 -0.3167
15962SOL    HW250041   4.998   7.639   8.401 -0.5444  1.7651  0.5023
15963SOL     OW50042   1.006   8.429   2.499 -0.1398 -0.0163 -0.4858
15963SOL    HW150043   1.000   8.344   2.544 -3.3201  0.4881  0.3380
15963SOL    HW250044   1.001   8.408   2.406 -0.3726 -0.7812 -0.3060
15964SOL     OW50045   1.667   0.355   3.933  0.2259  0.4040 -0.2272
15964SOL    HW150046   1.629   0.269   3.950 -0.3051  0.1068 -2.5657
15964SOL    HW250047   1.592   0.412   3.920  0.5828  1.1340  0.8245
15965SOL     OW50048   6.257   6.036   6.914  0.3923 -0.1655 -0.0173
15965SOL    HW150049   6.253   6.050   6.819 -1.5039 -1.0357 -0.1009
15965SOL    HW250050   6.277   5.943   6.924 -1.5649 -0.5936  0.3657
15966SOL     OW50051   4.408   0.875   8.665  0.0454 -0.3662  0.1154
15966SOL    HW150052   4.459   0.889   8.744  0.5500 -0.0911 -0.2526
15966SOL    HW250053   4.319   0.903   8.688 -0.1506 -1.6601  1.0222
15967SOL     OW50054   7.723   7.341   0.564 -0.3109  0.0880 -0.1237
15967SOL    HW150055   7.776   7.328   0.642  0.3799 -0.2002 -0.6353
15967SOL    HW250056   7.774   7.303   0.493 -0.3612  1.4433 -0.9187
15968SOL     OW50057   8.235   1.989   6.678  0.6695 -0.3494 -0.3150
15968SOL    HW150058   8.237   1.904   6.721  0.9235  0.5590  1.5635
15968SOL    HW250059   8.292   2.044   6.732 -0.6065  1.3766 -0.6775
15969SOL     OW50060   8.876   0.250   5.646 -0.4692 -0.5943  0.8341
15969SOL    HW150061   8.909   0.284   5.729  0.9424 -0.4379  0.2293
15969SOL    HW250062   8.912   0.161   5.641 -2.6040 -1.5728  1.5284
15970SOL     OW50063   8.059   4.971   8.803  0.2658 -0.5379 -0.2601
15970SOL    HW150064   8.027   5.016   8.725  0.6336 -0.5134 -0.3949
15970SOL    HW250065   7.983   4.971   8.863  0.5476  1.1758  0.1571
15971SOL     OW50066   3.447   5.246   4.668 -0.6569 -0.0702  0.4644
15971SOL    HW150067   3.476   5.286   4.751 -0.3362 -1.5585  1.0998
15971SOL    HW250068   3.462   5.315   4.603  0.5701  0.6072  1.3936
15972SOL     OW50069   7.689   4.810   5.726 -0.5330 -0.5015 -0.0385
15972SOL    HW150070   7.646   4.894   5.745  0.2736 -0.1980  0.4785
15972SOL    HW250071   7.731   4.824   5.641 -0.7018 -0.5058 -0.1239
15973SOL     OW50072   2.317   1.085   4.890 -0.1579  0.4261 -0.4140
15973SOL    HW150073   2.349   1.157   4.943  0.2291  0.5671 -0.8300
15973SOL    HW250074   2.381   1.077   4.819  1.0301 -1.7471  0.8130
15974SOL     OW50075   3.015   5.478   7.435 -0.5458 -0.6479  0.0912
15974SOL    HW150076   2.960   5.545   7.393 -0.1062 -0.5726 -0.3754
15974SOL    HW250077   3.018   5.406   7.372  0.5918 -0.2985 -0.2745
15975SOL     OW50078   4.745   7.399   7.891  0.2825  0.2091  0.1706
15975SOL    HW150079   4.742   7.471   7.955  0.5893 -0.0315  0.4577
15975SOL    HW250080   4.687   7.428   7.821 -0.6306  0.1589  0.8798
15976SOL     OW50081   0.867   1.767   0.707  0.1781  0.3098 -0.5257
15976SOL    HW150082   0.847   1.811   0.790  2.7214 -1.5525  1.2275
15976SOL    HW250083   0.944   1.814   0.674  0.2508 -0.0683 -0.8929
15977SOL     OW50084   7.711   1.821   4.620  0.1340 -0.3519  0.2422
15977SOL    HW150085   7.700   1.728   4.640  0.9002 -0.6920 -0.8524
15977SOL    HW250086   7.704   1.864   4.705 -1.1244 -1.3136  0.6561
15978SOL     OW50087   1.474   8.915   8.272 -0.0565 -0.0608 -0.2925
15978SOL    HW150088   1.559   8.955   8.253  0.5343 -1.9117 -1.8797
15978SOL    HW250089   1.440   8.891   8.186  0.4880 -4.5291  0.4940
15979SOL     OW50090   2.346   3.776   0.311 -0.5500  0.5056 -0.1329
15979SOL    HW150091   2.389   3.820   0.384 -0.3803 -1.6067  1.1045
15979SOL    HW250092   2.417   3.741   0.258 -0.5832 -1.9825  1.2898
15980SOL     OW50093   3.036   4.838   2.288  0.3145 -0.3240  0.0199
15980SOL    HW150094   3.043   4.904   2.219 -0.3153 -0.2891 -0.0129
15980SOL    HW250095   3.027   4.888   2.369  2.1607 -0.3465  0.2764
15981SOL     OW50096   8.119   1.974   9.121  0.0566 -0.5964  0.0876
15981SOL    HW150097   8.163   2.059   9.115  0.0657 -0.4964  1.4103
15981SOL    HW250098   8.129   1.937   9.033 -0.9917  1.2596 -0.8927
15982SOL     OW50099   8.278   0.261   5.464 -0.0640 -0.2217 -0.1189
15982SOL    HW150100   8.293   0.177   5.422 -2.1917 -0.1657 -1.1171
15982SOL    HW250101   8.196   0.293   5.426 -0.1197  1.5897  1.3608
15983SOL     OW50102   6.941   7.531   2.172 -0.2529 -0.2098  0.4913
15983SOL    HW150103   6.997   7.506   2.245  1.1442 -0.2182 -0.5560
15983SOL    HW250104   6.971   7.618   2.147 -0.9741 -0.0467  0.1694
15984SOL     OW50105   6.240   1.859   2.614  0.0460  0.3208 -0.0949
15984SOL    HW150106   6.195   1.778   2.640 -2.4798  1.7614  0.3017
15984SOL    HW250107   6.333   1.835   2.615 -0.6198 -3.0071 -1.4976
15985SOL     OW50108   8.676   3.658   4.984 -0.3300  0.3941 -0.1301
15985SOL    HW150109   8.615   3.632   4.915 -0.7899  2.5034 -0.6103
15985SOL    HW250110   8.737   3.719   4.941 -0.1761  1.1787  1.1326
15986SOL     OW50111   0.824   4.820   3.632  0.1041  0.0351 -0.1669
15986SOL    HW150112   0.833   4.748   3.694 -0.8484 -1.0501 -1.2395
15986SOL    HW250113   0.892   4.805   3.567 -0.0393  0.1581 -0.3485
15987SOL     OW50114   7.308   6.071   1.845 -0.0416  0.1843  0.2482
15987SOL    HW150115   7.277   6.029   1.765 -1.8052 -0.5880  1.2916
15987SOL    HW250116   7.237   6.059   1.908  0.7384  1.9451  1.5484
15988SOL     OW50117   4.279   1.998   5.513  0.1064 -0.2169 -0.3447
15988SOL    HW150118   4.272   1.983   5.607 -0.3065 -0.4320 -0.4080
15988SOL    HW250119   4.281   2.094   5.505  2.1179 -0.1922  0.0098
15989SOL     OW50120   0.897   6.239   1.779 -0.4870 -0.4827 -0.6586
15989SOL    HW150121   0.963   6.219   1.713  0.5906  2.2391 -0.5506
15989SOL    HW250122   0.814   6.212   1.740  0.3614 -0.9833 -2.1800
15990SOL     OW50123   3.011   6.317   3.361 -0.1483  0.4405 -0.3193
15990SOL    HW150124   3.096   6.355   3.337  0.9922 -1.8240 -0.1688
15990SOL    HW250125   3.008   6.234   3.313 -2.6340  0.7726 -0.8702
15991SOL     OW50126   6.390   0.611   5.643  0.4267 -0.4428  0.2383
15991SOL    HW150127   6.338   0.681   5.603 -0.0776 -0.9338  0.0221
15991SOL    HW250128   6.420   0.648   5.726  0.9176  0.3466 -0.2786
15992SOL     OW50129   7.265   5.457   6.362 -0.2025 -0.2741  0.2719
15992SOL    HW150130   7.270   5.553   6.360  1.1271 -0.2707  1.7711
15992SOL    HW250131   7.324   5.432   6.432 -0.8983 -2.1906  0.2200
15993SOL     OW50132   0.078   3.325   6.627  0.6801  0.0020  0.2017
15993SOL    HW150133   0.030   3.268   6.566  0.8528 -0.3397  0.3852
15993SOL    HW250134   0.163   3.337   6.586  0.7558 -0.1332  0.3191
15994SOL     OW50135   8.285   2.255   1.922  0.7657 -0.5410  0.2106
15994SOL    HW150136   8.214   2.302   1.878 -0.1079 -1.2280  0.8482
15994SOL    HW250137   8.364   2.305   1.901  0.6026 -1.4264 -3.0734
15995SOL     OW50138   8.505   3.202   9.522 -0.3104  0.1060 -0.4538
15995SOL    HW150139   8.588   3.229   9.562 -1.3003  1.4268  0.8311
15995SOL    HW250140   8.465   3.284   9.492 -1.1396 -0.5111 -1.0822
15996SOL     OW50141   3.006   7.284   8.259  0.4049 -0.0899 -0.3240
15996SOL    HW150142   2.947   7.341   8.211  2.9646  0.7405 -2.7493
15996SOL    HW250143   2.999   7.313   8.350 -1.7367  0.9431 -0.7646
15997SOL     OW50144   3.582   1.620   2.714 -0.2371 -0.7461 -0.0214
15997SOL    HW150145   3.547   1.592   2.630  0.6294 -0.9001 -0.3402
15997SOL    HW250146   3.638   1.547   2.743  2.1644  0.5972 -0.9289
15998SOL     OW50147   4.117   8.633   5.281  0.4248 -0.3233 -1.3761
15998SOL    HW150148   4.185   8.691   5.315 -0.1871  0.2151 -1.0286
15998SOL    HW250149   4.048   8.636   5.347 -0.1241 -0.5016 -1.9267
15999SOL     OW50150   3.252   7.434   7.866  0.1985  0.2689  0.3252
15999SOL    HW150151   3.247   7.525   7.834  0.4233  0.7092  1.4845
15999SOL    HW250152   3.249   7.443   7.961  1.0289 -0.8971  0.4688
16000SOL     OW50153   3.668   9.595   6.111  0.6016  0.1226 -0.4013
16000SOL    HW150154   3.758   9.610   6.141  0.4275  2.2068 -0.7849
16000SOL    HW250155   3.618   9.580   6.191  0.9609  0.9176 -0.0168
16001SOL     OW50156   9.169   5.998   3.504  1.2763 -0.0695  0.3642
16001SOL    HW150157   9.248   6.031   3.545  0.3312  1.4589  1.0604
16001SOL    HW250158   9.099   6.053   3.538 -0.2510 -1.9992  0.5542
16002SOL     OW50159   4.905   0.097   3.719 -0.5485  0.1697 -0.0642
16002SOL    HW150160   4.987   0.142   3.701 -0.2831  0.5230  1.8319
16002SOL    HW250161   4.931   0.018   3.767 -1.2288 -0.4833 -0.7354
16003SOL     OW50162   6.021   8.016   0.688  0.6198 -0.4334  0.0871
16003SOL    HW150163   6.033   8.037   0.596  1.3313 -2.1814 -0.2676
16003SOL    HW250164   5.950   8.073   0.717  0.2414 -0.0017 -1.5907
16004SOL     OW50165   8.266   2.351   7.939 -0.6253  0.3848  0.2265
16004SOL    HW150166   8.315   2.276   7.973 -0.7105  0.4844  0.5629
16004SOL    HW250167   8.328   2.394   7.880  0.2883  1.4800  1.9150
16005SOL     OW50168   0.900   2.287   3.894  0.0237 -0.2998  0.1282
16005SOL    HW150169   0.882   2.226   3.823 -0.6048  0.2981 -0.2445
16005SOL    HW250170   0.868   2.243   3.973 -0.3322 -0.4944 -0.1243
16006SOL     OW50171   8.153   7.174   4.737 -0.3545  0.0354 -0.3829
16006SOL    HW150172   8.226   7.174   4.800  0.9677  0.8747 -1.8467
16006SOL    HW250173   8.083   7.220   4.782 -0.0474 -0.8545  1.0978
16007SOL     OW50174   1.368   0.105   0.999 -0.1077 -0.1006 -0.3208
16007SOL    HW150175   1.411   0.049   0.934  2.2388  2.4585 -1.1835
16007SOL    HW250176   1.394   0.068   1.083  0.5021 -0.9188 -0.8528
16008SOL     OW50177   6.703   5.462   4.428  0.3957 -0.5799  0.0412
16008SOL    HW150178   6.629   5.502   4.382 -0.3326 -2.3464 -0.4003
16008SOL    HW250179   6.688   5.482   4.520  0.5735  0.9460 -0.2391
16009SOL     OW50180   7.079   5.825   6.165  0.2045 -1.2202  0.0419
16009SOL    HW150181   7.041   5.773   6.235 -1.9776 -0.1158 -0.2341
16009SOL    HW250182   7.066   5.773   6.086 -0.8367 -0.8313 -0.0568
16010SOL     OW50183   5.014   4.147   7.143  0.2529  0.3453  0.0836
16010SOL    HW150184   4.987   4.059   7.116  0.1451  0.7114 -1.0430
16010SOL    HW250185   4.949   4.172   7.209  0.0021 -0.2240  0.0645
16011SOL     OW50186   9.162   6.788   6.896 -0.2342 -0.2202  0.1055
16011SOL    HW150187   9.157   6.721   6.964 -2.4838  0.4593  0.7264
16011SOL    HW250188   9.196   6.866   6.941  1.8786 -0.7343 -0.4927
16012SOL     OW50189   0.432   8.771   4.889 -0.0522  0.5566  0.5276
16012SOL    HW150190   0.428   8.846   4.949 -0.9914 -0.2606  1.5228
16012SOL    HW250191   0.381   8.703   4.932  1.4995 -0.9703  0.0661
16013SOL     OW50192   1.821   5.279   3.790  0.3764  0.0712  0.1194
16013SOL    HW150193   1.729   5.255   3.785  0.5075 -0.4933  0.3874
16013SOL    HW250194   1.826   5.340   3.864  0.2172  0.1187  0.0919
16014SOL     OW50195   2.636   5.653   8.538  0.1235 -0.0046 -0.1240
16014SOL    HW150196   2.583   5.580   8.505 -0.6198  0.3275  0.2942
16014SOL    HW250197   2.669   5.696   8.459  1.3046 -1.2906 -0.3724
16015SOL     OW50198   4.198   8.344   0.550 -0.4051 -0.4035 -0.4500
16015SOL    HW150199   4.240   8.422   0.513 -1.8489  0.1029 -1.0630
16015SOL    HW250200   4.133   8.318   0.485 -0.3842 -1.7512  0.0421
16016SOL     OW50201   1.535   0.548   6.239 -0.5174 -0.2627 -0.0366
16016SOL    HW150202   1.596   0.481   6.269 -1.4074 -1.4849 -0.8430
16016SOL    HW250203   1.484   0.570   6.316 -1.2673 -1.6989 -0.0799
16017SOL     OW50204   7.801   1.036   1.819  0.1453 -0.5166 -0.0305
16017SOL    HW150205   7.750   0.982   1.758 -0.4992 -0.8240  0.7682
16017SOL    HW250206   7.802   1.123   1.778 -0.2345 -0.7282 -0.5034
16018SOL     OW50207   3.215   2.200   6.016 -0.1059  0.0496 -0.5535
16018SOL    HW150208   3.170   2.149   5.948 -1.5135  0.2019  0.2214
16018SOL    HW250209   3.250   2.134   6.076 -0.8588 -0.0472 -0.2112
16019SOL     OW50210   6.082   4.308   5.804  0.1262  0.3282  0.2599
16019SOL    HW150211   6.132   4.258   5.739 -0.4251 -0.5684  0.4981
16019SOL    HW250212   6.060   4.390   5.759 -0.0696 -0.1891 -0.6304
16020SOL     OW50213   8.194   7.072   2.812  0.1550 -0.1168  0.2590
16020SOL    HW150214   8.170   7.041   2.899  2.1894 -1.0270  0.5503
16020SOL    HW250215   8.175   6.998   2.754 -3.0328  1.1176 -0.4939
16021SOL     OW50216   5.668   0.635   6.076 -0.2521  0.1011  0.0783
16021SOL    HW150217   5.573   0.637   6.087 -0.6439  1.7530 -2.5933
16021SOL    HW250218   5.703   0.672   6.156 -1.7611 -1.3628  1.4962
16022SOL     OW50219   7.527   0.351   6.605 -0.5319 -0.1594 -0.4877
16022SOL    HW150220   7.558   0.271   6.646  0.5504  0.6414  0.2994
16022SOL    HW250221   7.466   0.389   6.668 -1.2236 -0.4513 -0.9575
16023SOL     OW50222   0.020   8.210   5.200  0.0138  0.4573  0.3755
16023SOL    HW150223   0.034   8.279   5.265 -0.0416  0.6667  0.1690
16023SOL    HW250224   0.109   8.180   5.178  0.2289  2.1137 -1.2805
16024SOL     OW50225   4.773   4.829   5.318 -0.6938  0.0155 -0.1557
16024SOL    HW150226   4.714   4.874   5.379  1.2468  1.0875  1.0015
16024SOL    HW250227   4.808   4.898   5.262  0.6774 -0.3530  0.2182
16025SOL     OW50228   3.572   1.042   1.732 -0.3127 -0.2897 -0.0942
16025SOL    HW150229   3.511   0.978   1.768 -1.0966  1.0966  1.1150
16025SOL    HW250230   3.652   1.031   1.783  0.0045 -1.1264 -0.7329
16026SOL     OW50231   9.193   4.391   2.228  0.0590 -0.1658  0.1426
16026SOL    HW150232   9.229   4.479   2.240 -0.3642 -0.0740  0.7726
16026SOL    HW250233   9.263   4.332   2.257  0.4005 -0.0426 -0.4308
16027SOL     OW50234   0.256   4.524   8.433 -0.0251 -0.3225  0.3358
16027SOL    HW150235   0.283   4.599   8.486  0.7509 -0.9017  0.7775
16027SOL    HW250236   0.338   4.476   8.416 -0.5094 -1.0750  0.0757
16028SOL     OW50237   7.032   2.595   7.304  0.0499 -0.0273  0.2847
16028SOL    HW150238   6.995   2.610   7.391 -1.2059 -2.1852  0.1860
16028SOL    HW250239   6.957   2.570   7.250  1.1113 -0.7975 -0.8928
16029SOL     OW50240   3.607   5.253   0.042 -0.0786 -0.3810  0.6786
16029SOL    HW150241   3.619   5.270  -0.051  3.0156 -3.4233  0.3099
16029SOL    HW250242   3.513   5.242   0.053 -0.4408 -1.1762 -2.3770
16030SOL     OW50243   2.795   8.303   4.052  0.0637 -0.3317 -0.5118
16030SOL    HW150244   2.720   8.258   4.011 -0.2089 -1.4008  1.0464
16030SOL    HW250245   2.869   8.282   3.996 -0.2993 -1.7268 -0.5160
16031SOL     OW50246   8.364   2.451   2.973  0.2549 -0.5228 -0.0474
16031SOL    HW150247   8.363   2.536   3.017  0.9701 -0.8842  0.6959
16031SOL    HW250248   8.456   2.438   2.950 -0.1096 -0.3227 -1.7218
16032SOL     OW50249   7.872   1.269   5.081 -0.0636  0.0050 -0.3569
16032SOL    HW150250   7.945   1.316   5.041  0.1213 -0.2561 -0.3310
16032SOL    HW250251   7.907   1.181   5.098 -0.5857 -0.3363 -0.9690
16033SOL     OW50252   3.400   8.688   2.651  0.1589  0.5768 -0.0782
16033SOL    HW150253   3.418   8.657   2.562 -0.0202 -1.0991  0.4399
16033SOL    HW250254   3.486   8.706   2.688  0.4007 -1.0148  0.1825
16034SOL     OW50255   9.269   9.493   0.681 -0.2364 -0.1018 -0.2192
16034SOL    HW150256   9.345   9.436   0.671 -0.8024 -0.5611 -2.3918
16034SOL    HW250257   9.277   9.528   0.770  3.0273  0.6256 -0.6525
16035SOL     OW50258   3.485   8.275   2.073 -0.1050 -0.5417 -0.1511
16035SOL    HW150259   3.542   8.308   2.004 -0.1099  2.2643  1.0391
16035SOL    HW250260   3.399   8.313   2.054 -0.4367 -0.8795  0.6080
16036SOL     OW50261   0.149   2.773   4.226  0.1150 -0.2181 -0.6160
16036SOL    HW150262   0.208   2.848   4.216 -1.9078  1.5424  0.0265
16036SOL    HW250263   0.143   2.736   4.138 -0.2197  1.5107 -1.3757
16037SOL     OW50264   3.171   5.142   8.674 -0.0828  0.1891 -0.4660
16037SOL    HW150265   3.237   5.100   8.619 -0.1537  0.2163 -0.5718
16037SOL    HW250266   3.215   5.156   8.758 -0.8597 -2.5647  0.4959
16038SOL     OW50267   7.401   4.589   6.968 -0.0709 -1.1005 -0.0375
16038SOL    HW150268   7.396   4.677   7.005 -0.8361 -1.3034  0.3594
16038SOL    HW250269   7.321   4.581   6.916  0.7519 -1.0026 -1.3451
16039SOL     OW50270   3.462   6.389   3.511 -0.4062  0.2330 -0.7027
16039SOL    HW150271   3.541   6.434   3.541 -0.4045  0.5572 -1.1948
16039SOL    HW250272   3.411   6.376   3.591  0.2034 -0.1012 -0.3597
16040SOL     OW50273   1.440   0.082   3.532  0.2028 -0.2039  0.2100
16040SOL    HW150274   1.444  -0.013   3.521  0.8859  0.0199 -1.7715
16040SOL    HW250275   1.526   0.106   3.568 -0.2542 -0.3870  1.4874
16041SOL     OW50276   7.217   1.483   1.924 -0.0844 -0.4732 -0.5151
16041SOL    HW150277   7.292   1.425   1.906  0.0018  0.1014 -2.1445
16041SOL    HW250278   7.156   1.466   1.852 -0.9817 -0.0217  0.1228
16042SOL     OW50279   5.952   5.890   9.114 -0.4869  0.4039  0.1520
16042SOL    HW150280   5.917   5.964   9.064  0.4510  0.1770 -0.8641
16042SOL    HW250281   6.044   5.884   9.088 -0.1299 -0.1082  1.4576
16043SOL     OW50282   5.088   6.614   8.298  0.3205 -0.0833 -0.4323
16043SOL    HW150283   5.003   6.571   8.304  0.2091 -0.0046 -1.2935
16043SOL    HW250284   5.073   6.689   8.240  0.2728  1.7138  1.7656
16044SOL     OW50285   3.026   0.893   6.364  0.0573 -0.3583  0.7762
16044SOL    HW150286   3.023   0.977   6.319 -1.0390 -1.7972 -2.1034
16044SOL    HW250287   3.082   0.838   6.309 -1.1575 -2.1553  1.2238
16045SOL     OW50288   2.111   8.819   8.394  0.0190 -0.0872  0.0783
16045SOL    HW150289   2.193   8.793   8.437  0.7122 -0.0559 -1.1802
16045SOL    HW250290   2.127   8.909   8.365 -0.3590 -0.1862 -0.4378
16046SOL     OW50291   5.540   9.415   1.760  0.7152 -0.2483  0.2513
16046SOL    HW150292   5.565   9.349   1.696  0.3475 -0.2761  0.1368
16046SOL    HW250293   5.448   9.433   1.742  0.5791 -0.3288  0.8340
16047SOL     OW50294   1.741   2.894   6.772  0.0812  0.1418  0.4010
16047SOL    HW150295   1.775   2.875   6.859 -0.8491  0.3879  0.8331
16047SOL    HW250296   1.662   2.946   6.788 -0.1727  0.0828 -0.5832
16048SOL     OW50297   2.589   0.018   6.618  0.4139 -0.3626 -0.2406
16048SOL    HW150298   2.675   0.056   6.601 -0.1091  0.1290 -1.8845
16048SOL    HW250299   2.574   0.036   6.711  1.0447  1.6792 -0.4919
16049SOL     OW50300   1.149   6.082   4.523  0.4714  0.3685 -0.1098
16049SOL    HW150301   1.073   6.025   4.525  0.2064  0.6346  3.4075
16049SOL    HW250302   1.190   6.065   4.438 -2.7554 -0.6997 -1.5815
16050SOL     OW50303   0.843   7.306   6.826 -0.1079 -0.2489 -0.0418
16050SOL    HW150304   0.831   7.394   6.861 -0.6242 -0.5168  0.4822
16050SOL    HW250305   0.768   7.293   6.767  0.4448 -0.0137 -0.8010
16051SOL     OW50306   4.312   2.426   8.983 -0.6693 -0.2090  0.5345
16051SOL    HW150307   4.257   2.431   9.061 -2.0750 -0.4453 -0.3939
16051SOL    HW250308   4.388   2.374   9.010 -2.0859 -2.0109  1.2287
16052SOL     OW50309   4.490   6.702   2.619  0.4778 -0.0465 -0.1043
16052SOL    HW150310   4.464   6.791   2.643 -0.4186 -0.3663  0.1479
16052SOL    HW250311   4.411   6.650   2.632  1.2469 -1.0553  0.6695
16053SOL     OW50312   6.012   5.496   2.474  0.5483  0.2444 -0.0256
16053SOL    HW150313   6.049   5.410   2.453 -0.7662 -0.0401 -1.3496
16053SOL    HW250314   6.072   5.533   2.539  1.9448 -1.0570 -0.5244
16054SOL     OW50315   1.249   3.516   8.800 -0.7878  0.0841  0.0945
16054SOL    HW150316   1.272   3.607   8.819 -0.9648  0.0461  0.4927
16054SOL    HW250317   1.247   3.473   8.885 -0.4630 -0.3509 -0.1169
16055SOL     OW50318   0.199   0.273   7.421 -0.4809 -0.1387 -0.0516
16055SOL    HW150319   0.156   0.266   7.506 -0.5529 -0.1499 -0.0882
16055SOL    HW250320   0.130   0.249   7.358 -0.4702  0.0100 -0.1209
16056SOL     OW50321   1.616   6.905   2.113  0.4386  0.5064  0.4418
16056SOL    HW150322   1.611   6.979   2.053 -1.8603  0.3938  0.4351
16056SOL    HW250323   1.609   6.828   2.056  1.1856  0.3069  0.6064
16057SOL     OW50324   7.286   6.615   8.127  0.8215  0.6378 -0.2311
16057SOL    HW150325   7.219   6.614   8.058  1.4010 -0.7876 -0.8104
16057SOL    HW250326   7.240   6.644   8.205 -0.5899 -0.6548 -0.5334
16058SOL     OW50327   0.052   8.097   7.113 -0.2747 -0.1629  0.6205
16058SOL    HW150328  -0.041   8.086   7.130 -0.3314 -1.2518 -0.2812
16058SOL    HW250329   0.056   8.145   7.031 -0.0144  0.9860  1.2778
16059SOL     OW50330   0.076   6.453   4.312 -0.7399  0.3198  0.2835
16059SOL    HW150331   0.134   6.447   4.236 -0.6085 -0.0844  0.4134
16059SOL    HW250332   0.126   6.503   4.377 -0.8465  0.6531  0.1159
16060SOL     OW50333   7.585   5.792   5.970 -0.0686  0.3622 -0.4188
16060SOL    HW150334   7.651   5.861   5.982  1.0541 -0.6141 -0.8095
16060SOL    HW250335   7.512   5.819   6.026  0.1399  2.1166 -0.9348
16061SOL     OW50336   3.465   7.554   6.791  0.2933  0.0690  0.0505
16061SOL    HW150337   3.470   7.647   6.812  2.4786  0.0776 -0.2610
16061SOL    HW250338   3.411   7.517   6.861  0.7032  1.3337  1.0760
16062SOL     OW50339   2.246   6.793   0.818 -0.1492 -0.3460 -0.6827
16062SOL    HW150340   2.250   6.762   0.727 -1.0473 -2.2335 -0.1296
16062SOL    HW250341   2.267   6.716   0.871 -1.0200  0.3496  0.7417
16063SOL     OW50342   6.329   5.522   0.053 -0.0767  0.2358 -0.5313
16063SOL    HW150343   6.375   5.558   0.129 -0.7441  0.8218 -0.3902
16063SOL    HW250344   6.264   5.589   0.031 -2.5483 -1.5705  0.7890
16064SOL     OW50345   4.432   8.375   5.747 -0.2808  0.3471 -0.1638
16064SOL    HW150346   4.385   8.415   5.675 -1.5636 -0.8921 -0.0471
16064SOL    HW250347   4.381   8.398   5.825 -0.6863 -0.9509 -0.0293
16065SOL     OW50348   7.478   7.812   5.054 -0.3682  0.0148 -0.2407
16065SOL    HW150349   7.499   7.722   5.031  1.7016  0.0153  1.3620
16065SOL    HW250350   7.554   7.843   5.102 -0.4997  3.0474 -1.7432
16066SOL     OW50351   9.033   4.515   4.957 -0.1990  0.4737  0.0156
16066SOL    HW150352   9.128   4.506   4.960 -0.2063  0.2124 -0.5654
16066SOL    HW250353   9.018   4.608   4.971  0.1906  0.6846 -0.8908
16067SOL     OW50354   0.195   2.429   5.858  0.2740 -0.1790  0.3131
16067SOL    HW150355   0.277   2.479   5.864 -0.8992  2.1623 -1.4119
16067SOL    HW250356   0.129   2.494   5.838 -1.5607 -2.3400 -1.1674
16068SOL     OW50357   1.101   3.911   1.652  0.1783 -0.6133  0.0129
16068SOL    HW150358   1.030   3.847   1.653  0.5640 -1.1815 -2.4165
16068SOL    HW250359   1.163   3.878   1.586  1.2802  1.3238 -0.0092
16069SOL     OW50360   5.906   3.027   7.835  0.1877  0.0891 -0.0125
16069SOL    HW150361   5.860   2.955   7.790 -1.2561  1.5565 -1.0119
16069SOL    HW250362   5.838   3.068   7.889  0.8725  0.9669  0.1987
16070SOL     OW50363   5.754   5.218   1.574 -0.1053 -0.1162  0.3817
16070SOL    HW150364   5.837   5.190   1.536  0.0018  0.7371 -0.0401
16070SOL    HW250365   5.747   5.311   1.552 -0.6776  0.0822  1.3193
16071SOL     OW50366   3.259   6.427   3.318 -0.0783  0.0099 -0.0623
16071SOL    HW150367   3.277   6.520   3.306  2.2450 -0.6081 -2.5151
16071SOL    HW250368   3.317   6.400   3.389  0.8438  0.0950 -0.7557
16072SOL     OW50369   0.830   7.862   0.707  0.0705  0.3370  0.4358
16072SOL    HW150370   0.900   7.844   0.645  0.9806 -0.7996  1.7286
16072SOL    HW250371   0.834   7.957   0.721  0.7251  0.4114 -0.2061
16073SOL     OW50372   2.442   4.337   2.643  0.2012 -0.0355 -0.3196
16073SOL    HW150373   2.520   4.283   2.631 -0.0909 -0.5928  0.2537
16073SOL    HW250374   2.406   4.310   2.728 -1.0219 -0.3182 -0.8901
16074SOL     OW50375   4.305   3.116   2.465  0.3685 -0.2072  0.3110
16074SOL    HW150376   4.348   3.172   2.530 -0.2321  2.2595 -1.2588
16074SOL    HW250377   4.218   3.099   2.502 -0.3333  1.9946 -0.1707
16075SOL     OW50378   2.115   2.366   2.757  0.0133 -0.3515  0.0350
16075SOL    HW150379   2.205   2.379   2.727  0.2339 -0.3946  0.6543
16075SOL    HW250380   2.077   2.304   2.695  0.5378 -0.6496  0.0045
16076SOL     OW50381   3.621   7.072   0.090  0.4404 -0.2525  0.7838
16076SOL    HW150382   3.703   7.049   0.046  0.5002 -2.4739  1.9165
16076SOL    HW250383   3.556   7.074   0.019  1.0226 -1.0934  0.2001
16077SOL     OW50384   7.578   6.177   7.629  0.1393 -0.1330  0.3222
16077SOL    HW150385   7.541   6.214   7.549  1.1439 -1.3817 -0.7521
16077SOL    HW250386   7.534   6.093   7.639  2.1525 -1.3891 -0.6698
16078SOL     OW50387   9.456   0.782   2.866  0.0720  0.0865 -0.5203
16078SOL    HW150388   9.368   0.784   2.902 -0.9793  0.1911 -2.8752
16078SOL    HW250389   9.451   0.717   2.796  1.0545  2.0511 -2.5346
16079SOL     OW50390   4.160   0.817   0.385  0.4236  0.1806  0.2877
16079SOL    HW150391   4.255   0.828   0.390  0.3815  0.4737  0.5597
16079SOL    HW250392   4.137   0.772   0.466  0.5748 -1.9093 -0.7731
16080SOL     OW50393   5.164   9.020   1.958 -0.3800  0.2956 -0.2678
16080SOL    HW150394   5.141   8.983   1.873  0.8460 -3.4650  0.8151
16080SOL    HW250395   5.107   8.973   2.020  1.7846 -0.3839  1.3212
16081SOL     OW50396   4.092   5.614   8.929 -0.1326 -0.1724 -0.1230
16081SOL    HW150397   4.183   5.630   8.902  0.6545 -1.0759  1.7878
16081SOL    HW250398   4.089   5.520   8.949 -0.7290  0.2965  2.3254
16082SOL     OW50399   0.944   4.412   7.479  0.6630 -0.1789 -0.1848
16082SOL    HW150400   0.890   4.449   7.549  0.1833 -1.0278 -0.0902
16082SOL    HW250401   1.013   4.364   7.525  1.0735  0.3005 -0.3014
16083SOL     OW50402   7.496   1.626   9.388  0.0887 -0.0152  0.0806
16083SOL    HW150403   7.403   1.648   9.388  0.1730  0.3551 -0.3949
16083SOL    HW250404   7.532   1.675   9.462 -0.1399 -0.3667  0.4268
16084SOL     OW50405   6.276   6.156   4.919  0.2891 -0.3044 -0.1926
16084SOL    HW150406   6.346   6.097   4.891  1.6897  0.7836  0.9040
16084SOL    HW250407   6.200   6.100   4.930  1.9328 -2.2023  2.2554
16085SOL     OW50408   4.829   6.881   4.506 -0.5255  0.2358  0.3658
16085SOL    HW150409   4.871   6.937   4.571  1.0608  0.8197 -1.0891
16085SOL    HW250410   4.737   6.906   4.508 -0.3935  0.6871  1.9029
16086SOL     OW50411   8.512   8.799   2.860  0.1819 -0.0838  0.0555
16086SOL    HW150412   8.605   8.809   2.839  0.5537 -1.5235  0.8619
16086SOL    HW250413   8.502   8.706   2.879 -1.8045 -0.2941 -1.6947
16087SOL     OW50414   6.481   8.047   3.968  0.0442 -0.2543 -0.3209
16087SOL    HW150415   6.392   8.013   3.979  0.6419 -1.9812 -0.4222
16087SOL    HW250416   6.533   7.998   4.032  0.7339  1.6242  0.6081
16088SOL     OW50417   6.597   3.928   2.651  0.1874 -0.5350  0.4016
16088SOL    HW150418   6.613   3.875   2.729  1.6194 -1.6794 -0.6327
16088SOL    HW250419   6.504   3.947   2.654  0.3687  0.4003  2.9720
16089SOL     OW50420   1.040   6.226   0.529  0.1206  0.3795  0.3857
16089SOL    HW150421   1.136   6.221   0.535  0.2877  1.8696 -0.4589
16089SOL    HW250422   1.021   6.319   0.538 -1.3875 -0.0288  1.9735
16090SOL     OW50423   8.091   0.679   0.996  0.1711 -0.1418 -0.6295
16090SOL    HW150424   8.001   0.647   0.990  0.3198 -1.6023  2.7083
16090SOL    HW250425   8.084   0.765   1.036  0.2665 -0.1281 -0.6402
16091SOL     OW50426   9.309   7.077   3.320  0.3882  0.1539  0.0073
16091SOL    HW150427   9.323   7.171   3.311  0.7398  0.2445  1.3595
16091SOL    HW250428   9.270   7.051   3.237  0.6298  1.4241 -0.5290
16092SOL     OW50429   1.105   2.859   0.422  0.1202  0.0317 -0.0299
16092SOL    HW150430   1.105   2.856   0.518  0.6639  2.0249  0.0819
16092SOL    HW250431   1.035   2.921   0.400  0.1790 -0.2034 -0.9183
16093SOL     OW50432   8.202   6.973   1.995 -0.2505  0.2186  0.2462
16093SOL    HW150433   8.191   7.061   1.957  0.8484 -0.0277 -0.7135
16093SOL    HW250434   8.241   6.922   1.924 -0.1452 -0.8455  1.0522
16094SOL     OW50435   4.686   8.424   1.556 -1.0369 -0.0828 -0.3995
16094SOL    HW150436   4.760   8.365   1.572  0.0686  1.3995  0.1627
16094SOL    HW250437   4.684   8.434   1.461  0.8104  1.3902 -0.3643
16095SOL     OW50438   5.655   7.732   2.218  0.3066 -0.1875 -0.0637
16095SOL    HW150439   5.696   7.784   2.287 -0.4251  1.0182 -0.5205
16095SOL    HW250440   5.648   7.791   2.143 -1.2978 -0.6579 -0.3316
16096SOL     OW50441   4.401   6.551   1.173 -0.0557 -0.3651  0.5034
16096SOL    HW150442   4.451   6.605   1.113  0.4567 -1.8686 -0.4860
16096SOL    HW250443   4.321   6.601   1.191  0.5973  0.8869 -0.0001
16097SOL     OW50444   3.448   0.940   4.628 -0.7234  0.3236 -0.2259
16097SOL    HW150445   3.441   0.894   4.544 -1.0807  0.7019 -0.4085
16097SOL    HW250446   3.458   0.871   4.693  1.7832  0.0907 -0.7767
16098SOL     OW50447   4.418   7.273   8.995 -0.2899 -0.1196 -0.5287
16098SOL    HW150448   4.509   7.300   8.985 -0.0773 -1.1421 -1.5907
16098SOL    HW250449   4.403   7.273   9.090  1.0652 -0.6798 -0.2968
16099SOL     OW50450   7.748   3.383   6.249  0.2589  0.6541  0.2733
16099SOL    HW150451   7.736   3.465   6.200  1.5379 -0.2643 -1.6831
16099SOL    HW250452   7.797   3.410   6.327 -1.2789  2.0588  0.8241
16100SOL     OW50453   4.904   9.397   5.062  0.5558  0.4595 -0.2699
16100SOL    HW150454   4.877   9.489   5.064  0.5048  0.4345  0.5484
16100SOL    HW250455   4.938   9.381   5.150 -3.2670 -1.4429  1.0485
16101SOL     OW50456   3.951   0.512   2.495 -0.2682 -0.4475 -0.1316
16101SOL    HW150457   3.870   0.535   2.448  0.1143  1.0557 -0.1243
16101SOL    HW250458   3.942   0.419   2.514 -0.3896 -1.1963 -3.2854
16102SOL     OW50459   8.265   2.472   1.476 -0.1008  0.2400  0.3107
16102SOL    HW150460   8.294   2.473   1.384  0.0262  1.1558  0.3546
16102SOL    HW250461   8.180   2.516   1.475  0.5576  1.5609  0.8378
16103SOL     OW50462   8.220   1.649   4.375 -0.1505  0.7922  0.4297
16103SOL    HW150463   8.261   1.735   4.364  1.9363 -0.1143  0.6326
16103SOL    HW250464   8.279   1.588   4.331 -1.1945 -0.6284  0.9174
16104SOL     OW50465   4.046   6.882   0.957 -0.3120  0.2483  0.1460
16104SOL    HW150466   3.967   6.894   1.010 -0.0221  0.2909  0.5650
16104SOL    HW250467   4.023   6.920   0.872 -0.1809  1.7555  0.7574
16105SOL     OW50468   6.414   1.139   9.336  0.3558 -0.7758 -0.1893
16105SOL    HW150469   6.347   1.194   9.377  0.3066 -0.8920 -0.1134
16105SOL    HW250470   6.403   1.154   9.242 -0.0302 -1.0872 -0.1954
16106SOL     OW50471   2.956   3.673   1.208 -0.1984 -0.2553 -0.1329
16106SOL    HW150472   2.885   3.703   1.152 -0.5272  0.0903  0.4620
16106SOL    HW250473   3.017   3.631   1.148  0.5952  2.1103 -1.1043
16107SOL     OW50474   1.664   0.031   5.049  0.2861  0.4161 -0.5539
16107SOL    HW150475   1.758   0.016   5.051  0.2376 -0.0796  2.0788
16107SOL    HW250476   1.654   0.122   5.023  1.6951  1.2824  1.6317
16108SOL     OW50477   7.672   6.727   1.781 -0.5302  0.0031  0.4329
16108SOL    HW150478   7.692   6.672   1.705 -2.8133  1.0312 -1.0549
16108SOL    HW250479   7.699   6.675   1.856 -0.6660 -2.2434 -0.9620
16109SOL     OW50480   2.543   3.575   2.461  0.3801 -0.1118 -0.3567
16109SOL    HW150481   2.541   3.578   2.557 -1.0625  2.6157 -0.3671
16109SOL    HW250482   2.636   3.583   2.439  0.6685 -0.0673  0.8078
16110SOL     OW50483   7.862   1.887   3.581 -0.3214 -0.1634 -0.4328
16110SOL    HW150484   7.887   1.886   3.489  0.1022 -0.1136 -0.3185
16110SOL    HW250485   7.933   1.933   3.626 -0.7478  0.2281 -0.1432
16111SOL     OW50486   0.669   7.088   6.430  0.3391 -0.3402 -0.6767
16111SOL    HW150487   0.692   7.013   6.484  1.0569  1.3897  1.5977
16111SOL    HW250488   0.711   7.072   6.346  1.1224 -2.0907  0.0185
16112SOL     OW50489   6.453   4.210   3.032 -0.1449 -0.7677  0.4219
16112SOL    HW150490   6.472   4.264   3.108 -0.6109  0.4248 -0.2795
16112SOL    HW250491   6.538   4.196   2.990 -0.1352  0.2182  0.0999
16113SOL     OW50492   8.322   0.371   8.345 -0.4936 -0.0803 -0.3406
16113SOL    HW150493   8.237   0.407   8.319 -0.1858  0.7836 -0.1810
16113SOL    HW250494   8.336   0.297   8.285 -1.2585 -0.1082 -0.4995
16114SOL     OW50495   4.298   8.694   7.421 -0.1804  0.2080 -0.4102
16114SOL    HW150496   4.350   8.615   7.432 -1.6606 -0.5720  1.5448
16114SOL    HW250497   4.347   8.762   7.468 -0.7348 -0.4702  1.2288
16115SOL     OW50498   1.499   4.997   5.557  0.0132 -0.6229  0.3286
16115SOL    HW150499   1.432   5.054   5.518  0.4391  0.1127  0.6528
16115SOL    HW250500   1.479   4.910   5.522 -0.7205 -0.3011 -0.0856
16116SOL     OW50501   1.106   2.801   3.218  0.9726  0.2272  0.6488
16116SOL    HW150502   1.175   2.866   3.228  1.0173  0.0237  1.8411
16116SOL    HW250503   1.152   2.722   3.188  1.0194  0.5378 -0.1048
16117SOL     OW50504   3.344   4.325   9.614  0.2243 -0.4034 -0.2431
16117SOL    HW150505   3.375   4.410   9.644  1.3287 -0.7692 -0.3113
16117SOL    HW250506   3.280   4.345   9.546 -0.2475  0.3809  0.4154
16118SOL     OW50507   5.799   6.173   4.474  0.5856  0.1736  0.3774
16118SOL    HW150508   5.870   6.203   4.418 -0.7006 -0.9165 -1.9853
16118SOL    HW250509   5.802   6.078   4.469  1.0242 -0.0276  3.0559
16119SOL     OW50510   3.518   3.558   9.141 -0.2281 -0.0507 -0.0752
16119SOL    HW150511   3.533   3.494   9.073 -0.4880  1.0272 -1.1805
16119SOL    HW250512   3.573   3.632   9.118  0.8380 -0.2153  1.7163
16120SOL     OW50513   0.739   7.933   7.229 -0.6407 -0.5874  0.3019
16120SOL    HW150514   0.768   7.933   7.321  1.3332 -0.4412 -0.2802
16120SOL    HW250515   0.715   7.842   7.212  4.5240 -2.0935 -0.5707
16121SOL     OW50516   9.514   6.432   1.685  0.4442  0.5485 -0.4340
16121SOL    HW150517   9.441   6.369   1.691 -0.5958  1.7291 -0.2263
16121SOL    HW250518   9.479   6.504   1.633  0.4981  2.3946  1.8983
16122SOL     OW50519   1.327   4.278   1.713 -0.0110 -0.3137 -0.3198
16122SOL    HW150520   1.239   4.286   1.676  0.5594 -1.3259 -2.0190
16122SOL    HW250521   1.361   4.196   1.677  2.1495  0.7551 -0.9364
16123SOL     OW50522   0.508   2.919   3.975 -0.3282 -0.9314 -0.0960
16123SOL    HW150523   0.578   2.853   3.984  0.8420 -0.0898 -2.2770
16123SOL    HW250524   0.553   2.998   3.946 -2.1577 -0.2360 -1.1855
16124SOL     OW50525   7.172   7.041   8.209 -0.2460  0.2132 -0.3807
16124SOL    HW150526   7.210   7.020   8.124 -0.8563  1.4565 -0.9800
16124SOL    HW250527   7.245   7.078   8.259 -0.1888  0.7413 -0.8394
16125SOL     OW50528   7.641   7.598   0.907  0.0268 -0.4846 -0.0302
16125SOL    HW150529   7.600   7.517   0.936 -1.0069 -0.2002 -0.6215
16125SOL    HW250530   7.644   7.590   0.811  2.5526 -1.0363  0.0229
16126SOL     OW50531   0.662   6.390   0.881 -0.0078  0.7715 -0.4169
16126SOL    HW150532   0.669   6.382   0.976 -2.1525 -1.3445 -0.3321
16126SOL    HW250533   0.703   6.310   0.847  1.2953  1.7907 -1.3746
16127SOL     OW50534   4.175   7.770   1.146  0.1332  0.1351 -0.4923
16127SOL    HW150535   4.138   7.685   1.170  1.5561 -1.3555 -3.1562
16127SOL    HW250536   4.101   7.820   1.111 -0.1905 -1.2634 -1.9132
16128SOL     OW50537   6.067   9.168   7.341 -0.1078  0.0548  0.2670
16128SOL    HW150538   6.153   9.131   7.363 -0.4105 -1.7868 -1.3876
16128SOL    HW250539   6.087   9.247   7.290  0.5464  1.2136  2.1879
16129SOL     OW50540   3.261   7.011   5.877  0.1012  0.2986  0.2736
16129SOL    HW150541   3.214   7.085   5.916  0.9692  1.5551 -0.9961
16129SOL    HW250542   3.353   7.029   5.895  0.2486 -1.7499  2.0534
16130SOL     OW50543   2.963   2.107   3.254  0.2215  0.3786  0.0996
16130SOL    HW150544   2.972   2.038   3.320  0.9490 -0.6647 -1.0653
16130SOL    HW250545   2.869   2.125   3.251 -0.2289 -1.8979 -0.9009
16131SOL     OW50546   4.347   9.543   2.881 -0.1192 -0.0073  0.0093
16131SOL    HW150547   4.335   9.498   2.798  3.9707 -3.1617  0.7939
16131SOL    HW250548   4.422   9.601   2.867 -0.7619  1.1041  0.9698
16132SOL     OW50549   1.436   5.832   1.136  0.3913  0.2689  0.3618
16132SOL    HW150550   1.379   5.877   1.074 -1.1498  1.5459  2.5554
16132SOL    HW250551   1.524   5.843   1.100 -0.3222  1.8558 -1.0675
16133SOL     OW50552   7.638   5.124   9.105  0.1547  0.3367  0.1886
16133SOL    HW150553   7.565   5.072   9.137 -0.3521  0.5624 -0.5729
16133SOL    HW250554   7.604   5.168   9.027  0.9393  0.8604  0.1280
16134SOL     OW50555   2.726   5.230   4.155 -0.5448  0.0366  0.0368
16134SOL    HW150556   2.708   5.281   4.234 -0.0049 -0.9387  0.8218
16134SOL    HW250557   2.821   5.214   4.159 -0.4493  0.2868 -1.0089
16135SOL     OW50558   9.101   4.303   4.804 -0.6291  0.6294 -0.0740
16135SOL    HW150559   9.086   4.215   4.838 -0.0854  0.5813  0.0525
16135SOL    HW250560   9.067   4.361   4.872 -2.2064  0.5204 -0.7336
16136SOL     OW50561   4.145   0.380   5.721 -0.4647 -0.5973 -0.2453
16136SOL    HW150562   4.175   0.341   5.803 -0.4130 -1.5974 -0.7257
16136SOL    HW250563   4.087   0.452   5.749  0.0069 -0.5507  0.6608
16137SOL     OW50564   8.221   5.616   0.586 -0.3189  0.3757  0.5016
16137SOL    HW150565   8.313   5.642   0.576 -0.1210 -0.8176 -1.0578
16137SOL    HW250566   8.181   5.637   0.502 -1.2181 -0.1239  0.7940
16138SOL     OW50567   2.551   5.050   8.158 -0.9640  0.1622  0.0363
16138SOL    HW150568   2.562   5.062   8.064 -1.7771  1.0743  0.0485
16138SOL    HW250569   2.465   5.008   8.167 -1.9750  2.2256  0.4780
16139SOL     OW50570   1.238   6.671   5.713 -0.0558  0.0535  0.0123
16139SOL    HW150571   1.230   6.576   5.724  2.4987 -0.2289 -0.0688
16139SOL    HW250572   1.260   6.683   5.621  1.4444  0.5439  0.4079
16140SOL     OW50573   0.242   3.288   3.134  0.1720 -0.2104  0.7183
16140SOL    HW150574   0.292   3.357   3.178  1.5643 -0.6807 -0.0836
16140SOL    HW250575   0.160   3.331   3.108  1.7981  1.7674 -1.5518
16141SOL     OW50576   0.702   0.221   6.006 -0.3154 -0.3497 -0.0918
16141SOL    HW150577   0.616   0.219   6.046 -1.0183  0.2145 -1.4909
16141SOL    HW250578   0.723   0.315   5.997 -0.6176 -0.4064 -1.8349
16142SOL     OW50579   4.866   8.530   3.408  0.7213  0.3210 -0.6417
16142SOL    HW150580   4.867   8.617   3.368 -1.0773  0.6213 -0.1140
16142SOL    HW250581   4.796   8.534   3.473  2.1468 -0.8022  1.0879
16143SOL     OW50582   7.573   7.443   5.714  0.0245  0.1841  0.2090
16143SOL    HW150583   7.664   7.425   5.690  0.7877  2.6402  0.9531
16143SOL    HW250584   7.523   7.371   5.675  2.3383 -1.6369  0.4018
16144SOL     OW50585   7.386   8.334   3.223  0.4509  0.1438 -0.0251
16144SOL    HW150586   7.427   8.250   3.202  0.8238  0.2815  0.1524
16144SOL    HW250587   7.315   8.342   3.159  1.4847  0.5020 -1.1695
16145SOL     OW50588   3.008   5.186   4.180 -0.1429  0.5715  0.2560
16145SOL    HW150589   3.057   5.193   4.262  1.0773  0.8299 -0.4746
16145SOL    HW250590   3.065   5.226   4.114  0.1375 -2.0194 -1.2228
16146SOL     OW50591   0.678   5.542   9.317 -0.6712 -0.3861 -0.3370
16146SOL    HW150592   0.763   5.563   9.357 -1.7232  2.7604  0.5571
16146SOL    HW250593   0.699   5.518   9.227  1.1947  0.4428 -0.1661
16147SOL     OW50594   5.429   5.014   2.986  0.1108  0.1564  0.2777
16147SOL    HW150595   5.343   5.055   2.986  0.4932  0.9981  0.7254
16147SOL    HW250596   5.444   4.989   2.895 -0.9334 -0.7393  0.3405
16148SOL     OW50597   0.039   4.095   3.618  0.7042 -0.2187 -0.5054
16148SOL    HW150598   0.005   4.064   3.534 -2.4735 -0.1504  0.6100
16148SOL    HW250599   0.091   4.022   3.652 -2.9718 -2.8214  0.0885
16149SOL     OW50600   4.480   7.477   2.833  0.1312  0.4401 -0.0474
16149SOL    HW150601   4.540   7.466   2.907 -0.1756  1.8349  0.4312
16149SOL    HW250602   4.501   7.563   2.797 -1.1042  0.6577 -0.2970
16150SOL     OW50603   7.253   6.800   4.606  0.1265 -0.2658 -0.1360
16150SOL    HW150604   7.175   6.772   4.558  0.1556  3.3694 -2.6665
16150SOL    HW250605   7.312   6.724   4.602 -1.8366 -1.8412 -1.3990
16151SOL     OW50606   4.542   4.144   5.103 -0.0404  0.4953  0.3775
16151SOL    HW150607   4.634   4.151   5.076 -0.1545  0.0046 -0.1722
16151SOL    HW250608   4.514   4.235   5.113  0.4131  0.6612  0.2109
16152SOL     OW50609   5.588   1.636   8.952 -0.4199  0.1190 -0.0259
16152SOL    HW150610   5.660   1.699   8.944 -1.5399  1.1985 -3.1471
16152SOL    HW250611   5.591   1.585   8.871 -3.7542  0.9712 -0.8603
16153SOL     OW50612   4.027   3.128   6.773 -0.3066  0.6218 -0.5067
16153SOL    HW150613   3.996   3.143   6.862  1.4755  0.6778  0.1410
16153SOL    HW250614   4.099   3.065   6.782 -0.3635  0.3074 -1.9485
16154SOL     OW50615   5.468   4.132   2.067 -0.4373  0.2653 -0.8132
16154SOL    HW150616   5.552   4.137   2.113 -1.2979 -0.1710  0.8802
16154SOL    HW250617   5.460   4.039   2.043 -0.4637  0.3038 -0.9584
16155SOL     OW50618   5.763   0.709   6.327 -0.1339 -0.3273 -0.2887
16155SOL    HW150619   5.824   0.637   6.317 -0.4215 -0.6151  0.0152
16155SOL    HW250620   5.780   0.744   6.414 -0.2506 -0.2673 -0.2887
16156SOL     OW50621   3.464   2.064   1.578 -0.3643  0.0065  0.5892
16156SOL    HW150622   3.515   1.984   1.583 -0.6891 -0.4828 -2.2449
16156SOL    HW250623   3.522   2.128   1.537 -0.9236  0.4559  0.4763
16157SOL     OW50624   2.916   3.822   8.168  0.0006 -0.4547 -0.8408
16157SOL    HW150625   2.970   3.895   8.197  1.2649 -1.7870  0.3598
16157SOL    HW250626   2.838   3.826   8.224  0.8665 -1.0021  0.4492
16158SOL     OW50627   5.020   2.823   4.482 -0.0559  0.4811  0.3305
16158SOL    HW150628   5.041   2.912   4.456 -0.0675  0.5050  0.4037
16158SOL    HW250629   4.962   2.833   4.557 -1.1348  0.4433 -0.4647
16159SOL     OW50630   4.730   8.191   5.307 -0.2413 -0.1297 -0.0786
16159SOL    HW150631   4.636   8.207   5.315 -0.8651 -2.9262 -0.6074
16159SOL    HW250632   4.757   8.163   5.394  0.3156  1.4583  0.2801
16160SOL     OW50633   1.035   1.608   8.867  0.1807 -0.2556  0.6101
16160SOL    HW150634   0.951   1.574   8.899 -0.0369 -0.7226 -0.4064
16160SOL    HW250635   1.062   1.546   8.799  0.7688  0.5278  0.1037
16161SOL     OW50636   1.193   7.507   3.475 -0.1362 -0.0657  0.3924
16161SOL    HW150637   1.127   7.522   3.407 -0.6884  1.3807  1.1989
16161SOL    HW250638   1.143   7.505   3.557  0.6421 -0.6877  0.8599
16162SOL     OW50639   6.080   3.844   5.305 -0.1340 -0.5327  0.7925
16162SOL    HW150640   6.086   3.797   5.222 -0.9917  0.7171 -0.0070
16162SOL    HW250641   6.080   3.936   5.281  2.1221 -0.0473  2.3740
16163SOL     OW50642   2.994   0.517   8.745 -0.6523 -0.1474  0.1832
16163SOL    HW150643   2.906   0.487   8.722 -0.2214 -1.3290 -0.0009
16163SOL    HW250644   3.039   0.437   8.773  0.8902  0.1383 -1.3524
16164SOL     OW50645   9.580   1.842   6.159  0.3953  0.1826 -0.7657
16164SOL    HW150646   9.577   1.909   6.228 -1.4207  0.4334 -1.0379
16164SOL    HW250647   9.659   1.792   6.178 -0.3782 -0.1771  1.9061
16165SOL     OW50648   8.101   9.276   0.656 -0.1884  0.1364  0.1891
16165SOL    HW150649   8.126   9.212   0.723 -2.2426 -0.5612  0.3804
16165SOL    HW250650   8.173   9.274   0.592  0.8846 -0.6221  1.3872
16166SOL     OW50651   2.322   0.134   0.262 -0.7418  0.0838 -0.3111
16166SOL    HW150652   2.403   0.152   0.216  0.6256  0.3212  2.0134
16166SOL    HW250653   2.257   0.190   0.219  0.2943 -0.1548 -2.2530
16167SOL     OW50654   2.279   0.370   9.066 -0.4009  0.5551 -0.8582
16167SOL    HW150655   2.299   0.423   9.143 -0.9153  0.9420 -0.9812
16167SOL    HW250656   2.287   0.431   8.992 -2.1606  0.7946 -0.9009
16168SOL     OW50657   6.752   5.504   6.805 -0.2109 -0.2966  0.3526
16168SOL    HW150658   6.717   5.547   6.727 -1.9554 -0.5863  0.9166
16168SOL    HW250659   6.764   5.412   6.779  1.2241  0.0082 -0.1523
16169SOL     OW50660   4.733   9.543   0.385 -0.0601  0.1494  0.0432
16169SOL    HW150661   4.721   9.540   0.480 -1.2937 -1.7640 -0.1225
16169SOL    HW250662   4.660   9.595   0.353  0.9659  1.7439  0.1785
16170SOL     OW50663   3.389   4.481   3.347  0.3378  0.3265 -0.0151
16170SOL    HW150664   3.446   4.424   3.296  1.2288  0.2154  1.0379
16170SOL    HW250665   3.312   4.496   3.292 -0.1775 -2.3037 -0.1081
16171SOL     OW50666   3.421   8.079   8.981 -0.0465  0.0697 -0.5272
16171SOL    HW150667   3.368   8.030   9.043 -1.9065  1.8097 -0.6421
16171SOL    HW250668   3.488   8.122   9.035  0.6440 -1.3003 -0.2456
16172SOL     OW50669   2.545   1.135   5.703  0.5962  0.6903 -0.2693
16172SOL    HW150670   2.492   1.104   5.777  0.9591  1.2946  0.2567
16172SOL    HW250671   2.566   1.056   5.654  1.3458  0.1139  0.9386
16173SOL     OW50672   4.084   8.744   0.521  0.1726  0.1065 -0.1858
16173SOL    HW150673   4.107   8.828   0.560  0.8095  0.9082 -2.1812
16173SOL    HW250674   4.004   8.762   0.472  0.3589 -0.4351 -0.6953
16174SOL     OW50675   8.600   1.027   4.393  0.2023  0.4005 -0.0474
16174SOL    HW150676   8.680   1.078   4.405 -0.4853  1.5350 -0.1022
16174SOL    HW250677   8.604   0.997   4.302  0.1381  1.2157 -0.3229
16175SOL     OW50678   0.939   9.306   7.677 -0.2881 -0.0259  0.1085
16175SOL    HW150679   0.960   9.243   7.745 -0.4500 -0.8341 -0.5724
16175SOL    HW250680   0.883   9.258   7.616  2.2828 -0.2959 -2.2153
16176SOL     OW50681   1.521   0.776   1.679  0.1030 -0.2975  0.2825
16176SOL    HW150682   1.477   0.758   1.762  0.3076 -1.5277  0.1455
16176SOL    HW250683   1.592   0.712   1.675  0.9362  0.6324 -0.2249
16177SOL     OW50684   2.405   2.307   2.969  0.9213 -0.1361 -0.1806
16177SOL    HW150685   2.446   2.364   3.034  0.1965  0.7526 -0.4843
16177SOL    HW250686   2.313   2.301   2.997  0.9621 -1.0609 -0.2181
16178SOL     OW50687   5.464   9.262   4.494  0.2802  0.1507  0.0986
16178SOL    HW150688   5.513   9.345   4.489  1.1258 -0.3582 -0.4645
16178SOL    HW250689   5.531   9.197   4.516 -0.1450 -0.5666 -0.6916
16179SOL     OW50690   3.732   0.889   9.573 -0.4160  0.0391 -0.0241
16179SOL    HW150691   3.809   0.941   9.594  0.1399 -0.9516  0.4904
16179SOL    HW250692   3.662   0.927   9.626 -0.3037  0.9554 -0.5094
16180SOL     OW50693   6.485   0.911   7.639 -0.2566 -0.3603 -0.9139
16180SOL    HW150694   6.427   0.876   7.707  1.2707 -1.3024 -0.0413
16180SOL    HW250695   6.426   0.956   7.579 -1.8184 -0.7092  0.2762
16181SOL     OW50696   1.725   1.846   5.724 -0.1029  0.5025 -0.2757
16181SOL    HW150697   1.634   1.854   5.753 -0.5428  3.1624 -1.9768
16181SOL    HW250698   1.719   1.823   5.631  0.9155  1.3325 -0.5664
16182SOL     OW50699   5.905   3.985   5.672 -0.2849 -0.8874  0.4148
16182SOL    HW150700   5.873   3.928   5.742 -0.6413 -0.2660  0.7692
16182SOL    HW250701   5.898   3.931   5.593 -0.7495 -1.2918  0.7194
16183SOL     OW50702   6.209   0.477   7.565 -0.4550  0.0888  0.1295
16183SOL    HW150703   6.255   0.499   7.484 -0.1922  2.6572  0.8914
16183SOL    HW250704   6.118   0.462   7.537 -0.1050 -0.3832 -0.7946
16184SOL     OW50705   9.146   5.745   1.976  0.1138  0.5275  0.1042
16184SOL    HW150706   9.222   5.699   2.011 -0.1881 -0.4117 -0.4412
16184SOL    HW250707   9.170   5.766   1.886 -0.8442 -1.2386 -0.6236
16185SOL     OW50708   7.318   4.132   5.733  0.4778  0.0602  0.1548
16185SOL    HW150709   7.252   4.066   5.712  0.4810 -0.0098  0.3575
16185SOL    HW250710   7.385   4.084   5.782 -0.1408  0.4510  1.4283
16186SOL     OW50711   7.110   3.230   3.005  0.4991  0.0762  0.6094
16186SOL    HW150712   7.041   3.259   3.065  0.1253 -0.8837  0.6651
16186SOL    HW250713   7.181   3.293   3.016  1.2766 -1.1610  3.5814
16187SOL     OW50714   6.757   2.754   2.517  0.4394  0.4064  0.6236
16187SOL    HW150715   6.732   2.845   2.503  0.3301  0.2425 -0.3305
16187SOL    HW250716   6.797   2.727   2.433 -1.3586 -1.0238  0.1618
16188SOL     OW50717   3.448   4.523   3.822 -0.1720  0.0640 -0.1718
16188SOL    HW150718   3.535   4.527   3.784  0.2234  1.6183  0.7753
16188SOL    HW250719   3.460   4.552   3.913 -1.8032  1.4196 -0.3228
16189SOL     OW50720   6.950   1.997   3.063  0.0077 -0.1362 -0.4334
16189SOL    HW150721   6.960   1.995   2.968  1.2712 -1.0822 -0.3159
16189SOL    HW250722   6.970   1.907   3.091  1.1994  0.4773  0.8399
16190SOL     OW50723   5.617   5.046   3.480  0.0423  0.1520 -0.1844
16190SOL    HW150724   5.677   5.008   3.544  0.4997 -0.5826 -1.0344
16190SOL    HW250725   5.610   4.981   3.411 -1.5549  0.3277 -0.2273
16191SOL     OW50726   0.447   0.880   2.791 -0.3406 -0.0939 -0.8517
16191SOL    HW150727   0.470   0.918   2.706  0.6648  0.8617 -0.1914
16191SOL    HW250728   0.530   0.875   2.838 -0.7139 -1.6044 -0.2907
16192SOL     OW50729   4.563   6.024   5.325 -0.1240  0.3076 -0.0499
16192SOL    HW150730   4.533   6.102   5.372 -1.2989  1.5024 -2.5268
16192SOL    HW250731   4.658   6.032   5.323 -0.1772  1.2275  0.4689
16193SOL     OW50732   5.433   6.278   8.055 -0.0822 -0.4260  0.0570
16193SOL    HW150733   5.479   6.253   8.135 -2.3799 -2.0021  0.9758
16193SOL    HW250734   5.432   6.374   8.056  4.2323 -0.1797 -0.7457
16194SOL     OW50735   0.199   6.090   0.760  0.2845 -0.0216  0.0723
16194SOL    HW150736   0.118   6.124   0.800  0.5603 -0.1616  0.7626
16194SOL    HW250737   0.223   6.156   0.696  0.8489  1.1609  1.4415
16195SOL     OW50738   0.504   0.831   4.198  0.5032 -0.5063  0.1837
16195SOL    HW150739   0.542   0.792   4.276 -0.2778  0.9305  1.3437
16195SOL    HW250740   0.425   0.780   4.180  1.2323 -1.4898 -0.3248
16196SOL     OW50741   1.299   9.478   6.430  0.4906  0.4264  0.0191
16196SOL    HW150742   1.353   9.439   6.361 -1.0695 -0.7956 -0.5528
16196SOL    HW250743   1.310   9.420   6.505 -2.0894 -1.4676 -0.9317
16197SOL     OW50744   3.980   9.271   7.280 -0.5814  0.4404 -0.1750
16197SOL    HW150745   4.059   9.322   7.297 -0.8281  0.1064  2.3509
16197SOL    HW250746   3.937   9.318   7.208  0.9645  1.6924 -0.3502
16198SOL     OW50747   4.347   6.278   5.676  0.0541 -0.3138 -0.4431
16198SOL    HW150748   4.322   6.198   5.722 -0.4091 -0.5407 -1.0753
16198SOL    HW250749   4.313   6.349   5.731 -2.0135 -0.6084 -1.2641
16199SOL     OW50750   6.978   4.729   7.246  0.2581 -0.0204  1.2523
16199SOL    HW150751   6.895   4.731   7.292 -1.0858 -0.3674 -0.9828
16199SOL    HW250752   6.997   4.636   7.233  0.8243  0.0620  1.4294
16200SOL     OW50753   5.401   9.309   0.004  0.3405  0.1781  0.3694
16200SOL    HW150754   5.355   9.392   0.021 -1.2841 -0.9041  1.5299
16200SOL    HW250755   5.460   9.299   0.079  1.1668  0.6564 -0.1928
16201SOL     OW50756   0.386   8.502   2.901  0.3048 -0.4180 -0.3480
16201SOL    HW150757   0.329   8.576   2.882 -0.2078 -0.5780  0.5523
16201SOL    HW250758   0.393   8.456   2.817 -0.3938 -0.0593 -0.6086
16202SOL     OW50759   0.420   0.719   2.417 -0.4641 -0.3273  0.9121
16202SOL    HW150760   0.460   0.789   2.365  1.0565 -1.3660  0.5993
16202SOL    HW250761   0.487   0.695   2.481 -1.0527 -1.3142  1.1852
16203SOL     OW50762   6.480   4.318   6.672  0.1432 -0.5796 -0.0272
16203SOL    HW150763   6.481   4.233   6.717  0.8968 -0.1240  0.8518
16203SOL    HW250764   6.471   4.295   6.579 -0.7111 -1.5713  0.2781
16204SOL     OW50765   1.830   5.729   4.672  0.2224 -0.4591  0.2568
16204SOL    HW150766   1.805   5.804   4.725  0.3259 -0.3628  0.1682
16204SOL    HW250767   1.893   5.681   4.726 -0.4220 -0.8983  0.6315
16205SOL     OW50768   4.151   7.227   9.522 -0.0612  0.5369 -0.4822
16205SOL    HW150769   4.074   7.281   9.540 -0.2508  0.1719 -0.1870
16205SOL    HW250770   4.146   7.209   9.428 -0.8815 -0.3013 -0.2968
16206SOL     OW50771   5.564   7.381   5.086  0.1654  0.0878 -0.6032
16206SOL    HW150772   5.495   7.426   5.038 -0.2206 -0.4972 -0.6037
16206SOL    HW250773   5.539   7.289   5.085  0.2657  0.0339  0.5242
16207SOL     OW50774   0.143   9.215   2.970 -0.4873 -0.0938  0.1003
16207SOL    HW150775   0.111   9.231   2.881 -0.4928  2.4263  0.4836
16207SOL    HW250776   0.238   9.221   2.962 -0.4532 -0.5546  0.1544
16208SOL     OW50777   7.479   5.574   8.766  0.2133  0.0238  0.3877
16208SOL    HW150778   7.455   5.567   8.674 -0.3906  0.6173  0.4918
16208SOL    HW250779   7.574   5.562   8.767 -0.1214 -3.7389  0.0951
16209SOL     OW50780   5.854   6.103   8.914  0.1289 -0.1152  0.5452
16209SOL    HW150781   5.873   6.182   8.964 -0.9406 -0.1685  1.0623
16209SOL    HW250782   5.868   6.128   8.823 -0.8652  0.8771  0.6476
16210SOL     OW50783   2.539   8.294   1.605 -0.0093 -0.0230  0.4186
16210SOL    HW150784   2.611   8.300   1.668 -0.5946 -0.0754  1.0970
16210SOL    HW250785   2.464   8.331   1.651 -0.5230 -0.3690 -0.1328
16211SOL     OW50786   0.950   2.529   9.393  0.4723 -0.5156 -0.5212
16211SOL    HW150787   0.941   2.609   9.444  0.6242 -0.1691 -1.0387
16211SOL    HW250788   1.014   2.477   9.442 -0.2535 -0.6926  0.2697
16212SOL     OW50789   4.938   7.648   0.359  0.3144  0.0668  0.3709
16212SOL    HW150790   5.013   7.603   0.397 -0.4236 -0.8734  0.7490
16212SOL    HW250791   4.866   7.632   0.420 -0.7507 -0.9546 -1.0871
16213SOL     OW50792   2.477   5.589   6.624  0.3214 -0.4426 -0.5690
16213SOL    HW150793   2.534   5.556   6.694 -0.9698  2.2368  1.9403
16213SOL    HW250794   2.532   5.651   6.576  0.4430 -0.2641 -0.2003
16214SOL     OW50795   2.562   6.786   1.025 -0.0127 -0.1856 -0.2253
16214SOL    HW150796   2.567   6.881   1.019 -2.6693  0.0950  0.6688
16214SOL    HW250797   2.476   6.769   1.065 -0.6017 -2.9976 -2.3653
16215SOL     OW50798   8.290   1.825   8.402 -0.2899  0.1963  0.4265
16215SOL    HW150799   8.203   1.815   8.441 -0.7918 -2.2666 -1.0932
16215SOL    HW250800   8.275   1.814   8.308  1.5738  0.4639  0.0570
16216SOL     OW50801   0.661   5.237   4.437 -0.3392 -0.9019  0.0705
16216SOL    HW150802   0.721   5.256   4.509 -0.2742 -0.0893 -0.1880
16216SOL    HW250803   0.620   5.321   4.417  0.9143 -0.7117 -1.9863
16217SOL     OW50804   0.147   6.220   8.983 -0.3462 -0.1641 -0.3377
16217SOL    HW150805   0.221   6.175   8.942 -0.9202 -1.0405 -0.4515
16217SOL    HW250806   0.166   6.313   8.973  0.0012 -0.3649 -1.7198
16218SOL     OW50807   3.363   0.289   6.993  0.0184 -0.0963 -0.0349
16218SOL    HW150808   3.392   0.200   6.970 -0.8226 -0.1580 -0.8917
16218SOL    HW250809   3.268   0.286   6.988  0.0012  1.0185 -0.6942
16219SOL     OW50810   5.041   9.048   1.192 -0.3912  0.6453  0.2039
16219SOL    HW150811   4.973   9.032   1.258 -1.6481  3.5168 -0.2261
16219SOL    HW250812   5.023   8.984   1.123 -0.9761 -0.3770  1.2711
16220SOL     OW50813   2.804   3.584   9.626 -0.3796 -0.0337 -0.0755
16220SOL    HW150814   2.743   3.644   9.667 -0.1373 -0.2972  0.6733
16220SOL    HW250815   2.801   3.505   9.679  0.4235 -0.1413 -0.1689
16221SOL     OW50816   8.345   4.822   7.701 -0.4801 -0.7821  0.1401
16221SOL    HW150817   8.318   4.885   7.635 -1.5776 -2.2287 -0.8424
16221SOL    HW250818   8.438   4.808   7.684 -0.6372 -0.7480 -0.7690
16222SOL     OW50819   7.103   4.424   6.944 -0.2108  0.4110 -0.5944
16222SOL    HW150820   7.169   4.356   6.941 -2.2511 -1.6490 -1.8388
16222SOL    HW250821   7.105   4.463   6.856 -0.1987  0.7926 -0.4261
16223SOL     OW50822   3.116   5.765   2.676 -0.3193 -0.8473 -0.3393
16223SOL    HW150823   3.050   5.807   2.731 -0.0253 -1.5098  0.5416
16223SOL    HW250824   3.083   5.775   2.586 -0.9846 -0.0768 -0.0197
16224SOL     OW50825   0.999   4.510   8.912 -0.4141 -0.1579  0.2735
16224SOL    HW150826   1.024   4.419   8.898  0.2479  0.1288 -0.5271
16224SOL    HW250827   0.966   4.513   9.001  0.3472 -1.0273  0.6003
16225SOL     OW50828   3.302   4.062   6.995 -0.1456 -0.1186  0.0462
16225SOL    HW150829   3.281   3.993   7.058 -0.0816 -0.1608  0.0215
16225SOL    HW250830   3.329   4.136   7.049 -2.6175  0.7651  0.2253
16226SOL     OW50831   6.742   8.136   5.484  0.2540 -0.5184 -0.0790
16226SOL    HW150832   6.715   8.046   5.500  1.7540 -0.7607  1.3768
16226SOL    HW250833   6.823   8.128   5.432  0.6184 -0.0455  0.4050
16227SOL     OW50834   4.799   7.199   8.776 -0.4251 -0.1785  0.4954
16227SOL    HW150835   4.763   7.258   8.710 -0.3280  0.5999  1.1185
16227SOL    HW250836   4.894   7.213   8.772 -0.2410 -1.4837 -0.4489
16228SOL     OW50837   7.561   7.059   2.274 -0.5589 -0.5963  0.1779
16228SOL    HW150838   7.655   7.073   2.264 -0.0013 -3.3242  0.7812
16228SOL    HW250839   7.522   7.109   2.203  1.2735  1.1104  0.2742
16229SOL     OW50840   0.344   5.593   2.035 -0.1740  0.5965 -0.2835
16229SOL    HW150841   0.261   5.553   2.008  0.0106  0.3141 -0.4244
16229SOL    HW250842   0.377   5.536   2.104  0.2385  0.3412 -0.6936
16230SOL     OW50843   0.899   9.180   1.142 -0.0634 -0.5958 -0.4666
16230SOL    HW150844   0.912   9.248   1.076 -0.4752 -1.4456 -1.4420
16230SOL    HW250845   0.968   9.116   1.124  0.7620 -0.1321  0.8902
16231SOL     OW50846   2.402   9.531   4.876 -0.1919 -0.3824  0.2220
16231SOL    HW150847   2.379   9.484   4.956  1.6766 -1.5601  0.1345
16231SOL    HW250848   2.471   9.592   4.903  0.6325 -0.9663 -0.5130
16232SOL     OW50849   8.259   9.086   3.824  0.5937  0.1454 -0.0242
16232SOL    HW150850   8.242   9.180   3.815  0.9842  0.1834 -0.4363
16232SOL    HW250851   8.283   9.075   3.916 -0.8075  0.2141  0.3722
16233SOL     OW50852   5.968   8.427   6.439  0.6406  0.4844 -0.2460
16233SOL    HW150853   5.908   8.484   6.390  1.6632  2.0980  0.2927
16233SOL    HW250854   5.920   8.406   6.520  0.4947  1.1152 -0.1625
16234SOL     OW50855   0.362   2.999   8.109  0.2928  0.7605 -0.0432
16234SOL    HW150856   0.375   2.956   8.024 -0.2900  1.9384 -0.7611
16234SOL    HW250857   0.363   3.092   8.088 -1.1896  1.0422  1.0421
16235SOL     OW50858   0.400   1.981   0.351  0.4863  0.7368  0.4103
16235SOL    HW150859   0.320   2.018   0.388 -0.0192  0.7196 -0.6364
16235SOL    HW250860   0.408   1.894   0.391 -0.3239  0.5183  0.1109
16236SOL     OW50861   6.047   9.213   1.440  0.3192  0.0777 -0.1927
16236SOL    HW150862   6.005   9.127   1.443  0.1980  0.0999 -1.0965
16236SOL    HW250863   5.977   9.275   1.460  0.8314 -0.1263  2.6128
16237SOL     OW50864   2.184   5.599   6.574  0.4733 -0.0043  0.7328
16237SOL    HW150865   2.138   5.533   6.627 -0.4711  1.3862  1.7125
16237SOL    HW250866   2.274   5.597   6.607  0.4217 -0.6709  0.8677
16238SOL     OW50867   0.288   1.915   1.721  0.1263 -0.2464 -0.0760
16238SOL    HW150868   0.335   1.994   1.693  1.1745 -0.8488 -0.0783
16238SOL    HW250869   0.327   1.893   1.806 -1.7286  0.5055  1.0327
16239SOL     OW50870   3.187   8.952   4.636  0.4508  0.1190 -0.0040
16239SOL    HW150871   3.130   8.957   4.559  0.5251  0.0577 -0.0633
16239SOL    HW250872   3.241   8.874   4.621  0.0883 -0.2013  0.3705
16240SOL     OW50873   2.785   9.326   3.761  0.3166 -0.1944 -0.3006
16240SOL    HW150874   2.739   9.384   3.821  1.4668 -0.3723  0.7848
16240SOL    HW250875   2.736   9.332   3.679 -1.3868 -0.0736  0.6930
16241SOL     OW50876   6.916   3.326   2.350  0.6420 -0.4167  0.1592
16241SOL    HW150877   6.845   3.278   2.393  0.1402  0.0557 -0.1202
16241SOL    HW250878   6.981   3.259   2.328 -0.2013 -1.0325 -0.5428
16242SOL     OW50879   6.750   7.800   9.370 -0.3010  0.4526  0.3618
16242SOL    HW150880   6.770   7.719   9.323 -2.0401 -1.2697  2.3860
16242SOL    HW250881   6.743   7.866   9.302 -0.8264 -1.5004 -1.6025
16243SOL     OW50882   3.609   3.309   1.937 -0.0343 -0.1299  0.3623
16243SOL    HW150883   3.701   3.328   1.918  0.2119 -3.0751 -2.0255
16243SOL    HW250884   3.562   3.346   1.863 -0.6169 -0.1056  0.7398
16244SOL     OW50885   4.185   7.213   7.876 -0.4569  0.2748 -0.4937
16244SOL    HW150886   4.169   7.203   7.969  2.2848  0.1080  0.0520
16244SOL    HW250887   4.189   7.307   7.861  0.9659  0.3221 -0.0013
16245SOL     OW50888   8.963   0.702   8.092 -0.2167  0.8498 -0.4692
16245SOL    HW150889   8.979   0.669   8.181 -0.2769  0.3671 -0.6382
16245SOL    HW250890   9.050   0.706   8.052  0.0054  2.5084  0.1010
16246SOL     OW50891   9.090   3.968   1.738  0.0251 -0.5898 -0.0619
16246SOL    HW150892   9.084   3.873   1.729  0.1664 -0.5398 -0.6730
16246SOL    HW250893   9.163   3.993   1.681  1.0822 -0.3044  1.3366
16247SOL     OW50894   2.011   3.287   5.479 -0.3250 -0.2533 -0.1106
16247SOL    HW150895   2.038   3.210   5.429 -0.7730 -0.4985  0.0170
16247SOL    HW250896   1.951   3.333   5.420 -1.0474 -0.6731  0.2885
16248SOL     OW50897   6.238   4.710   5.019  0.0177  0.4215 -0.0005
16248SOL    HW150898   6.156   4.676   5.055  0.4999 -1.0406 -0.1873
16248SOL    HW250899   6.214   4.749   4.935 -0.7293  1.5577  0.7237
16249SOL     OW50900   4.455   0.838   5.218  0.6035 -0.0134  0.6797
16249SOL    HW150901   4.450   0.820   5.311 -0.4268 -1.1438  0.4300
16249SOL    HW250902   4.411   0.765   5.176  0.1987  0.9372 -0.6533
16250SOL     OW50903   8.083   0.404   4.625 -0.1573 -0.2181 -0.2166
16250SOL    HW150904   8.023   0.329   4.622 -1.0964  0.4405  1.0068
16250SOL    HW250905   8.082   0.431   4.717  0.9451  0.6886 -0.4525
16251SOL     OW50906   3.607   9.051   8.476 -0.3544 -0.2868  0.1532
16251SOL    HW150907   3.650   9.064   8.392 -0.7131  1.0819  0.1521
16251SOL    HW250908   3.631   9.129   8.527 -3.1395  0.7881 -0.0107
16252SOL     OW50909   1.203   7.825   2.592 -0.0235  0.5186 -0.2058
16252SOL    HW150910   1.164   7.883   2.526  1.4113 -1.3847 -2.8944
16252SOL    HW250911   1.240   7.752   2.542  2.3922 -0.3824  2.5894
16253SOL     OW50912   1.312   7.062   6.368 -0.6795 -0.5877 -0.0494
16253SOL    HW150913   1.315   7.154   6.345  1.6842 -0.4542  0.5265
16253SOL    HW250914   1.391   7.047   6.420 -1.7641 -2.6034  1.2037
16254SOL     OW50915   1.939   8.396   4.612  0.3483  0.0896 -0.4003
16254SOL    HW150916   1.984   8.357   4.687 -0.7282  1.1001  0.8279
16254SOL    HW250917   1.941   8.490   4.630 -0.8997  0.2622 -1.0819
16255SOL     OW50918   3.920   3.210   6.341  0.0154 -0.5096  0.0196
16255SOL    HW150919   3.843   3.197   6.286  0.4960  1.7662 -1.3431
16255SOL    HW250920   3.946   3.301   6.324  2.7016 -1.0443  0.8148
16256SOL     OW50921   5.811   9.139   3.158  0.7679  0.5078 -0.3067
16256SOL    HW150922   5.737   9.189   3.123  0.4250  0.8455  0.8709
16256SOL    HW250923   5.805   9.054   3.114 -2.0940 -0.5705  1.8342
16257SOL     OW50924   3.462   8.142   5.723 -0.0219  0.4304  0.3529
16257SOL    HW150925   3.417   8.162   5.641 -1.0749  0.0251  0.8153
16257SOL    HW250926   3.396   8.157   5.791  1.0954  1.6021  1.2091
16258SOL     OW50927   3.469   5.912   4.790  0.3319  0.1792  0.1504
16258SOL    HW150928   3.521   5.993   4.788  1.8430 -0.7592  0.2603
16258SOL    HW250929   3.533   5.842   4.800 -1.0203 -0.9885  0.9931
16259SOL     OW50930   3.656   8.825   4.297 -0.2878 -0.3342  0.3049
16259SOL    HW150931   3.746   8.825   4.266  0.0514  1.7747  1.1793
16259SOL    HW250932   3.660   8.866   4.383 -2.0579 -0.4316  0.4706
16260SOL     OW50933   8.679   3.051   8.067 -0.0026  1.0722 -0.3023
16260SOL    HW150934   8.720   3.137   8.057  0.7887  0.6982 -0.3379
16260SOL    HW250935   8.751   2.989   8.062 -0.1797  0.5286  2.3310
16261SOL     OW50936   7.748   0.425   4.575 -0.1311  0.3727 -0.0055
16261SOL    HW150937   7.748   0.361   4.503 -0.3809 -0.8032  1.0087
16261SOL    HW250938   7.832   0.414   4.618  0.9292  2.5549 -1.3226
16262SOL     OW50939   7.944   7.693   2.544 -0.1376 -0.2933 -0.1500
16262SOL    HW150940   7.867   7.729   2.589 -0.7600 -0.8974 -0.6968
16262SOL    HW250941   7.977   7.766   2.491  1.1841  0.7191  1.9587
16263SOL     OW50942   2.466   0.970   7.374  0.2176 -0.1266  0.1146
16263SOL    HW150943   2.392   1.031   7.378 -0.8973 -1.4403  0.1974
16263SOL    HW250944   2.539   1.019   7.412 -0.7076  1.0518  0.4486
16264SOL     OW50945   0.953   0.722   7.777  0.2338 -0.1538 -0.0488
16264SOL    HW150946   0.976   0.758   7.863  0.0349  1.9435 -0.8319
16264SOL    HW250947   0.996   0.780   7.714  1.9618 -2.7061 -1.4328
16265SOL     OW50948   7.091   1.942   1.974 -0.0247 -0.3293 -0.2536
16265SOL    HW150949   7.164   1.884   1.955 -0.1006 -0.2253 -0.9052
16265SOL    HW250950   7.019   1.883   1.998  0.3399 -0.4164  0.6686
16266SOL     OW50951   1.678   8.076   2.930 -0.0178  0.1028  0.0491
16266SOL    HW150952   1.766   8.048   2.954 -0.6602 -0.4455  1.9392
16266SOL    HW250953   1.624   8.051   3.005 -1.6012  1.3886 -0.6113
16267SOL     OW50954   5.457   8.367   1.616 -0.0309 -0.0275  0.1169
16267SOL    HW150955   5.549   8.344   1.635 -0.2533  0.0858  1.3991
16267SOL    HW250956   5.459   8.462   1.602  0.0979 -0.0750 -0.2002
16268SOL     OW50957   9.458   1.341   2.687 -0.4928 -0.3399  0.1145
16268SOL    HW150958   9.450   1.414   2.626  1.9254  0.8275  1.0723
16268SOL    HW250959   9.529   1.287   2.651  1.2659  0.5875  1.9685
16269SOL     OW50960   5.266   2.743   9.172 -0.9745  0.4538  0.0469
16269SOL    HW150961   5.175   2.760   9.195 -1.0615 -0.2987  0.2893
16269SOL    HW250962   5.261   2.671   9.109 -0.6095  1.1213 -0.7734
16270SOL     OW50963   9.369   8.644   2.748 -0.1929 -0.1388 -0.4665
16270SOL    HW150964   9.311   8.685   2.812 -0.0299  0.5769 -0.7702
16270SOL    HW250965   9.392   8.714   2.688  1.4842 -0.2679 -0.0131
16271SOL     OW50966   0.878   6.196   0.314 -0.0277  0.3405 -0.2686
16271SOL    HW150967   0.933   6.181   0.390  1.3886  0.2640 -1.2671
16271SOL    HW250968   0.810   6.129   0.320  1.0804 -0.8008  0.0305
16272SOL     OW50969   7.624   4.442   0.763 -0.1054 -0.1611 -0.3888
16272SOL    HW150970   7.633   4.488   0.847 -2.1579 -0.2269 -0.0859
16272SOL    HW250971   7.536   4.463   0.734  0.2442 -0.9144 -2.0853
16273SOL     OW50972   1.303   3.004   7.532  0.0893 -0.7220  0.1517
16273SOL    HW150973   1.243   2.997   7.606 -0.5712 -3.1827 -0.5382
16273SOL    HW250974   1.370   2.938   7.549 -0.2690 -1.5824 -1.5728
16274SOL     OW50975   4.285   8.572   0.078 -0.1414  0.6679 -0.6620
16274SOL    HW150976   4.263   8.640   0.141  0.0107  0.9737 -0.9305
16274SOL    HW250977   4.344   8.616   0.016  0.2327  0.2001 -0.6453
16275SOL     OW50978   8.190   0.144   3.310 -0.1416  0.3306 -0.1646
16275SOL    HW150979   8.260   0.079   3.311  0.7211  1.2154  1.1226
16275SOL    HW250980   8.113   0.096   3.281  0.9035 -0.7627 -1.2489
16276SOL     OW50981   8.085   9.144   3.215 -0.0956 -0.1765  0.6110
16276SOL    HW150982   8.087   9.054   3.184  0.1418  0.5147 -1.5393
16276SOL    HW250983   7.992   9.168   3.213 -0.3402 -0.8077  2.6568
16277SOL     OW50984   2.522   3.009   3.080  0.1418 -0.2921 -0.2797
16277SOL    HW150985   2.484   3.093   3.056 -0.8811 -0.2783  1.2309
16277SOL    HW250986   2.575   3.029   3.157  0.5434 -0.8919 -0.3994
16278SOL     OW50987   6.280   3.943   6.407 -0.3995 -0.0707  0.2531
16278SOL    HW150988   6.261   3.909   6.320 -0.5193 -1.1402  0.6797
16278SOL    HW250989   6.264   4.037   6.400  1.0946  0.1217 -1.2842
16279SOL     OW50990   1.402   8.108   1.620 -0.2871 -0.1894 -0.0542
16279SOL    HW150991   1.348   8.171   1.668 -1.6072 -1.2061 -0.1623
16279SOL    HW250992   1.343   8.072   1.554  0.7848 -0.6972 -0.7528
16280SOL     OW50993   2.281   8.118   5.821 -0.0001 -0.5910  0.8422
16280SOL    HW150994   2.303   8.058   5.893 -2.0306 -0.4153  1.6781
16280SOL    HW250995   2.231   8.188   5.863 -0.0152  0.2689 -0.5572
16281SOL     OW50996   8.188   7.542   0.998  0.0280  0.0984  0.1517
16281SOL    HW150997   8.094   7.554   1.012  0.1314  1.6744 -0.3970
16281SOL    HW250998   8.209   7.598   0.924  1.1035 -1.5444 -0.8603
16282SOL     OW50999   0.658   5.268   7.643 -0.0775 -0.1303 -0.0682
16282SOL    HW151000   0.585   5.220   7.683  0.2176 -0.2755  0.3144
16282SOL    HW251001   0.722   5.200   7.623 -0.1912 -0.0439 -0.7228
16283SOL     OW51002   7.879   2.899   7.410 -0.6072 -0.3894 -0.4554
16283SOL    HW151003   7.926   2.976   7.441 -0.4378 -0.2900 -0.9529
16283SOL    HW251004   7.926   2.871   7.331 -1.3028 -0.3559 -0.8967
16284SOL     OW51005   2.737   6.531   8.862  0.2366  0.1824 -0.2332
16284SOL    HW151006   2.718   6.615   8.906 -0.4446  0.5626 -1.2273
16284SOL    HW251007   2.805   6.553   8.798  1.3265 -0.4002  0.6835
16285SOL     OW51008   9.219   3.993   8.606  0.2134  0.2108 -0.3162
16285SOL    HW151009   9.263   3.977   8.522 -0.2423 -0.9184 -0.3526
16285SOL    HW251010   9.146   3.931   8.607 -0.4509  0.9907  0.4317
16286SOL     OW51011   9.489   1.664   0.289 -0.0007 -0.3366  0.0216
16286SOL    HW151012   9.431   1.710   0.228  1.1344  0.0873 -0.7721
16286SOL    HW251013   9.577   1.691   0.263  0.6631 -2.2602  0.1317
16287SOL     OW51014   4.632   8.680   1.350 -0.4613 -0.0538 -0.5049
16287SOL    HW151015   4.585   8.763   1.359  0.5074  0.3919  0.7854
16287SOL    HW251016   4.719   8.705   1.319  0.1807 -0.4332  0.8750
16288SOL     OW51017   0.287   8.393   4.044  0.5175 -0.4529 -0.0369
16288SOL    HW151018   0.245   8.330   3.984  0.1482  0.6197 -0.9309
16288SOL    HW251019   0.381   8.381   4.028  0.4043  0.8886 -2.0087
16289SOL     OW51020   7.516   8.452   7.371  0.3447  0.1107 -0.1539
16289SOL    HW151021   7.438   8.477   7.420 -0.4014 -1.0691 -0.7007
16289SOL    HW251022   7.529   8.523   7.307  0.2771  0.7598  0.5406
16290SOL     OW51023   1.685   8.942   6.204  0.2324  0.1970 -0.0229
16290SOL    HW151024   1.760   8.951   6.264  1.8843 -4.1429 -1.0561
16290SOL    HW251025   1.619   8.895   6.256 -0.4803  1.1031 -0.0947
16291SOL     OW51026   0.719   4.468   1.414 -0.0110  0.2766  0.3631
16291SOL    HW151027   0.646   4.407   1.410  1.1276 -1.0623 -0.9668
16291SOL    HW251028   0.760   4.463   1.328  1.5541  1.1288  1.0134
16292SOL     OW51029   5.436   0.279   2.598 -0.3662 -0.2755  0.3758
16292SOL    HW151030   5.492   0.347   2.636 -1.2114  0.5032  0.2660
16292SOL    HW251031   5.419   0.309   2.509  0.6140 -1.4901 -0.2558
16293SOL     OW51032   3.952   7.299   1.424  0.0295  0.1837 -0.0404
16293SOL    HW151033   4.031   7.265   1.382  1.1106  2.8533 -0.4134
16293SOL    HW251034   3.981   7.327   1.511 -0.5603  0.8782 -0.0581
16294SOL     OW51035   8.627   3.724   8.451  0.0578  0.5697  0.0752
16294SOL    HW151036   8.544   3.677   8.458  0.8903 -1.0709 -0.5723
16294SOL    HW251037   8.604   3.816   8.463 -1.5980 -0.0045  1.6511
16295SOL     OW51038   0.834   0.198   2.679  0.1713 -0.6744 -0.2044
16295SOL    HW151039   0.756   0.201   2.734 -0.3388  1.5660 -0.9284
16295SOL    HW251040   0.872   0.112   2.695 -1.8712 -1.4222  0.9599
16296SOL     OW51041   0.459   1.353   6.322 -0.5586 -0.0608  0.5838
16296SOL    HW151042   0.537   1.358   6.377 -0.9807 -1.1862  1.3130
16296SOL    HW251043   0.459   1.263   6.289 -2.2780 -0.5202  1.7242
16297SOL     OW51044   2.447   3.798   6.902  0.5504 -0.3201  0.7473
16297SOL    HW151045   2.528   3.821   6.858  0.5605 -0.4258  0.7087
16297SOL    HW251046   2.452   3.841   6.987  1.4352 -1.7138  1.4447
16298SOL     OW51047   0.494   2.545   2.175  0.2346  0.2481 -0.1727
16298SOL    HW151048   0.521   2.588   2.094  0.9756  0.2595  0.0777
16298SOL    HW251049   0.488   2.615   2.239  1.0875  0.0427  0.1445
16299SOL     OW51050   3.930   7.420   5.140 -0.4984 -0.2135 -0.1877
16299SOL    HW151051   3.879   7.395   5.064 -0.0480 -0.9531 -0.2569
16299SOL    HW251052   3.910   7.354   5.206 -1.8380  1.0966  0.7861
16300SOL     OW51053   5.360   5.863   6.280 -0.1091  0.0889 -0.1673
16300SOL    HW151054   5.404   5.893   6.360  0.2269 -1.5007  0.2787
16300SOL    HW251055   5.268   5.855   6.304 -0.1425  0.3919 -0.1878
16301SOL     OW51056   6.376   4.776   5.245  0.3028 -0.0473 -0.4907
16301SOL    HW151057   6.378   4.695   5.297 -0.3867  1.1562  1.5264
16301SOL    HW251058   6.324   4.754   5.168  0.1531 -1.5373  0.0002
16302SOL     OW51059   4.108   3.495   7.105  0.5114 -0.1076  0.1702
16302SOL    HW151060   4.082   3.422   7.161  0.4604  0.6285  1.1439
16302SOL    HW251061   4.057   3.484   7.025  0.6475 -1.2338  0.2300
16303SOL     OW51062   8.226   6.557   4.378  0.3869 -0.4892  0.5484
16303SOL    HW151063   8.197   6.469   4.398 -3.7376  0.7991  1.2976
16303SOL    HW251064   8.174   6.582   4.301  0.1940  1.7584  1.3200
16304SOL     OW51065   0.146   8.660   0.832 -0.5949 -0.4614 -0.5648
16304SOL    HW151066   0.087   8.603   0.882 -1.0082  0.7580  0.3978
16304SOL    HW251067   0.223   8.671   0.888 -1.0502  0.9020 -0.1599
16305SOL     OW51068   5.042   4.087   0.942  0.3574  0.3206  0.0759
16305SOL    HW151069   5.121   4.111   0.991 -0.2130 -0.1243  1.2613
16305SOL    HW251070   5.070   4.086   0.851  1.3983  1.4182  0.3595
16306SOL     OW51071   5.952   9.204   1.739 -0.4460  0.2632 -0.0135
16306SOL    HW151072   6.033   9.241   1.704 -0.8709  1.2054 -0.0347
16306SOL    HW251073   5.885   9.269   1.719 -0.9245  0.2686  1.4385
16307SOL     OW51074   6.205   9.397   4.613  0.0956  0.2336 -0.4267
16307SOL    HW151075   6.240   9.484   4.596  1.6651 -0.5268 -1.2823
16307SOL    HW251076   6.281   9.339   4.612 -1.1273 -1.4719 -2.1501
16308SOL     OW51077   5.397   4.641   9.486  0.3148  0.1078  0.4204
16308SOL    HW151078   5.425   4.595   9.407  0.8822 -0.5237  0.9715
16308SOL    HW251079   5.476   4.686   9.518  0.0922  0.3616  0.6199
16309SOL     OW51080   5.356   9.530   3.616  0.7989 -0.0874  0.2072
16309SOL    HW151081   5.303   9.452   3.632  0.7337 -0.1532 -0.3193
16309SOL    HW251082   5.447   9.499   3.620  0.9059  0.3456  2.9044
16310SOL     OW51083   0.035   0.600   4.900 -0.4202  0.2513  0.5145
16310SOL    HW151084   0.054   0.617   4.992  1.5342  0.4003  0.1278
16310SOL    HW251085   0.031   0.687   4.860 -1.5305  0.1985  0.4892
16311SOL     OW51086   7.392   2.040   0.714  0.4769  0.3611 -0.1462
16311SOL    HW151087   7.463   2.003   0.662 -0.8252  0.3180 -1.9659
16311SOL    HW251088   7.421   2.027   0.805  1.6025 -2.0597 -0.7560
16312SOL     OW51089   0.544   7.880   0.074 -0.1504  0.1277  0.3582
16312SOL    HW151090   0.577   7.943   0.009  0.0792 -1.0648 -0.7163
16312SOL    HW251091   0.472   7.835   0.030 -1.7826  1.1081  1.8820
16313SOL     OW51092   4.390   2.605   1.245  0.2846  0.6735 -0.1382
16313SOL    HW151093   4.338   2.603   1.325  0.0808  2.8702 -0.1658
16313SOL    HW251094   4.402   2.512   1.222 -0.3427  0.0202  1.9533
16314SOL     OW51095   5.159   8.203   5.617 -0.6334 -0.4434  0.2643
16314SOL    HW151096   5.065   8.186   5.628 -0.4961 -2.2287 -0.9310
16314SOL    HW251097   5.163   8.270   5.549 -1.0278 -0.8483 -0.1665
16315SOL     OW51098   4.466   1.391   7.326 -0.0763  0.2399  0.3528
16315SOL    HW151099   4.531   1.376   7.394  1.4072 -1.9740 -1.3682
16315SOL    HW251100   4.445   1.484   7.332  2.5834  0.8602  1.5823
16316SOL     OW51101   3.718   8.208   5.799  0.0240  0.1710 -0.2734
16316SOL    HW151102   3.721   8.156   5.880 -1.3752  0.7402  0.1796
16316SOL    HW251103   3.632   8.189   5.762  1.1915 -1.2488 -2.4720
16317SOL     OW51104   5.604   1.528   5.399  0.0236 -0.6810 -0.6400
16317SOL    HW151105   5.539   1.591   5.366 -0.1829 -1.4246 -1.7225
16317SOL    HW251106   5.607   1.544   5.493 -0.1287  0.8390 -0.8634
16318SOL     OW51107   0.862   0.922   7.539  0.1602 -0.2815 -0.3349
16318SOL    HW151108   0.844   0.944   7.448  2.0512  0.3088 -0.6123
16318SOL    HW251109   0.787   0.869   7.567  0.7243 -2.7566 -3.0352
16319SOL     OW51110   6.838   4.540   2.029  0.1224 -0.0523  0.2326
16319SOL    HW151111   6.900   4.603   2.065 -0.2026  0.3619  0.0823
16319SOL    HW251112   6.834   4.560   1.936  1.0231 -1.1783 -0.0725
16320SOL     OW51113   4.333   5.385   6.016  0.0614 -0.1885 -0.1468
16320SOL    HW151114   4.392   5.363   6.088 -0.0039 -0.1240 -0.0738
16320SOL    HW251115   4.268   5.315   6.015 -1.5131  1.1373  1.5505
16321SOL     OW51116   1.850   2.076   4.822  0.1962 -0.3759 -0.1632
16321SOL    HW151117   1.909   2.119   4.884  1.3703 -3.3442  0.9901
16321SOL    HW251118   1.903   2.064   4.743 -0.0573  0.1179 -0.4080
16322SOL     OW51119   5.982   0.110   9.381  0.4070  0.3359 -0.5732
16322SOL    HW151120   5.997   0.178   9.315  1.0917 -0.4822 -1.2888
16322SOL    HW251121   5.887   0.108   9.391  0.4337  2.9710  1.1880
16323SOL     OW51122   3.887   9.092   0.188 -0.3560  0.8565 -0.0894
16323SOL    HW151123   3.849   9.136   0.264 -1.0277 -0.9117  0.6506
16323SOL    HW251124   3.868   9.151   0.115  1.9701  3.5525  1.2862
16324SOL     OW51125   0.940   8.470   6.507  0.0472 -0.4263  0.6789
16324SOL    HW151126   0.845   8.461   6.510 -0.0234  0.0359  0.1454
16324SOL    HW251127   0.967   8.487   6.597 -0.5239  0.7101  0.6578
16325SOL     OW51128   5.884   2.426   2.249  0.1596  0.0496  0.1736
16325SOL    HW151129   5.897   2.502   2.193  2.2087 -0.1020  0.3900
16325SOL    HW251130   5.929   2.355   2.204 -0.5426 -0.7348  0.6706
16326SOL     OW51131   3.825   3.053   6.957  0.4772 -0.0587  0.5255
16326SOL    HW151132   3.732   3.037   6.939  0.4673  0.3083  0.2410
16326SOL    HW251133   3.854   2.975   7.005  0.6500 -1.3628 -1.5912
16327SOL     OW51134   8.714   2.949   9.148 -0.2879  0.5379 -0.1086
16327SOL    HW151135   8.666   3.029   9.171 -0.4789  0.2635  0.4457
16327SOL    HW251136   8.753   2.969   9.063 -1.1767  0.8578 -0.4501
16328SOL     OW51137   2.528   8.954   3.885 -0.4571  0.3509 -0.2306
16328SOL    HW151138   2.477   8.876   3.908  1.2159 -0.5796  0.5309
16328SOL    HW251139   2.606   8.919   3.840 -0.6897  1.7487 -1.8375
16329SOL     OW51140   4.172   1.244   0.724  0.0046 -0.2180  0.0723
16329SOL    HW151141   4.110   1.250   0.651  0.2721 -1.0622 -0.2459
16329SOL    HW251142   4.119   1.220   0.800  0.0003 -1.6694 -0.3481
16330SOL     OW51143   8.070   2.605   3.197 -0.1470 -0.3357  0.1566
16330SOL    HW151144   8.052   2.666   3.125 -0.9785 -0.3993  0.2951
16330SOL    HW251145   8.130   2.653   3.254 -0.5626  0.2577  0.1148
16331SOL     OW51146   6.324   8.417   7.552  0.6332  0.6750  0.5309
16331SOL    HW151147   6.300   8.453   7.638 -1.5726 -0.8754  0.6540
16331SOL    HW251148   6.378   8.341   7.573  0.6254  0.6672  0.5223
16332SOL     OW51149   9.098   4.791   1.561 -0.4829  0.1791  0.7045
16332SOL    HW151150   9.021   4.831   1.520 -0.7495 -0.4325  0.6029
16332SOL    HW251151   9.087   4.808   1.655 -0.4091  0.6602  0.6263
16333SOL     OW51152   8.412   5.772   1.895 -0.2240  0.3899 -0.0185
16333SOL    HW151153   8.471   5.789   1.821 -0.6865  0.2801 -0.4192
16333SOL    HW251154   8.446   5.692   1.934 -0.4029  0.0437 -0.5574
16334SOL     OW51155   0.034   4.562   4.633  0.0917  0.2757  0.0801
16334SOL    HW151156  -0.021   4.584   4.558  0.8823 -0.8785 -0.8827
16334SOL    HW251157  -0.001   4.615   4.705  0.1804  2.4808 -1.4063
16335SOL     OW51158   1.724   5.676   2.175 -0.6884  0.0127 -0.2773
16335SOL    HW151159   1.709   5.675   2.080  0.3183  1.7543 -0.5037
16335SOL    HW251160   1.816   5.650   2.184 -0.9284 -0.6608  0.2729
16336SOL     OW51161   5.634   5.896   1.037  0.1216 -0.1963 -0.8215
16336SOL    HW151162   5.720   5.877   1.074  0.1174 -1.6296 -1.4817
16336SOL    HW251163   5.652   5.917   0.945 -0.0231  1.8229 -0.4285
16337SOL     OW51164   6.840   4.099   0.734  0.4365 -0.2931 -0.1935
16337SOL    HW151165   6.885   4.156   0.796 -0.1205 -1.2124  1.0957
16337SOL    HW251166   6.867   4.011   0.758 -1.3196 -0.8108  0.0364
16338SOL     OW51167   6.094   7.027   6.514 -0.5116 -0.3329 -0.0751
16338SOL    HW151168   6.072   7.006   6.424 -1.4762  0.2164  0.0114
16338SOL    HW251169   6.101   6.943   6.558  1.8143 -0.7198 -1.0306
16339SOL     OW51170   4.785   3.307   8.246  0.2931  0.0276 -0.2819
16339SOL    HW151171   4.813   3.265   8.164 -0.6326 -2.1817  0.4492
16339SOL    HW251172   4.863   3.306   8.301  0.3652 -0.5244 -0.3839
16340SOL     OW51173   9.415   3.806   1.481 -0.3800 -0.4348  0.2907
16340SOL    HW151174   9.440   3.775   1.568  0.4568 -1.5351 -0.3104
16340SOL    HW251175   9.320   3.805   1.481 -0.4456  1.4142  1.8122
16341SOL     OW51176   5.833   8.778   5.341  0.7238  0.7282 -0.1259
16341SOL    HW151177   5.770   8.721   5.386  1.5186 -0.3286 -0.3024
16341SOL    HW251178   5.816   8.865   5.376 -0.2492  0.3149  0.4747
16342SOL     OW51179   6.775   8.909   6.391  0.4159  0.7424  0.1057
16342SOL    HW151180   6.689   8.897   6.351  0.1523 -1.4933  1.2229
16342SOL    HW251181   6.835   8.860   6.334  0.5558  0.3077  0.6170
16343SOL     OW51182   0.363   1.242   1.183 -0.1425  0.5829 -0.0271
16343SOL    HW151183   0.268   1.249   1.181 -0.2296 -0.4643 -1.0858
16343SOL    HW251184   0.384   1.232   1.276 -1.1708 -0.1711  0.1540
16344SOL     OW51185   1.034   3.533   2.829  0.4181  0.6476 -0.2277
16344SOL    HW151186   1.098   3.516   2.899  1.5273 -0.5310 -1.4726
16344SOL    HW251187   1.085   3.573   2.759 -0.3906  0.5233 -0.9010
16345SOL     OW51188   6.892   4.364   3.743 -0.5897  0.3142  0.0569
16345SOL    HW151189   6.827   4.343   3.676 -0.4046  2.4111 -0.8473
16345SOL    HW251190   6.889   4.459   3.752 -1.3866  0.0853  3.9012
16346SOL     OW51191   1.464   6.044   7.860 -0.4008 -0.0086 -0.5600
16346SOL    HW151192   1.496   5.977   7.800 -0.7170  0.5766 -1.3878
16346SOL    HW251193   1.371   6.051   7.842 -0.0714  1.9113 -1.7659
16347SOL     OW51194   3.210   9.333   0.950  0.3030  0.5095  0.1478
16347SOL    HW151195   3.175   9.418   0.924 -3.1302 -0.6853  0.3488
16347SOL    HW251196   3.177   9.321   1.040  0.6144 -1.0663  0.0747
16348SOL     OW51197   3.796   0.297   6.206 -0.0551  0.2322 -0.3353
16348SOL    HW151198   3.780   0.392   6.203 -0.0210  0.2328 -0.5831
16348SOL    HW251199   3.875   0.288   6.259 -1.2423  0.1680  1.4855
16349SOL     OW51200   5.870   8.296   1.038 -0.3915 -0.3739  0.1964
16349SOL    HW151201   5.961   8.318   1.016 -0.6882  0.6194 -0.0889
16349SOL    HW251202   5.831   8.380   1.062 -0.2291 -1.2323  4.1438
16350SOL     OW51203   3.408   0.566   3.291 -0.1641  0.2717  0.2071
16350SOL    HW151204   3.358   0.645   3.310  0.4577  0.2459  2.1026
16350SOL    HW251205   3.430   0.530   3.376 -0.3999 -1.9575 -0.6095
16351SOL     OW51206   3.542   3.332   0.803  0.1979  0.4534  0.0936
16351SOL    HW151207   3.557   3.309   0.711  0.7799 -0.6010  0.4401
16351SOL    HW251208   3.462   3.384   0.802 -0.2319 -0.1968 -0.9219
16352SOL     OW51209   7.923   0.651   1.848  0.5094  0.3960  0.1617
16352SOL    HW151210   8.015   0.671   1.868  1.2984 -1.4093 -1.2943
16352SOL    HW251211   7.881   0.645   1.934  2.4631 -1.6317  1.1156
16353SOL     OW51212   4.091   2.073   9.005 -0.0416 -0.0059  0.9982
16353SOL    HW151213   4.046   2.002   8.959  0.8536 -0.2465  0.4596
16353SOL    HW251214   4.076   2.151   8.950 -0.7088  0.1467  1.3922
16354SOL     OW51215   5.172   7.379   5.887  0.6397  0.8748 -0.2289
16354SOL    HW151216   5.093   7.397   5.937  2.0524  2.8344  1.4742
16354SOL    HW251217   5.164   7.287   5.862 -0.8971  0.2246  2.3058
16355SOL     OW51218   5.758   4.414   3.980  0.2960 -0.1491 -0.3589
16355SOL    HW151219   5.837   4.367   3.952  0.0041  0.2692 -1.9939
16355SOL    HW251220   5.710   4.430   3.899 -0.8236  0.7891  0.4606
16356SOL     OW51221   7.666   2.019   8.837  0.4476 -0.1184 -0.1787
16356SOL    HW151222   7.579   2.020   8.876  0.4635  0.2869 -0.1491
16356SOL    HW251223   7.726   2.024   8.912  0.4682  2.7715 -0.2803
16357SOL     OW51224   9.187   1.424   9.419 -0.4389 -0.0859  0.0304
16357SOL    HW151225   9.210   1.419   9.326  0.7995 -0.7027  0.3471
16357SOL    HW251226   9.241   1.494   9.454 -0.9849  0.2214  0.2739
16358SOL     OW51227   0.308   2.411   7.965 -0.0152 -0.0960 -0.4648
16358SOL    HW151228   0.400   2.386   7.953  0.2710  0.8259 -0.2783
16358SOL    HW251229   0.301   2.433   8.058 -0.1635  0.8305 -0.6825
16359SOL     OW51230   2.877   6.879   0.156 -0.6586 -0.4293 -0.2760
16359SOL    HW151231   2.834   6.879   0.242 -0.2751 -1.1361 -0.0728
16359SOL    HW251232   2.970   6.893   0.175 -0.7587  0.9520 -0.7034
16360SOL     OW51233   1.407   6.317   6.566  0.2585 -0.9004  1.0053
16360SOL    HW151234   1.464   6.277   6.632 -0.3723  1.0273  2.8314
16360SOL    HW251235   1.463   6.326   6.489  2.0168 -0.3969  2.2755
16361SOL     OW51236   6.250   3.788   7.409 -0.4193 -0.3775 -0.0090
16361SOL    HW151237   6.195   3.733   7.354  0.0750 -0.3776 -0.5127
16361SOL    HW251238   6.331   3.799   7.359  0.1317 -0.5762  0.8191
16362SOL     OW51239   8.252   7.486   2.657  0.1358  0.5353 -0.2518
16362SOL    HW151240   8.242   7.500   2.751 -0.3084  1.1058 -0.3778
16362SOL    HW251241   8.253   7.391   2.646  0.9347  0.4622  0.4041
16363SOL     OW51242   5.006   7.384   9.124 -0.5385 -0.6996  0.6794
16363SOL    HW151243   4.943   7.454   9.142 -0.4551 -0.0104 -1.3793
16363SOL    HW251244   5.075   7.395   9.190 -0.3749  1.3937  0.2180
16364SOL     OW51245   9.057   4.108   3.168 -0.9844  0.0586  0.3062
16364SOL    HW151246   9.103   4.080   3.247 -1.1376 -0.5363  0.1894
16364SOL    HW251247   8.976   4.148   3.200  0.9104  4.1249  0.7586
16365SOL     OW51248   5.050   2.180   6.357  0.0393  0.3862  0.1401
16365SOL    HW151249   5.013   2.145   6.438  0.8298 -1.3571 -0.1985
16365SOL    HW251250   4.989   2.154   6.288  0.4453 -0.0110 -0.0742
16366SOL     OW51251   2.237   8.655   2.740 -0.0160  0.1984 -0.5374
16366SOL    HW151252   2.212   8.631   2.829  0.0998 -0.8662 -0.7880
16366SOL    HW251253   2.307   8.720   2.752  0.7724 -0.7472  0.1568
16367SOL     OW51254   5.186   6.008   2.561 -0.0506 -0.5461  0.3592
16367SOL    HW151255   5.253   6.070   2.530 -0.1159 -0.1698  0.9447
16367SOL    HW251256   5.128   5.997   2.486 -0.7613  1.1079  0.6094
16368SOL     OW51257   1.028   7.260   4.909 -0.2253  0.6811  0.9714
16368SOL    HW151258   1.088   7.258   4.834  0.7094 -1.3997  1.7067
16368SOL    HW251259   1.082   7.233   4.983 -2.0708 -1.3999  1.6526
16369SOL     OW51260   4.326   0.010   5.959  0.1546 -0.3527  0.0190
16369SOL    HW151261   4.353  -0.068   5.911  3.7426  0.8027 -0.0797
16369SOL    HW251262   4.370   0.003   6.043  0.0779  1.2790  0.2266
16370SOL     OW51263   8.893   3.387   2.837 -0.3619  0.4286 -0.0546
16370SOL    HW151264   8.924   3.308   2.882 -3.1023 -1.2401 -0.8559
16370SOL    HW251265   8.815   3.359   2.790 -0.2597  3.1678 -2.1424
16371SOL     OW51266   7.686   0.039   7.032 -0.8196  0.3925  0.5196
16371SOL    HW151267   7.710   0.112   7.090 -1.1372  1.8872 -1.1506
16371SOL    HW251268   7.684   0.077   6.944 -0.9082 -1.6703 -0.4418
16372SOL     OW51269   0.095   6.826   7.974 -0.1896  0.2166 -0.6613
16372SOL    HW151270   0.105   6.802   8.066  0.4593  0.1589 -0.7403
16372SOL    HW251271   0.011   6.871   7.969  0.1124  0.8787  0.0997
16373SOL     OW51272   1.143   6.008   9.241 -0.0250  0.1775 -0.0738
16373SOL    HW151273   1.201   6.056   9.301 -0.2497 -1.2757  1.3680
16373SOL    HW251274   1.152   6.054   9.158  0.9619  1.7496  0.8471
16374SOL     OW51275   0.342   2.546   5.357  0.7450  0.2592 -0.4055
16374SOL    HW151276   0.349   2.596   5.276  1.3822  0.6220 -0.1309
16374SOL    HW251277   0.316   2.610   5.422  0.1770 -0.0436 -0.3307
16375SOL     OW51278   6.415   4.776   9.192 -0.3653 -0.3050  0.5442
16375SOL    HW151279   6.346   4.780   9.258  0.1144 -0.8359  1.0864
16375SOL    HW251280   6.497   4.788   9.241 -0.0396 -0.0724 -0.0381
16376SOL     OW51281   8.556   3.791   5.767  0.0790  0.0840  0.1787
16376SOL    HW151282   8.544   3.798   5.862  1.3933  1.4707  0.2803
16376SOL    HW251283   8.643   3.753   5.756  0.4334  1.0489 -0.4651
16377SOL     OW51284   8.300   4.952   0.105  0.1767  0.1070  0.2148
16377SOL    HW151285   8.333   5.004   0.179 -0.2957  0.5248  0.1402
16377SOL    HW251286   8.226   4.904   0.141  0.9296 -0.9417  0.4201
16378SOL     OW51287   8.141   4.859   6.581  0.1876  0.2604  0.0242
16378SOL    HW151288   8.132   4.765   6.599 -2.1373  0.3542 -0.3036
16378SOL    HW251289   8.167   4.863   6.489  1.4595 -0.0458  0.3485
16379SOL     OW51290   5.281   0.126   3.043 -1.0422  0.1134 -0.2328
16379SOL    HW151291   5.273   0.059   3.112 -2.1325 -1.9747 -2.2323
16379SOL    HW251292   5.368   0.162   3.055 -0.3179 -1.8085  0.8545
16380SOL     OW51293   0.190   2.692   6.007 -0.2817 -0.1825  0.5880
16380SOL    HW151294   0.230   2.752   6.070  0.8941 -1.0361  0.6953
16380SOL    HW251295   0.121   2.648   6.055  0.5648 -0.7779  1.2797
16381SOL     OW51296   3.995   1.450   5.089  0.3617  0.5790 -0.5667
16381SOL    HW151297   4.025   1.475   5.176  0.9710  0.6118 -0.7802
16381SOL    HW251298   3.994   1.532   5.039 -0.5773  0.6652 -0.4295
16382SOL     OW51299   2.247   2.044   8.043  0.6752 -0.1767  0.1285
16382SOL    HW151300   2.290   1.959   8.034 -0.2360 -0.9082  2.1911
16382SOL    HW251301   2.159   2.024   8.074 -0.2951  1.4389 -1.3548
16383SOL     OW51302   2.654   6.751   9.026  0.2774 -0.4079 -0.0615
16383SOL    HW151303   2.618   6.708   9.103 -0.7811  0.1660 -0.2254
16383SOL    HW251304   2.709   6.821   9.062 -0.8605  0.3831  0.1865
16384SOL     OW51305   5.494   6.770   0.242 -0.1403  0.4340 -0.4588
16384SOL    HW151306   5.485   6.808   0.155 -2.2998  0.3605 -0.3351
16384SOL    HW251307   5.508   6.677   0.227 -1.0158  0.3379 -0.7623
16385SOL     OW51308   1.475   0.035   1.246 -0.0022  0.2225  0.1055
16385SOL    HW151309   1.454  -0.058   1.256 -2.1319  0.6955  0.3954
16385SOL    HW251310   1.435   0.076   1.322  0.8856  1.3988 -0.0472
16386SOL     OW51311   5.451   0.252   7.395 -0.2487  0.4563 -0.6400
16386SOL    HW151312   5.371   0.246   7.343 -1.1279  0.5295  0.6769
16386SOL    HW251313   5.483   0.161   7.399 -1.0900  0.1719  0.0625
16387SOL     OW51314   3.427   6.504   1.970 -0.4877  0.4405 -0.5523
16387SOL    HW151315   3.458   6.414   1.964 -1.4684  0.1842 -2.5780
16387SOL    HW251316   3.363   6.512   1.899 -0.6682  2.6390 -0.2060
16388SOL     OW51317   1.572   9.217   2.533  0.5712 -0.2903  0.4154
16388SOL    HW151318   1.503   9.214   2.599  1.2823  0.8566  1.2657
16388SOL    HW251319   1.589   9.310   2.521  0.6454 -0.4908 -1.2159
16389SOL     OW51320   7.807   0.272   3.446 -0.5799  0.1261 -0.5824
16389SOL    HW151321   7.895   0.275   3.484 -1.6256  1.3876  1.9580
16389SOL    HW251322   7.777   0.183   3.464 -1.2665  0.8413  2.3399
16390SOL     OW51323   2.120   8.795   6.719 -0.2487  0.4436  0.7818
16390SOL    HW151324   2.090   8.722   6.774 -1.3976 -0.0628 -0.4645
16390SOL    HW251325   2.043   8.850   6.707 -0.1623  0.2926 -0.6899
16391SOL     OW51326   5.505   9.402   6.301  0.0855 -0.0803 -0.0036
16391SOL    HW151327   5.510   9.418   6.207  1.6147  0.5168  0.1531
16391SOL    HW251328   5.582   9.447   6.337 -0.9934  0.5207  1.6484
16392SOL     OW51329   6.307   2.769   7.358 -0.6045  0.2856 -0.1195
16392SOL    HW151330   6.279   2.679   7.375  2.1691 -0.9535 -1.5162
16392SOL    HW251331   6.301   2.813   7.443  0.2863 -1.9306  1.1743
16393SOL     OW51332   3.626   2.263   5.216  0.0173 -0.1761  0.2860
16393SOL    HW151333   3.663   2.293   5.299 -1.6069  0.3569  0.8520
16393SOL    HW251334   3.694   2.283   5.151  0.3728  1.6341  1.1499
16394SOL     OW51335   1.639   3.066   7.658 -0.0400  0.4903 -0.3807
16394SOL    HW151336   1.678   3.077   7.745  0.3566  0.5085 -0.5581
16394SOL    HW251337   1.682   3.131   7.604  2.4590 -1.8867 -1.4968
16395SOL     OW51338   1.370   7.975   0.293 -0.7082 -0.6154 -0.3357
16395SOL    HW151339   1.274   7.972   0.292 -0.6847 -2.2211 -0.5132
16395SOL    HW251340   1.397   7.883   0.300  0.8286 -0.2465 -1.0013
16396SOL     OW51341   5.431   2.309   2.206 -0.3239  0.6461 -0.3582
16396SOL    HW151342   5.474   2.224   2.193 -1.9907 -0.0529 -1.6838
16396SOL    HW251343   5.503   2.370   2.223  1.0366 -0.7558 -0.8484
16397SOL     OW51344   4.624   6.996   5.526 -0.2379 -0.1277  0.3243
16397SOL    HW151345   4.631   6.918   5.471  0.6674 -0.1795  0.4908
16397SOL    HW251346   4.709   7.001   5.571 -0.5102  0.6111  0.7714
16398SOL     OW51347   7.569   5.104   3.387  0.2586  0.4508 -0.4210
16398SOL    HW151348   7.515   5.159   3.442 -0.3381 -1.2544  0.7888
16398SOL    HW251349   7.508   5.066   3.323  0.2533 -0.3730  0.0547
16399SOL     OW51350   1.341   4.613   3.641 -0.4285  0.0081  0.2910
16399SOL    HW151351   1.360   4.557   3.566 -1.6850  1.0408 -0.8468
16399SOL    HW251352   1.373   4.700   3.615  0.9107  0.0237  1.7689
16400SOL     OW51353   5.335   6.142   0.725 -0.2680  0.2845 -0.1350
16400SOL    HW151354   5.379   6.181   0.649 -1.2018 -1.6341 -1.7661
16400SOL    HW251355   5.353   6.048   0.717 -2.0408 -0.1846  0.9041
16401SOL     OW51356   8.479   5.243   9.247  0.5908  0.3153 -0.2123
16401SOL    HW151357   8.478   5.244   9.342  0.9920  0.2054 -0.2059
16401SOL    HW251358   8.388   5.261   9.222  0.4745  0.2960  0.1882
16402SOL     OW51359   0.712   3.517   2.159  0.2669  0.2339 -0.5175
16402SOL    HW151360   0.647   3.554   2.219  0.6851 -1.3923  1.0366
16402SOL    HW251361   0.705   3.423   2.171  2.3732 -0.0260 -0.8515
16403SOL     OW51362   6.577   1.710   5.152  0.5650 -0.7897 -0.0712
16403SOL    HW151363   6.526   1.685   5.075 -0.8167 -0.7836  0.8143
16403SOL    HW251364   6.637   1.636   5.167 -0.7340 -1.8238  0.1780
16404SOL     OW51365   6.869   0.965   0.252 -0.3303 -0.6786  0.2397
16404SOL    HW151366   6.902   0.927   0.334 -1.3878 -0.1745  0.9273
16404SOL    HW251367   6.803   1.028   0.280  1.7023  2.1323 -0.8120
16405SOL     OW51368   1.261   5.946   1.297 -0.2280 -0.3399 -0.1546
16405SOL    HW151369   1.318   5.898   1.237  0.3736 -2.6156  2.0345
16405SOL    HW251370   1.320   5.978   1.366 -1.0788  0.8299  0.0592
16406SOL     OW51371   2.950   0.544   5.987  0.3332  0.2835 -0.1868
16406SOL    HW151372   3.036   0.532   6.028  0.6488 -1.0081 -1.1432
16406SOL    HW251373   2.926   0.634   6.008  2.0210  0.7507 -0.0489
16407SOL     OW51374   1.730   7.716   7.895  0.3081  0.5567  0.2011
16407SOL    HW151375   1.747   7.663   7.973  0.9693  0.8116  0.2397
16407SOL    HW251376   1.643   7.754   7.910 -0.4791 -1.0343 -0.1334
16408SOL     OW51377   8.920   3.116   1.071 -0.4025  0.0208  0.0364
16408SOL    HW151378   8.869   3.158   1.141  0.0620  1.7524 -0.6014
16408SOL    HW251379   8.974   3.187   1.036 -0.2918 -0.9066 -1.7747
16409SOL     OW51380   7.674   4.528   7.177 -0.1946 -0.2757  0.8022
16409SOL    HW151381   7.593   4.481   7.159  0.1316  0.0555 -2.0580
16409SOL    HW251382   7.742   4.461   7.168 -0.0047 -0.0756  0.7365
16410SOL     OW51383   1.956   8.460   9.283 -0.1063 -0.1008  0.0299
16410SOL    HW151384   2.033   8.417   9.245 -0.0489  0.8776 -0.9853
16410SOL    HW251385   1.882   8.409   9.251 -0.0950  1.0019 -1.8505
16411SOL     OW51386   6.891   5.353   2.111 -0.0270  0.1254  0.5483
16411SOL    HW151387   6.926   5.423   2.056 -0.6448 -0.1943 -0.2829
16411SOL    HW251388   6.876   5.394   2.196  1.3685  0.5224  0.6271
16412SOL     OW51389   4.516   8.729   0.313  0.0744 -0.0352  0.3343
16412SOL    HW151390   4.519   8.793   0.384 -1.0641  0.1617  0.2294
16412SOL    HW251391   4.424   8.725   0.288  0.4838  0.1925 -1.3833
16413SOL     OW51392   8.067   8.182   5.954 -0.6912 -0.5764 -0.2576
16413SOL    HW151393   8.037   8.091   5.954  0.2582 -0.9493  1.7436
16413SOL    HW251394   8.162   8.176   5.942 -0.4950  0.0500  0.8148
16414SOL     OW51395   0.728   3.279   4.022 -0.4150  0.1507 -0.2560
16414SOL    HW151396   0.781   3.281   4.102 -0.9887  0.2128  0.1298
16414SOL    HW251397   0.722   3.370   3.995 -0.9486  0.2342  0.1254
16415SOL     OW51398   3.841   4.707   7.552  0.3158 -0.0026 -0.2983
16415SOL    HW151399   3.921   4.700   7.500 -0.4525  0.2592 -1.5595
16415SOL    HW251400   3.858   4.780   7.612  1.9083 -1.4602  1.1592
16416SOL     OW51401   7.171   4.477   4.027 -0.3946  0.3048 -0.4583
16416SOL    HW151402   7.229   4.482   4.103 -0.3584  1.4118 -0.5422
16416SOL    HW251403   7.196   4.396   3.984 -0.1289 -0.1308  0.4843
16417SOL     OW51404   4.801   1.836   8.421  0.4355  0.1975  0.1439
16417SOL    HW151405   4.772   1.748   8.443 -0.1562  0.5348  0.7384
16417SOL    HW251406   4.838   1.828   8.333 -4.1482  0.2277 -2.0766
16418SOL     OW51407   9.487   5.423   3.649 -0.0166  0.0714 -0.4574
16418SOL    HW151408   9.454   5.492   3.708 -1.0505  0.4800 -1.4832
16418SOL    HW251409   9.409   5.379   3.618  0.5379 -0.3308 -1.3080
16419SOL     OW51410   0.408   7.718   7.815 -0.1621  1.0186  0.3395
16419SOL    HW151411   0.430   7.644   7.759  2.4128  1.6780  0.3627
16419SOL    HW251412   0.419   7.685   7.904  1.0470  1.3928  0.3498
16420SOL     OW51413   2.562   1.167   8.541  0.0886  0.2133 -0.7701
16420SOL    HW151414   2.547   1.203   8.454  0.2029 -0.2704 -0.9927
16420SOL    HW251415   2.558   1.243   8.600 -1.3032  0.3698 -1.0364
16421SOL     OW51416   7.605   9.510   0.957  0.2763  0.1267 -0.3174
16421SOL    HW151417   7.608   9.595   1.001 -0.8071  0.2865 -0.5206
16421SOL    HW251418   7.518   9.507   0.916  0.9068 -0.3962 -1.6797
16422SOL     OW51419   5.371   5.760   2.452 -0.5263 -0.4729  0.4600
16422SOL    HW151420   5.317   5.832   2.419  0.6955  0.6250  0.8015
16422SOL    HW251421   5.420   5.730   2.376 -2.2717 -2.1447 -0.0883
16423SOL     OW51422   6.150   3.862   9.114 -0.5239 -0.1120 -0.2599
16423SOL    HW151423   6.104   3.938   9.149 -1.7368 -0.4320 -1.1073
16423SOL    HW251424   6.242   3.880   9.131 -0.7603  1.6875 -0.7250
16424SOL     OW51425   3.810   5.452   1.233 -0.3795 -0.1507 -0.1642
16424SOL    HW151426   3.785   5.437   1.324 -0.2981 -0.0449 -0.1237
16424SOL    HW251427   3.857   5.535   1.235 -1.9759  0.7956 -0.5897
16425SOL     OW51428   7.868   7.426   2.569  0.2921  0.5865 -0.2592
16425SOL    HW151429   7.913   7.509   2.586 -1.6733  1.1634  2.7592
16425SOL    HW251430   7.906   7.365   2.632  0.7597 -0.4879 -1.5397
16426SOL     OW51431   6.887   6.697   3.968  0.1298  0.0508 -0.0918
16426SOL    HW151432   6.952   6.646   4.016 -1.6856 -0.1904  2.2506
16426SOL    HW251433   6.892   6.663   3.878  2.3069 -0.8239  0.2886
16427SOL     OW51434   2.130   9.593   1.825  0.2580  0.0599  0.1422
16427SOL    HW151435   2.057   9.580   1.766  0.7244 -1.3999 -0.1366
16427SOL    HW251436   2.134   9.513   1.878  0.9039  0.6215  0.9808
16428SOL     OW51437   5.397   1.539   7.755  0.2095 -0.2479  0.2388
16428SOL    HW151438   5.376   1.458   7.801 -0.0810  0.1895  0.9031
16428SOL    HW251439   5.332   1.602   7.788  0.0716  0.1095 -0.6921
16429SOL     OW51440   5.781   3.982   1.679  0.4481 -0.4854 -0.3592
16429SOL    HW151441   5.734   3.934   1.748  1.2756  0.4569  0.9123
16429SOL    HW251442   5.717   3.994   1.609 -1.2980  0.9542  1.3910
16430SOL     OW51443   8.311   3.103   3.307  0.4710  0.3159 -0.7086
16430SOL    HW151444   8.387   3.107   3.249  0.9859  1.4818  0.0044
16430SOL    HW251445   8.289   3.009   3.312  2.2115 -0.1121 -0.4915
16431SOL     OW51446   4.620   7.240   5.248 -0.4715 -0.2198 -0.3115
16431SOL    HW151447   4.660   7.287   5.175  1.3254 -2.1373 -0.6353
16431SOL    HW251448   4.665   7.274   5.326 -1.7821  1.1896 -0.1059
16432SOL     OW51449   0.035   6.181   7.613 -0.2466 -0.0434  0.5651
16432SOL    HW151450  -0.027   6.225   7.672 -0.0753  2.4885 -1.0037
16432SOL    HW251451  -0.020   6.142   7.546 -0.2753  0.2669  0.4043
16433SOL     OW51452   7.347   7.589   1.817  0.2658  0.1802  0.1304
16433SOL    HW151453   7.305   7.596   1.732 -1.0384 -0.6153  0.6903
16433SOL    HW251454   7.316   7.506   1.854  1.1348  0.3003  1.2069
16434SOL     OW51455   7.827   3.975   6.608 -0.1627  1.0565 -0.4242
16434SOL    HW151456   7.897   3.918   6.574  0.0326  1.7046 -1.1278
16434SOL    HW251457   7.747   3.939   6.572 -0.1741  0.4573  0.1832
16435SOL     OW51458   3.839   9.595   1.773 -0.2856 -0.3293  0.0479
16435SOL    HW151459   3.774   9.616   1.840  0.3876 -2.6895  1.5967
16435SOL    HW251460   3.911   9.655   1.790  0.2007 -1.3720  2.0743
16436SOL     OW51461   6.329   0.570   3.292  0.0867 -0.1852  0.1405
16436SOL    HW151462   6.412   0.521   3.287 -0.8287 -1.6617 -1.2059
16436SOL    HW251463   6.267   0.518   3.242 -1.5475  1.1923  0.6502
16437SOL     OW51464   0.230   4.194   3.300  0.6059 -0.6509 -0.3487
16437SOL    HW151465   0.284   4.249   3.243  0.8505 -1.0581 -0.5140
16437SOL    HW251466   0.152   4.247   3.318 -0.8285 -1.5567 -3.3501
16438SOL     OW51467   7.708   6.382   0.052  0.5285  0.6928 -0.3275
16438SOL    HW151468   7.678   6.353   0.138 -1.4083 -1.0152 -1.4779
16438SOL    HW251469   7.750   6.306   0.014  1.5061  1.4792 -0.8511
16439SOL     OW51470   4.307   2.946   7.229  0.4294 -0.0463  0.2208
16439SOL    HW151471   4.270   2.983   7.309 -0.0495 -0.1682  0.0644
16439SOL    HW251472   4.386   2.901   7.257  0.0440 -0.4408  0.6934
16440SOL     OW51473   3.349   9.049   6.343 -0.3212 -0.0405 -0.0846
16440SOL    HW151474   3.367   9.049   6.249 -1.7684  1.2547 -0.4047
16440SOL    HW251475   3.425   9.092   6.382  0.1846 -0.3734 -0.6820
16441SOL     OW51476   4.671   1.026   0.654  0.0368  0.1569 -0.3130
16441SOL    HW151477   4.700   0.997   0.741  2.0280 -2.2779 -1.6275
16441SOL    HW251478   4.671   1.121   0.659  0.1632  0.0927  2.3207
16442SOL     OW51479   5.182   3.375   7.800 -0.0312 -0.2419  0.3475
16442SOL    HW151480   5.276   3.391   7.799 -0.0094 -0.2318  1.2752
16442SOL    HW251481   5.173   3.280   7.813 -0.1592 -0.3917 -0.7423
16443SOL     OW51482   4.345   0.762   2.685  0.2217  0.5102  0.0258
16443SOL    HW151483   4.372   0.707   2.758 -0.0546  0.8543  0.3968
16443SOL    HW251484   4.252   0.781   2.703  0.7275  2.5310  0.8730
16444SOL     OW51485   3.847   2.088   8.368 -0.0877  0.2542  0.1337
16444SOL    HW151486   3.834   2.020   8.434  0.3547  1.2701  1.3118
16444SOL    HW251487   3.764   2.136   8.366 -0.5917 -0.6267 -1.0938
16445SOL     OW51488   2.948   7.044   8.158  0.0862  0.1815 -0.1806
16445SOL    HW151489   2.864   7.074   8.123  0.2197 -0.8149 -1.3870
16445SOL    HW251490   2.982   7.120   8.205 -1.6048  0.5242  0.5611
16446SOL     OW51491   6.611   7.319   4.381  0.7966 -0.4103  0.4188
16446SOL    HW151492   6.630   7.378   4.454 -0.5077 -0.0761  0.5234
16446SOL    HW251493   6.680   7.336   4.318  0.4230  1.3182  0.4157
16447SOL     OW51494   5.300   6.336   1.672  0.0126  0.5187 -0.2911
16447SOL    HW151495   5.245   6.260   1.655 -1.6351  1.9620 -1.7599
16447SOL    HW251496   5.291   6.352   1.766 -1.5317  0.3001 -0.3820
16448SOL     OW51497   6.743   7.560   3.715  0.2920 -0.2029 -0.0159
16448SOL    HW151498   6.649   7.582   3.719  0.1393 -0.4817 -1.4785
16448SOL    HW251499   6.768   7.547   3.806 -0.7616  1.2616  0.5258
16449SOL     OW51500   6.264   9.281   2.187 -0.3705  0.1053 -0.3592
16449SOL    HW151501   6.296   9.213   2.128 -1.3930  0.5806 -1.5150
16449SOL    HW251502   6.231   9.349   2.128 -0.1324  1.2386  0.7707
16450SOL     OW51503   5.611   7.043   9.059  0.0030  0.2802  0.0599
16450SOL    HW151504   5.663   7.095   9.121 -0.1091  1.4106 -0.7619
16450SOL    HW251505   5.532   7.021   9.108 -0.2168  1.4141  0.2578
16451SOL     OW51506   4.662   7.902   4.715 -0.3062 -0.4274 -0.0298
16451SOL    HW151507   4.572   7.934   4.710 -0.3338 -0.5121 -0.0765
16451SOL    HW251508   4.665   7.827   4.655 -0.1661 -0.3333 -0.1414
16452SOL     OW51509   4.953   5.610   8.554  0.2877 -0.0489 -0.5271
16452SOL    HW151510   4.957   5.702   8.579 -1.2560 -0.0302 -0.2433
16452SOL    HW251511   4.950   5.611   8.458  2.7264  0.0377 -0.6677
16453SOL     OW51512   3.201   4.929   1.476  0.0364 -0.1076 -0.8129
16453SOL    HW151513   3.122   4.952   1.525 -0.2835  1.0064 -1.7979
16453SOL    HW251514   3.175   4.935   1.384  1.5618  1.5160 -1.1976
16454SOL     OW51515   0.791   0.539   2.369 -0.5201 -0.0224  0.1371
16454SOL    HW151516   0.848   0.510   2.440  0.2152  0.0872 -0.3993
16454SOL    HW251517   0.704   0.505   2.393  0.0327 -1.4101  0.2610
16455SOL     OW51518   4.320   4.794   5.413  0.4407 -0.2767 -0.1359
16455SOL    HW151519   4.349   4.788   5.322 -0.3216 -1.7599 -0.3102
16455SOL    HW251520   4.388   4.747   5.462  1.9844  2.3017  0.4015
16456SOL     OW51521   7.954   0.199   0.613 -0.3443  0.4225  0.0859
16456SOL    HW151522   8.036   0.182   0.566  1.7339  2.2951  2.6547
16456SOL    HW251523   7.927   0.114   0.646  0.6115 -0.2237 -0.7415
16457SOL     OW51524   5.618   5.315   7.443  0.2229  0.0366  0.3347
16457SOL    HW151525   5.646   5.294   7.354 -0.6516 -1.1835  0.3203
16457SOL    HW251526   5.524   5.300   7.444  0.5216 -2.5048  2.0671
16458SOL     OW51527   8.320   5.092   5.524 -0.3995 -0.4607 -0.6315
16458SOL    HW151528   8.415   5.089   5.532 -0.4901  0.6154  1.3330
16458SOL    HW251529   8.287   5.049   5.603 -1.5471 -0.0432 -0.8582
16459SOL     OW51530   5.120   2.577   6.957 -0.0958 -0.1833 -0.0701
16459SOL    HW151531   5.178   2.635   7.007  1.4357 -0.0772 -1.8331
16459SOL    HW251532   5.170   2.496   6.948 -0.9835 -0.7302 -0.1441
16460SOL     OW51533   2.038   4.132   5.660  0.5815  0.5907 -0.2770
16460SOL    HW151534   1.988   4.159   5.737 -0.7023 -1.4937 -0.2768
16460SOL    HW251535   2.119   4.182   5.664  0.2736  1.0092  2.0893
16461SOL     OW51536   3.004   6.186   1.442  0.4222  0.2529 -0.8917
16461SOL    HW151537   2.924   6.151   1.402 -0.5612 -0.9579  1.8844
16461SOL    HW251538   2.987   6.279   1.453 -1.8394 -0.3822  2.0533
16462SOL     OW51539   7.855   5.948   6.926  0.7277 -0.4817 -0.7609
16462SOL    HW151540   7.871   6.034   6.965 -1.7374 -0.3670  0.1446
16462SOL    HW251541   7.879   5.886   6.995 -3.1778 -0.2874  1.0041
16463SOL     OW51542   2.284   8.145   4.854 -0.1479 -0.1014 -0.1137
16463SOL    HW151543   2.325   8.067   4.815 -0.0093  0.3738 -0.9512
16463SOL    HW251544   2.304   8.138   4.947  1.8494  0.0892 -0.4763
16464SOL     OW51545   6.298   4.230   1.890 -0.3712  0.2587 -0.7692
16464SOL    HW151546   6.376   4.250   1.942 -1.2425  1.1927  0.2522
16464SOL    HW251547   6.327   4.235   1.799  0.9264 -0.2054 -0.4005
16465SOL     OW51548   2.151   6.472   1.340  0.0658 -0.0246  0.4725
16465SOL    HW151549   2.159   6.483   1.246  0.3712 -2.2283  0.1937
16465SOL    HW251550   2.058   6.455   1.355  0.3523 -1.9452  0.2504
16466SOL     OW51551   3.893   4.370   7.563 -0.7143 -0.0142  0.2633
16466SOL    HW151552   3.799   4.361   7.545 -0.6766  1.9157 -1.2152
16466SOL    HW251553   3.922   4.441   7.506  1.8778 -1.1878 -0.0174
16467SOL     OW51554   1.711   5.241   0.242  0.2777 -0.4283 -0.2242
16467SOL    HW151555   1.624   5.280   0.252  1.3059  1.5449  2.2095
16467SOL    HW251556   1.736   5.262   0.152 -0.7331  1.2984 -0.1562
16468SOL     OW51557   0.449   5.197   7.792  0.6094  0.5475  0.4651
16468SOL    HW151558   0.423   5.262   7.856  1.5163 -0.4723  1.9318
16468SOL    HW251559   0.483   5.124   7.844  2.0138 -0.0502 -1.1827
16469SOL     OW51560   8.666   6.907   0.016  0.1603 -0.3758  0.4289
16469SOL    HW151561   8.701   6.941   0.098  1.4263 -0.8142  0.0991
16469SOL    HW251562   8.666   6.812   0.027  0.2051 -0.4330 -0.0103
16470SOL     OW51563   3.296   3.054   7.487  0.9404  0.4968 -0.0159
16470SOL    HW151564   3.244   3.094   7.417 -2.6919  1.0863  2.6922
16470SOL    HW251565   3.275   2.961   7.481  0.8301  0.5118  0.1539
16471SOL     OW51566   0.869   4.400   2.242 -0.0490 -0.2189  0.5197
16471SOL    HW151567   0.775   4.406   2.259  0.2297 -1.9933  3.2104
16471SOL    HW251568   0.879   4.321   2.189 -0.0406 -0.2002  0.4930
16472SOL     OW51569   2.398   3.427   8.234  0.2770 -0.1312 -0.1964
16472SOL    HW151570   2.357   3.414   8.149 -0.5776  1.1782 -0.0083
16472SOL    HW251571   2.485   3.461   8.214  0.1199  0.0691 -0.5543
16473SOL     OW51572   6.220   5.662   1.116 -0.2565  0.1438 -0.1682
16473SOL    HW151573   6.286   5.718   1.076 -2.4286  2.6879 -0.4694
16473SOL    HW251574   6.182   5.714   1.186 -1.7742 -1.2892  0.1591
16474SOL     OW51575   2.772   0.736   4.570  0.0319  0.2210  0.3523
16474SOL    HW151576   2.856   0.713   4.530 -0.1141 -0.1196  0.2405
16474SOL    HW251577   2.749   0.660   4.623 -0.3921  0.1570  0.0801
16475SOL     OW51578   2.538   7.755   6.281  0.5179 -0.4678 -0.0497
16475SOL    HW151579   2.458   7.806   6.288  0.4545 -0.0515 -2.7195
16475SOL    HW251580   2.607   7.820   6.265  0.7149 -1.0414 -1.7372
16476SOL     OW51581   0.189   5.060   7.327  0.2460 -0.0560  0.7088
16476SOL    HW151582   0.168   5.095   7.414 -1.7949 -1.2322  0.7444
16476SOL    HW251583   0.277   5.025   7.336  0.5807  0.9912  1.9190
16477SOL     OW51584   8.426   0.619   0.378 -1.0769  0.3494 -0.4452
16477SOL    HW151585   8.448   0.712   0.378 -0.6958  0.2655  0.0014
16477SOL    HW251586   8.335   0.616   0.348 -1.4883  0.9780  0.6472
16478SOL     OW51587   2.839   4.851   2.977 -0.6084 -0.2383 -0.1226
16478SOL    HW151588   2.765   4.803   3.014 -1.0027  0.2933 -0.1945
16478SOL    HW251589   2.862   4.915   3.046 -0.2355 -0.3842 -0.1115
16479SOL     OW51590   9.227   6.914   3.803 -0.6061  0.1819  0.0048
16479SOL    HW151591   9.156   6.964   3.761 -0.5399 -1.3564 -2.0454
16479SOL    HW251592   9.305   6.967   3.789 -0.8621  0.4708 -0.3450
16480SOL     OW51593   9.082   6.296   4.528  0.2006 -0.0366  0.3971
16480SOL    HW151594   9.050   6.262   4.611 -2.2210 -0.9362 -0.8190
16480SOL    HW251595   9.036   6.245   4.461  1.8156  0.8646 -1.5276
16481SOL     OW51596   8.610   0.226   4.855 -0.1535 -0.0802 -0.4521
16481SOL    HW151597   8.605   0.316   4.889 -3.0001 -0.3629  0.1105
16481SOL    HW251598   8.702   0.202   4.864  0.4529  2.3428  0.5420
16482SOL     OW51599   2.965   5.799   8.212  0.1195 -0.7103  0.3867
16482SOL    HW151600   2.977   5.720   8.265  0.0459 -1.8879 -1.2973
16482SOL    HW251601   2.988   5.772   8.123  0.9267  1.4105 -0.0952
16483SOL     OW51602   2.627   0.794   4.318  0.3645 -0.1110  0.1855
16483SOL    HW151603   2.676   0.874   4.299 -0.8528  0.5695 -0.1859
16483SOL    HW251604   2.666   0.761   4.400  2.2287 -0.2737 -0.7054
16484SOL     OW51605   5.745   9.357   2.461  0.4863 -0.0541 -0.1395
16484SOL    HW151606   5.826   9.384   2.417 -0.1156 -1.4452 -2.2188
16484SOL    HW251607   5.755   9.263   2.475 -0.5123 -0.1241  0.2029
16485SOL     OW51608   4.650   7.176   6.847 -0.1459 -0.3716 -0.0733
16485SOL    HW151609   4.583   7.168   6.779 -0.3487  1.3164 -0.1250
16485SOL    HW251610   4.617   7.244   6.906  1.6524  0.8166 -0.3304
16486SOL     OW51611   3.834   6.440   6.526 -0.2749 -0.0666 -0.0106
16486SOL    HW151612   3.787   6.415   6.605 -0.7335 -1.3001 -0.6539
16486SOL    HW251613   3.917   6.391   6.530 -1.0671 -1.6059 -1.1451
16487SOL     OW51614   2.426   6.566   3.191  0.2191 -0.3587  0.4168
16487SOL    HW151615   2.453   6.476   3.208 -0.7097 -1.4342 -2.9751
16487SOL    HW251616   2.337   6.571   3.225 -1.2576 -2.1383 -2.7345
16488SOL     OW51617   1.590   0.399   7.139 -0.4271  0.3484  0.6301
16488SOL    HW151618   1.548   0.445   7.212 -2.1489 -0.9376  0.5169
16488SOL    HW251619   1.684   0.410   7.154 -0.7755  1.7278  1.9674
16489SOL     OW51620   4.438   2.335   1.844 -1.0195 -0.2896  0.6387
16489SOL    HW151621   4.351   2.319   1.808 -1.0725  0.9248  0.2090
16489SOL    HW251622   4.422   2.365   1.933 -1.3965  4.2649 -0.7261
16490SOL     OW51623   3.063   4.000   7.942 -0.8649  0.0592  0.1106
16490SOL    HW151624   3.075   3.977   7.850 -0.0584 -0.8498  0.4243
16490SOL    HW251625   2.989   3.945   7.970  0.2778 -1.3028  0.5442
16491SOL     OW51626   2.147   1.958   8.490 -0.1729 -0.3050  0.1176
16491SOL    HW151627   2.130   1.999   8.574 -0.9567 -0.2971 -0.0367
16491SOL    HW251628   2.122   2.025   8.426  0.6761 -0.2095 -0.1209
16492SOL     OW51629   6.609   4.494   7.294  0.1951 -0.1713  0.0263
16492SOL    HW151630   6.660   4.514   7.373  0.5644 -2.2360  0.3662
16492SOL    HW251631   6.539   4.437   7.325  0.4979 -1.2263 -1.1662
16493SOL     OW51632   9.386   0.858   0.200  0.3009  0.2129 -0.3514
16493SOL    HW151633   9.446   0.854   0.126  1.3033  0.3928  0.4357
16493SOL    HW251634   9.420   0.928   0.256  0.4709 -0.9235  1.0361
16494SOL     OW51635   1.462   4.612   2.795 -0.1008  0.0080  0.0255
16494SOL    HW151636   1.531   4.654   2.744 -0.0837  0.0594  0.0900
16494SOL    HW251637   1.381   4.648   2.760 -0.0333  1.2674  1.0911
16495SOL     OW51638   2.974   8.982   3.703 -0.4916  0.6912 -0.1117
16495SOL    HW151639   3.011   8.941   3.625 -0.4682  1.2584 -0.4050
16495SOL    HW251640   2.880   8.986   3.687 -0.5100  0.6114 -0.0208
16496SOL     OW51641   3.953   7.664   3.277 -0.7953  0.2042 -0.9080
16496SOL    HW151642   3.920   7.751   3.301  1.3828  0.9022 -0.1416
16496SOL    HW251643   3.960   7.618   3.361 -0.3852 -0.1035 -1.1080
16497SOL     OW51644   5.866   4.776   3.836  0.1726  0.5215  0.1177
16497SOL    HW151645   5.845   4.732   3.918  0.5123 -1.1142 -0.6419
16497SOL    HW251646   5.914   4.711   3.786 -0.0571  1.4836 -1.3970
16498SOL     OW51647   1.123   6.501   5.354 -0.8224  0.8251 -0.4921
16498SOL    HW151648   1.123   6.407   5.372 -2.0249  0.3525 -2.6281
16498SOL    HW251649   1.031   6.525   5.354 -0.6008  1.7156 -1.2410
16499SOL     OW51650   4.257   8.784   6.259  0.1663 -0.5781 -0.2640
16499SOL    HW151651   4.265   8.820   6.171 -0.0518 -0.4021 -0.2132
16499SOL    HW251652   4.346   8.784   6.293  0.0538  0.8349  0.0982
16500SOL     OW51653   8.177   4.142   1.939  0.3356  0.0047  0.0468
16500SOL    HW151654   8.106   4.093   1.981  0.7093 -0.7638 -0.2018
16500SOL    HW251655   8.175   4.114   1.847  1.3027 -0.4413  0.1518
16501SOL     OW51656   0.502   6.749   7.104  0.1540 -0.3691 -0.4097
16501SOL    HW151657   0.544   6.827   7.068 -1.4177  0.2402 -1.0247
16501SOL    HW251658   0.490   6.691   7.029 -1.4168  0.1119 -0.5792
16502SOL     OW51659   5.310   1.503   0.644  0.3150 -0.3996 -0.1874
16502SOL    HW151660   5.307   1.596   0.665  0.1228 -0.3868 -0.2680
16502SOL    HW251661   5.235   1.489   0.587 -0.5515 -0.8960  1.0132
16503SOL     OW51662   8.104   0.707   7.189 -0.0019  0.2346  0.3740
16503SOL    HW151663   8.065   0.733   7.272  1.3486  0.1814  1.0517
16503SOL    HW251664   8.166   0.637   7.211 -0.2404 -0.3747 -0.7969
16504SOL     OW51665   3.992   6.432   6.878 -0.4304  0.7766 -0.0255
16504SOL    HW151666   3.922   6.378   6.841  0.4630 -2.0649  2.0718
16504SOL    HW251667   4.071   6.403   6.832  0.3927 -1.4506  2.5474
16505SOL     OW51668   0.844   2.165   6.420  0.3013  0.3293 -0.3746
16505SOL    HW151669   0.827   2.097   6.486  0.5078 -1.0816 -1.7143
16505SOL    HW251670   0.935   2.189   6.433  0.4220 -0.1518 -0.3101
16506SOL     OW51671   6.336   0.917   3.877  0.8257 -0.0747 -0.7365
16506SOL    HW151672   6.321   0.900   3.970 -1.5582  1.6390 -0.6878
16506SOL    HW251673   6.397   0.990   3.876  0.0490  0.6001 -0.4329
16507SOL     OW51674   7.979   6.837   0.278 -0.1858  0.0745  0.1690
16507SOL    HW151675   8.044   6.810   0.214  0.8159 -0.7312  1.4883
16507SOL    HW251676   8.018   6.912   0.322  0.2105 -0.8529  1.4566
16508SOL     OW51677   6.810   7.917   3.100 -0.2397  0.3193 -0.7425
16508SOL    HW151678   6.821   7.909   3.005  0.8461  1.8494 -0.7914
16508SOL    HW251679   6.733   7.973   3.110  0.0568  0.7422 -0.7637
16509SOL     OW51680   5.333   3.061   4.480  0.6782 -0.8572 -0.1927
16509SOL    HW151681   5.384   3.140   4.461  0.9074 -1.0853 -0.5396
16509SOL    HW251682   5.273   3.053   4.406 -0.7341  0.0968  0.7958
16510SOL     OW51683   2.505   8.757   4.429  0.1526  0.2690  0.0112
16510SOL    HW151684   2.477   8.804   4.351  0.2894 -0.8915 -0.7586
16510SOL    HW251685   2.428   8.706   4.454  0.1075  0.6389  0.6542
16511SOL     OW51686   2.210   7.162   7.404  0.7260 -0.2823  0.2781
16511SOL    HW151687   2.211   7.070   7.429  1.0397 -0.0027  1.3638
16511SOL    HW251688   2.119   7.189   7.411  0.4803 -0.7479 -0.9982
16512SOL     OW51689   5.258   0.771   5.140 -0.3292 -0.0131 -0.0880
16512SOL    HW151690   5.218   0.851   5.107  1.1313  0.3866 -0.9610
16512SOL    HW251691   5.342   0.799   5.177 -0.3198 -0.9750  0.6753
16513SOL     OW51692   2.980   8.727   5.384 -0.0925 -0.0586 -0.0174
16513SOL    HW151693   2.943   8.757   5.301 -1.4996 -2.9072 -0.5389
16513SOL    HW251694   2.906   8.728   5.445  0.1997 -0.8296  0.3652
16514SOL     OW51695   9.096   7.703   1.952 -0.1290  0.2721 -0.1172
16514SOL    HW151696   9.043   7.626   1.974 -0.3332  0.1865 -0.8900
16514SOL    HW251697   9.072   7.768   2.017 -1.5458  0.3980 -0.7325
16515SOL     OW51698   3.868   2.627   4.663  0.1865  0.5336  0.0766
16515SOL    HW151699   3.816   2.547   4.654 -1.8829  1.5856  1.6611
16515SOL    HW251700   3.930   2.624   4.590  0.1256 -2.4251  0.0406
16516SOL     OW51701   1.526   5.894   7.611  0.3950  0.0073  0.1918
16516SOL    HW151702   1.532   5.970   7.553 -0.7481 -1.2491 -1.6809
16516SOL    HW251703   1.590   5.832   7.576 -1.0461 -1.1767 -0.4201
16517SOL     OW51704   0.908   0.786   8.884  0.3324  0.1861 -0.5268
16517SOL    HW151705   0.896   0.807   8.791 -0.1637  1.8608 -0.1230
16517SOL    HW251706   0.843   0.717   8.901  0.7546 -0.4826 -1.5109
16518SOL     OW51707   1.720   8.209   3.405  0.6033 -0.1567 -0.0708
16518SOL    HW151708   1.712   8.237   3.496 -1.0587 -2.8065  0.7119
16518SOL    HW251709   1.634   8.228   3.367  0.3257 -1.6610 -0.2422
16519SOL     OW51710   8.619   0.377   6.525 -0.1909 -0.7245 -0.1412
16519SOL    HW151711   8.557   0.314   6.562 -0.1089 -2.0262 -2.0584
16519SOL    HW251712   8.571   0.417   6.452 -0.5061  2.0612  1.4561
16520SOL     OW51713   1.748   6.320   6.944 -0.2300 -0.6150 -0.3592
16520SOL    HW151714   1.802   6.273   7.008 -0.3408  0.1322  0.3141
16520SOL    HW251715   1.696   6.380   6.998 -0.6631 -0.2964 -1.1260
16521SOL     OW51716   1.987   4.041   9.306  0.1594  0.4379 -0.1090
16521SOL    HW151717   2.072   4.014   9.340  1.6727  3.8588 -0.7877
16521SOL    HW251718   1.968   4.123   9.351 -2.2450  0.3568 -0.8540
16522SOL     OW51719   0.932   2.238   5.784 -0.2276  0.2295  0.1366
16522SOL    HW151720   1.009   2.285   5.753  1.3601 -1.8170  0.7518
16522SOL    HW251721   0.858   2.283   5.742  1.3181  1.8308 -1.0283
16523SOL     OW51722   8.850   0.215   6.435  0.1156  0.6845  0.0928
16523SOL    HW151723   8.791   0.246   6.504  0.1534 -0.8239  0.8418
16523SOL    HW251724   8.791   0.191   6.363 -0.2321 -0.9039  0.8723
16524SOL     OW51725   5.234   0.694   7.763 -0.5462  0.4147  0.1796
16524SOL    HW151726   5.184   0.761   7.716 -1.6060 -1.0316 -0.8554
16524SOL    HW251727   5.175   0.619   7.768  0.9874 -0.8469  0.2807
16525SOL     OW51728   5.712   3.929   4.633 -0.7764  0.3972  0.3162
16525SOL    HW151729   5.736   3.841   4.663  1.3507  0.4476 -1.0477
16525SOL    HW251730   5.734   3.985   4.707  0.3434  0.0553  0.2597
16526SOL     OW51731   7.118   0.519   7.135 -0.4915 -0.0446  0.1593
16526SOL    HW151732   7.065   0.453   7.090 -0.7546 -0.4930  1.1082
16526SOL    HW251733   7.060   0.596   7.141 -0.2236  0.2596 -0.8436
16527SOL     OW51734   7.198   4.790   0.531 -0.0399  0.1214 -0.7599
16527SOL    HW151735   7.292   4.778   0.542 -0.2748 -0.7997  0.5305
16527SOL    HW251736   7.159   4.713   0.572 -1.3683  0.5117 -1.2185
16528SOL     OW51737   7.892   7.014   2.565 -0.9070 -0.1933 -0.4540
16528SOL    HW151738   7.936   6.970   2.493 -3.3503 -0.8717 -1.6289
16528SOL    HW251739   7.830   6.949   2.599 -1.0172  0.6921  1.1538
16529SOL     OW51740   6.714   6.408   6.144  0.7511 -0.3738  0.0564
16529SOL    HW151741   6.802   6.376   6.124  0.1709 -3.2940  1.6253
16529SOL    HW251742   6.727   6.465   6.220  1.5072  1.0870 -1.1233
16530SOL     OW51743   3.576   0.088   7.623 -0.6793  0.7089 -0.1372
16530SOL    HW151744   3.580   0.066   7.530  0.4261 -0.3516  0.1310
16530SOL    HW251745   3.510   0.027   7.658  1.4098 -1.3975  0.3603
16531SOL     OW51746   3.831   6.458   4.393 -0.0208  0.0678  0.5706
16531SOL    HW151747   3.802   6.373   4.427 -0.7663 -0.2532 -0.7997
16531SOL    HW251748   3.835   6.446   4.298  0.7745  1.2954  0.4276
16532SOL     OW51749   3.997   4.917   4.057  0.0483  0.3386 -0.4364
16532SOL    HW151750   4.020   4.923   3.964  0.5732 -0.4649 -0.3714
16532SOL    HW251751   3.946   4.836   4.064  1.1412 -0.3230  0.1821
16533SOL     OW51752   1.604   1.758   0.305 -0.4001  0.2445  0.2028
16533SOL    HW151753   1.549   1.764   0.227 -0.8556  0.6546  0.5432
16533SOL    HW251754   1.672   1.823   0.292  1.0456 -1.4257 -0.9956
16534SOL     OW51755   2.265   8.431   5.048  0.0615 -0.2209 -0.4549
16534SOL    HW151756   2.273   8.343   5.085 -1.7065  0.0375  0.6154
16534SOL    HW251757   2.175   8.437   5.016 -0.3972  1.7083  0.9626
16535SOL     OW51758   1.652   5.994   2.630  0.1045  0.9370  1.1527
16535SOL    HW151759   1.687   6.065   2.576  0.8297  0.2900  0.7633
16535SOL    HW251760   1.718   5.925   2.625 -2.4932 -1.6215 -2.1279
16536SOL     OW51761   5.388   5.847   6.704  0.1242  0.3903  0.1196
16536SOL    HW151762   5.301   5.811   6.722 -0.4411  1.7804  0.2301
16536SOL    HW251763   5.445   5.801   6.766 -0.4373 -0.8347 -0.2379
16537SOL     OW51764   2.624   1.744   3.903  0.2988  0.3800 -0.2860
16537SOL    HW151765   2.677   1.706   3.832 -0.3118 -2.1940  0.5337
16537SOL    HW251766   2.683   1.747   3.978 -0.2508 -1.0732  0.2290
16538SOL     OW51767   1.993   0.295   0.806  0.2221 -0.4935 -0.2188
16538SOL    HW151768   1.930   0.322   0.873  0.1964 -2.4169  0.6087
16538SOL    HW251769   1.966   0.341   0.727  0.1225  1.6991  0.9962
16539SOL     OW51770   8.164   6.627   0.426 -0.0077  0.4774  0.7350
16539SOL    HW151771   8.218   6.704   0.443  0.6664  0.5747 -1.4465
16539SOL    HW251772   8.084   6.662   0.388  0.5389  0.1497 -0.8231
16540SOL     OW51773   8.429   5.225   0.745 -0.3493 -0.1523  0.6258
16540SOL    HW151774   8.341   5.254   0.717  0.2043  0.5184 -0.5223
16540SOL    HW251775   8.488   5.290   0.707  0.6461 -0.5344  1.4829
16541SOL     OW51776   2.872   5.583   3.532 -0.2061  0.1267  0.3034
16541SOL    HW151777   2.792   5.554   3.575 -0.4457 -1.1629 -0.9601
16541SOL    HW251778   2.938   5.581   3.602 -0.4585 -2.4621  0.5572
16542SOL     OW51779   8.757   9.055   4.111  0.0300 -0.4019  0.8353
16542SOL    HW151780   8.678   9.035   4.161 -0.9896  0.5462 -0.3450
16542SOL    HW251781   8.805   8.972   4.108 -0.5458 -0.8226  2.1654
16543SOL     OW51782   6.666   2.893   5.678 -0.5007  0.2185 -0.1757
16543SOL    HW151783   6.701   2.805   5.663  1.5690  1.0135 -0.2290
16543SOL    HW251784   6.636   2.922   5.592 -5.2480 -1.9193  0.3856
16544SOL     OW51785   5.138   9.632   1.492 -0.4394 -0.0776 -0.2526
16544SOL    HW151786   5.078   9.705   1.482 -1.6223 -1.0064 -0.2156
16544SOL    HW251787   5.081   9.555   1.495  0.5960 -0.8348  1.9889
16545SOL     OW51788   6.757   1.795   5.962  0.1408 -0.5569 -0.0764
16545SOL    HW151789   6.827   1.848   5.999  1.0028 -1.5014 -0.2946
16545SOL    HW251790   6.801   1.714   5.934 -0.5991 -0.2281 -2.4008
16546SOL     OW51791   8.699   6.089   1.942 -0.1546 -0.1870  0.1897
16546SOL    HW151792   8.648   6.012   1.967  0.4711 -0.6377  0.1090
16546SOL    HW251793   8.634   6.154   1.918 -0.7383 -0.2865  1.4142
16547SOL     OW51794   0.533   7.506   2.195 -0.3258 -0.0666  0.0953
16547SOL    HW151795   0.522   7.594   2.230 -0.1708  0.0316 -0.0960
16547SOL    HW251796   0.563   7.520   2.105 -2.1570 -0.2917 -0.5795
16548SOL     OW51797   6.377   1.738   3.064 -0.0007 -0.1289 -0.0682
16548SOL    HW151798   6.383   1.642   3.063 -1.4494 -0.2352 -1.0760
16548SOL    HW251799   6.448   1.767   3.007 -1.6554 -0.8079 -2.6627
16549SOL     OW51800   1.897   6.897   2.108 -0.1941  0.3486 -0.3201
16549SOL    HW151801   1.931   6.902   2.197  0.1204 -1.3787 -0.3051
16549SOL    HW251802   1.810   6.936   2.113  0.8389  2.7659  0.1267
16550SOL     OW51803   6.428   4.200   7.163 -0.0737  0.2631  0.3644
16550SOL    HW151804   6.332   4.199   7.167 -0.1006 -0.2324 -0.2103
16550SOL    HW251805   6.448   4.204   7.070  0.4724  1.5066  0.5237
16551SOL     OW51806   9.027   7.683   1.297  0.0838 -0.5442  0.0727
16551SOL    HW151807   8.979   7.623   1.354  0.5749 -1.7375 -0.7131
16551SOL    HW251808   8.965   7.752   1.277  0.1877  0.4618  2.8013
16552SOL     OW51809   1.721   0.573   1.771 -0.3971 -0.5335  0.0515
16552SOL    HW151810   1.772   0.492   1.769 -0.9060 -0.8494 -1.1984
16552SOL    HW251811   1.688   0.578   1.860 -0.1264 -1.5586  0.2243
16553SOL     OW51812   7.494   0.851   6.380 -0.2221  0.2480  0.1243
16553SOL    HW151813   7.437   0.840   6.304  0.4092  0.4800 -0.3883
16553SOL    HW251814   7.490   0.766   6.425 -0.5998  0.1077 -0.1639
16554SOL     OW51815   5.537   2.810   3.381  0.2600 -0.1606  0.6057
16554SOL    HW151816   5.480   2.746   3.338 -0.9822 -0.9412  3.2093
16554SOL    HW251817   5.613   2.760   3.408 -0.2894 -0.3580  1.8263
16555SOL     OW51818   7.037   3.693   4.470  0.1236 -0.2067 -0.0290
16555SOL    HW151819   6.959   3.663   4.516  1.4801 -1.8433  1.3549
16555SOL    HW251820   7.036   3.647   4.386 -0.4654 -0.1010 -0.0789
16556SOL     OW51821   0.806   9.025   1.371  0.5503  0.3584  0.0762
16556SOL    HW151822   0.726   9.050   1.417 -1.4206 -0.5871 -2.6352
16556SOL    HW251823   0.813   9.086   1.298  0.8593 -1.1541 -1.2072
16557SOL     OW51824   7.545   1.861   7.826 -0.4038 -0.2152 -0.1145
16557SOL    HW151825   7.551   1.936   7.766  0.8771 -0.6913 -0.6238
16557SOL    HW251826   7.568   1.896   7.911 -0.6786  0.1496 -0.1884
16558SOL     OW51827   2.785   5.610   7.368 -0.2673 -0.0924  0.9745
16558SOL    HW151828   2.738   5.527   7.367  1.0067 -0.8492  0.2048
16558SOL    HW251829   2.797   5.633   7.276  1.1165 -0.1099  1.1164
16559SOL     OW51830   6.470   0.790   0.984 -0.4667  0.0433  0.7584
16559SOL    HW151831   6.443   0.710   1.028 -1.9123 -0.9089 -1.6672
16559SOL    HW251832   6.393   0.847   0.988  0.1198  0.8208  1.3227
16560SOL     OW51833   4.373   5.117   7.224 -0.3059  0.0903 -0.1893
16560SOL    HW151834   4.428   5.047   7.189  0.2615 -0.2901  1.3924
16560SOL    HW251835   4.374   5.103   7.318 -2.5317  0.5096 -0.0498
16561SOL     OW51836   8.752   0.019   1.940 -0.0002 -0.2765 -0.8688
16561SOL    HW151837   8.813  -0.055   1.941  2.0860  1.3562 -0.8310
16561SOL    HW251838   8.727   0.031   2.031 -2.0941 -2.2136 -1.1046
16562SOL     OW51839   3.499   0.709   0.532  0.7414  0.1885 -0.0102
16562SOL    HW151840   3.535   0.624   0.507  1.1338  0.5794 -0.8066
16562SOL    HW251841   3.576   0.764   0.546  0.4841  0.5096  0.1465
16563SOL     OW51842   6.721   4.124   8.884 -0.3713 -0.3315  0.0213
16563SOL    HW151843   6.816   4.116   8.884 -0.3384 -0.2043 -1.3032
16563SOL    HW251844   6.692   4.055   8.825 -1.0211  0.3719 -0.4908
16564SOL     OW51845   3.822   3.412   1.527  0.4373  0.3229 -0.0817
16564SOL    HW151846   3.760   3.350   1.566  1.2453 -0.8863 -0.6685
16564SOL    HW251847   3.767   3.470   1.474 -0.2031 -0.8193 -0.7116
16565SOL     OW51848   7.129   6.438   7.795  0.1750 -0.0278 -0.4701
16565SOL    HW151849   7.215   6.414   7.830  0.2904 -0.4898 -1.0589
16565SOL    HW251850   7.147   6.464   7.704 -0.1401  1.0171 -0.2403
16566SOL     OW51851   3.412   5.316   6.911 -0.3480  0.1700 -0.0603
16566SOL    HW151852   3.476   5.380   6.944 -0.1442 -1.2350  2.5745
16566SOL    HW251853   3.327   5.350   6.939 -0.3467 -0.0281  0.1984
16567SOL     OW51854   7.559   7.726   1.957 -0.1626  0.0598  0.3343
16567SOL    HW151855   7.492   7.668   1.920 -1.2981  0.2816  1.9326
16567SOL    HW251856   7.558   7.803   1.901 -0.2220 -0.5279 -0.4960
16568SOL     OW51857   3.560   8.929   9.348 -0.0178 -0.1798 -0.2094
16568SOL    HW151858   3.473   8.953   9.314  0.7710  1.1512 -1.4042
16568SOL    HW251859   3.604   8.887   9.274  0.8032  0.3500 -0.0354
16569SOL     OW51860   9.589   9.297   5.760  0.2587 -0.0146 -0.3801
16569SOL    HW151861   9.682   9.276   5.764 -0.1237 -2.0318 -0.8771
16569SOL    HW251862   9.557   9.282   5.850  0.0281 -1.5773 -0.6865
16570SOL     OW51863   1.247   6.572   4.288 -0.0762  0.0496 -0.4417
16570SOL    HW151864   1.289   6.565   4.374 -2.6073 -0.7233  0.8273
16570SOL    HW251865   1.318   6.557   4.225  1.4108 -1.9396  1.5428
16571SOL     OW51866   6.642   6.692   6.962 -0.5813 -0.3681 -0.4061
16571SOL    HW151867   6.668   6.652   7.045  1.2663  0.7023 -0.4166
16571SOL    HW251868   6.699   6.652   6.897 -1.3588 -0.4907 -1.0256
16572SOL     OW51869   9.534   8.316   3.684 -0.1583  0.5579  0.5420
16572SOL    HW151870   9.539   8.315   3.589 -1.0287  2.1038  0.4305
16572SOL    HW251871   9.552   8.226   3.711  2.3688  0.5469 -0.9150
16573SOL     OW51872   0.031   7.455   6.161 -0.0913  0.6512 -0.0289
16573SOL    HW151873   0.104   7.413   6.115 -0.6556 -0.3967 -0.0073
16573SOL    HW251874  -0.044   7.398   6.144 -0.7452  1.3208  0.5470
16574SOL     OW51875   5.076   0.747   6.754 -0.0819 -0.2399 -0.6786
16574SOL    HW151876   5.019   0.731   6.679 -1.9833 -1.3831  0.8868
16574SOL    HW251877   5.017   0.778   6.823  1.0657 -1.9100  1.1734
16575SOL     OW51878   5.816   4.064   4.871  0.0683  0.1204  0.1031
16575SOL    HW151879   5.827   3.999   4.941  1.3096  0.7139  0.5060
16575SOL    HW251880   5.901   4.065   4.827  0.1559  1.6117  0.2565
16576SOL     OW51881   0.003   2.995   7.605 -0.6860  0.2378 -0.1111
16576SOL    HW151882   0.049   3.041   7.536 -2.1176  0.7254 -0.7833
16576SOL    HW251883  -0.071   2.953   7.561  0.0567 -1.9704  0.6314
16577SOL     OW51884   4.669   6.377   6.808 -0.4331 -0.3602  0.1950
16577SOL    HW151885   4.626   6.303   6.765  3.1532 -3.1795  0.9807
16577SOL    HW251886   4.660   6.359   6.902  3.1308 -1.7127  0.4030
16578SOL     OW51887   1.824   8.812   0.886  0.1996 -0.2404 -0.0374
16578SOL    HW151888   1.820   8.717   0.870 -1.0734 -0.5999  2.0860
16578SOL    HW251889   1.771   8.849   0.816 -0.6984 -1.2531  0.0753
16579SOL     OW51890   2.040   7.796   8.083  0.2135  0.0329 -0.1909
16579SOL    HW151891   1.946   7.791   8.069  0.0602  1.8148 -0.0500
16579SOL    HW251892   2.078   7.794   7.995  0.3416 -3.7339 -0.2202
16580SOL     OW51893   8.348   7.445   9.030 -0.4286 -0.4712 -0.2068
16580SOL    HW151894   8.404   7.387   8.979 -1.0380 -0.2655 -1.1384
16580SOL    HW251895   8.400   7.468   9.106 -0.4786 -2.9291  0.6550
16581SOL     OW51896   4.916   6.706   1.816  0.0432  0.2473 -0.8716
16581SOL    HW151897   4.877   6.627   1.778 -0.2185  0.1055 -0.3183
16581SOL    HW251898   4.916   6.769   1.744 -0.0183 -0.1638 -1.2362
16582SOL     OW51899   7.568   8.363   2.919  0.2873  0.0139 -0.3243
16582SOL    HW151900   7.561   8.456   2.937  0.3859  0.0806 -0.6179
16582SOL    HW251901   7.662   8.345   2.923  0.1393 -0.4825  1.7119
16583SOL     OW51902   1.145   9.033   2.017 -0.3791  0.3179 -0.1911
16583SOL    HW151903   1.119   9.052   2.107 -0.3203  0.0338 -0.1099
16583SOL    HW251904   1.231   8.992   2.026 -1.3834 -1.9980 -0.1496
16584SOL     OW51905   8.421   8.558   0.611  0.9399 -0.1638  0.4335
16584SOL    HW151906   8.397   8.477   0.566  0.4602 -0.2816  0.8884
16584SOL    HW251907   8.466   8.611   0.544 -3.2594  1.3979 -1.4979
16585SOL     OW51908   5.329   0.466   4.602  0.3018 -0.2384  0.8870
16585SOL    HW151909   5.282   0.545   4.575 -0.6317 -0.4350  1.9031
16585SOL    HW251910   5.340   0.417   4.521 -0.6627  0.1215  0.5185
16586SOL     OW51911   9.536   2.240   1.507  0.3499 -0.5971 -0.1928
16586SOL    HW151912   9.509   2.195   1.427 -3.9272 -1.0262  1.2241
16586SOL    HW251913   9.495   2.327   1.501  0.6768 -0.3204  1.1542
16587SOL     OW51914   4.356   5.062   2.807  0.2765  0.2813  0.4310
16587SOL    HW151915   4.392   5.151   2.813  0.9960  0.0183  0.1601
16587SOL    HW251916   4.274   5.072   2.759  0.4796  0.7653  0.1801
16588SOL     OW51917   7.325   8.999   8.330  0.5427  0.1758  0.0168
16588SOL    HW151918   7.362   8.925   8.378  2.5503  0.4083 -1.0680
16588SOL    HW251919   7.368   9.076   8.367 -3.2407  1.2556  2.8165
16589SOL     OW51920   8.279   7.255   1.365 -0.1866  0.1786 -0.3841
16589SOL    HW151921   8.373   7.270   1.379 -0.3016  1.0017 -0.4750
16589SOL    HW251922   8.245   7.339   1.335 -0.6632 -0.4995 -1.8959
16590SOL     OW51923   5.925   0.423   7.995 -0.1208 -0.0989 -0.5693
16590SOL    HW151924   5.964   0.408   8.081 -0.1619 -2.2966 -0.9007
16590SOL    HW251925   5.997   0.454   7.941  0.3948 -0.8306 -0.3046
16591SOL     OW51926   6.797   7.704   1.147  0.3465  0.3054 -0.2498
16591SOL    HW151927   6.839   7.681   1.065  0.7638  0.7096 -0.1528
16591SOL    HW251928   6.821   7.796   1.162  0.9736  0.0082  0.7318
16592SOL     OW51929   3.198   8.714   5.107  0.0499  0.1198 -0.0737
16592SOL    HW151930   3.103   8.707   5.098  0.1243  0.2510 -1.0758
16592SOL    HW251931   3.220   8.798   5.066  0.7388 -0.5316 -1.0804
16593SOL     OW51932   1.382   3.197   5.144 -0.0083  0.5409  0.0024
16593SOL    HW151933   1.414   3.262   5.082  0.4240 -0.1114 -0.4810
16593SOL    HW251934   1.451   3.189   5.209 -0.5253  1.3319  0.6679
16594SOL     OW51935   4.368   5.984   8.816  0.9127 -0.4019 -0.3978
16594SOL    HW151936   4.344   5.896   8.785 -1.0460  0.1956 -0.7016
16594SOL    HW251937   4.323   5.993   8.900  0.0019  0.7812 -0.9887
16595SOL     OW51938   3.706   0.891   0.545  0.0702 -0.2027  0.3795
16595SOL    HW151939   3.797   0.880   0.572  0.1336  0.9118  0.6516
16595SOL    HW251940   3.703   0.978   0.506 -1.1878  0.4063  1.7269
16596SOL     OW51941   8.491   6.331   4.865  0.2453  0.0095  0.3445
16596SOL    HW151942   8.451   6.407   4.908 -2.6529 -1.4406  0.4374
16596SOL    HW251943   8.478   6.347   4.772  1.6771  0.6393  0.2348
16597SOL     OW51944   8.276   9.239   2.229 -0.2676  0.0965  0.0978
16597SOL    HW151945   8.278   9.144   2.216  0.7664 -0.0087  0.9131
16597SOL    HW251946   8.254   9.274   2.143 -0.1053 -0.8588 -0.3509
16598SOL     OW51947   5.507   3.060   6.871  0.2967  0.0457  0.0046
16598SOL    HW151948   5.522   2.966   6.859 -1.5106 -0.3897  0.7646
16598SOL    HW251949   5.474   3.090   6.786  2.7370  0.4747 -0.8698
16599SOL     OW51950   2.678   5.291   0.894  0.3846 -0.0184 -0.0203
16599SOL    HW151951   2.669   5.269   0.801  0.5665 -0.9924  0.1781
16599SOL    HW251952   2.686   5.206   0.938 -0.6386  0.3812  0.9907
16600SOL     OW51953   5.070   4.749   8.099 -0.1693 -0.1605  0.2509
16600SOL    HW151954   4.996   4.702   8.136 -1.8978  0.7918 -1.7948
16600SOL    HW251955   5.061   4.838   8.133 -0.6900  0.2495 -0.8997
16601SOL     OW51956   7.636   0.641   7.106  0.1621 -0.2815 -0.4930
16601SOL    HW151957   7.543   0.652   7.129  0.3517  0.9500 -0.2226
16601SOL    HW251958   7.660   0.725   7.067  1.5952  0.0046  0.9392
16602SOL     OW51959   3.636   8.459   3.848  0.6775  0.1649  0.1000
16602SOL    HW151960   3.639   8.370   3.885  0.4234 -0.0705 -0.4406
16602SOL    HW251961   3.636   8.516   3.925  0.3402 -0.3190  0.4663
16603SOL     OW51962   4.482   2.059   1.077 -0.2434  0.3845 -0.2514
16603SOL    HW151963   4.501   2.026   0.989 -0.6224 -1.0367  0.1699
16603SOL    HW251964   4.436   1.987   1.120  0.3140  0.8898  1.2540
16604SOL     OW51965   3.822   6.621   7.533 -0.2899  0.2130 -0.4232
16604SOL    HW151966   3.749   6.665   7.576 -0.3796 -1.2388  1.0029
16604SOL    HW251967   3.899   6.673   7.557 -0.7319  1.2920 -1.2799
16605SOL     OW51968   8.052   6.392   8.641 -0.1257  0.2624  0.0153
16605SOL    HW151969   8.131   6.435   8.675 -0.1404 -0.1366  0.5748
16605SOL    HW251970   7.992   6.392   8.715 -0.8099  0.9362 -0.5320
16606SOL     OW51971   9.125   8.161   9.341 -0.1509 -0.0877  0.1859
16606SOL    HW151972   9.188   8.233   9.330  0.2941 -0.4955  0.0365
16606SOL    HW251973   9.092   8.171   9.430 -2.8484  2.5140 -0.9190
16607SOL     OW51974   5.665   1.483   9.399  0.1388  0.2817 -0.2883
16607SOL    HW151975   5.620   1.545   9.342 -0.3433  0.0307 -0.1926
16607SOL    HW251976   5.638   1.509   9.488 -0.7648 -0.5788 -0.2897
16608SOL     OW51977   8.506   1.377   5.087 -0.7856 -0.5052  0.1634
16608SOL    HW151978   8.588   1.336   5.059 -1.6485 -1.9295 -0.3970
16608SOL    HW251979   8.529   1.425   5.167  1.1796  1.4800 -1.4528
16609SOL     OW51980   0.531   4.583   7.877 -0.0003 -0.0840 -0.0274
16609SOL    HW151981   0.461   4.612   7.935 -0.1801  0.3246 -0.4422
16609SOL    HW251982   0.574   4.512   7.924  0.1364  0.5369  0.7987
16610SOL     OW51983   3.337   9.389   1.542  0.2335  0.0928  0.4536
16610SOL    HW151984   3.415   9.402   1.487  0.2653  0.6015  0.6148
16610SOL    HW251985   3.331   9.294   1.552  0.1465 -0.0224 -0.5510
16611SOL     OW51986   2.863   2.723   8.870 -0.2354 -0.0620 -0.0852
16611SOL    HW151987   2.949   2.710   8.909 -0.1844 -0.5203 -0.3575
16611SOL    HW251988   2.823   2.791   8.925  0.7137  0.9570 -0.6199
16612SOL     OW51989   1.663   1.615   4.317  0.1319 -0.4869 -0.4731
16612SOL    HW151990   1.622   1.531   4.336 -0.3307 -0.2878 -0.5699
16612SOL    HW251991   1.590   1.675   4.306  0.4303  0.4832  2.0275
16613SOL     OW51992   3.304   0.374   4.680  0.4884 -0.2657 -0.4623
16613SOL    HW151993   3.294   0.332   4.766  1.6129 -0.0864 -0.2253
16613SOL    HW251994   3.317   0.301   4.620  1.7133 -0.3182 -0.1600
16614SOL     OW51995   9.516   5.441   5.676  0.3492  0.0692  0.2787
16614SOL    HW151996   9.556   5.402   5.754  1.9161  1.8384  0.4490
16614SOL    HW251997   9.532   5.535   5.687 -0.3730  0.4476 -1.6572
16615SOL     OW51998   4.248   7.764   5.511  0.0092 -0.0777  0.1246
16615SOL    HW151999   4.270   7.672   5.526  0.5624  0.1738  0.9411
16615SOL    HW252000   4.298   7.811   5.578  0.0073  0.8460 -0.5150
16616SOL     OW52001   8.903   6.883   0.672  0.3141  0.1674  0.1753
16616SOL    HW152002   8.985   6.896   0.624  0.0465  0.8246 -0.1220
16616SOL    HW252003   8.923   6.909   0.762  0.3155  0.7869  0.0020
16617SOL     OW52004   3.133   0.694   4.993  0.0401 -0.4728 -0.3782
16617SOL    HW152005   3.057   0.710   4.937  2.0506  0.9648 -2.9342
16617SOL    HW252006   3.134   0.599   5.006 -1.1255 -0.7428 -1.9502
16618SOL     OW52007   5.466   3.244   9.331  0.5492 -0.2107  0.3666
16618SOL    HW152008   5.371   3.254   9.326  0.6720  2.1103  1.2157
16618SOL    HW252009   5.499   3.290   9.254  1.0021 -1.8481 -0.4678
16619SOL     OW52010   4.682   5.702   6.694  0.2647  0.6961  0.0124
16619SOL    HW152011   4.624   5.778   6.699  0.0611  0.5181  0.3638
16619SOL    HW252012   4.623   5.626   6.694  0.5183  0.4732  1.2895
16620SOL     OW52013   9.493   4.009   9.497 -0.4093 -0.1582 -0.0297
16620SOL    HW152014   9.484   4.090   9.548 -0.0536 -1.5239  2.3529
16620SOL    HW252015   9.451   3.942   9.551  0.6274 -1.8484 -1.2112
16621SOL     OW52016   2.116   2.091   8.956 -0.1887  0.1379  0.2372
16621SOL    HW152017   2.160   2.008   8.937  0.1135  0.1753  0.7376
16621SOL    HW252018   2.113   2.137   8.872 -2.0591 -1.1522 -0.4750
16622SOL     OW52019   5.269   9.565   2.840  0.1381  0.5730  0.8165
16622SOL    HW152020   5.193   9.514   2.866 -0.4043  1.0489  0.1795
16622SOL    HW252021   5.276   9.634   2.906 -2.0532  2.6161 -0.9249
16623SOL     OW52022   2.475   6.628   1.995  1.0520 -0.0191 -0.2538
16623SOL    HW152023   2.421   6.620   1.916  0.1977 -2.7345  0.4755
16623SOL    HW252024   2.565   6.622   1.963  0.8152  1.2478 -1.2045
16624SOL     OW52025   2.624   1.521   7.055  0.0715  0.3153  0.4235
16624SOL    HW152026   2.631   1.505   6.961 -0.0815  1.3088  0.2272
16624SOL    HW252027   2.601   1.436   7.093 -0.0545 -0.0488 -0.4554
16625SOL     OW52028   8.174   2.373   5.284  0.2743  0.0298 -0.1180
16625SOL    HW152029   8.207   2.427   5.356 -2.7499 -0.0927  1.5382
16625SOL    HW252030   8.234   2.389   5.212  2.1947  1.8901  1.7597
16626SOL     OW52031   6.272   5.741   8.822 -0.2000  0.4554 -0.2502
16626SOL    HW152032   6.242   5.684   8.752 -0.1487  0.4462 -0.2645
16626SOL    HW252033   6.249   5.694   8.903  0.5632  0.0455 -0.2663
16627SOL     OW52034   7.049   1.553   8.777  0.5615 -0.2635  0.2101
16627SOL    HW152035   6.985   1.594   8.719 -0.1387  0.2647  1.3267
16627SOL    HW252036   7.008   1.554   8.863  2.1314  0.2193  0.9954
16628SOL     OW52037   1.367   1.563   5.540 -0.1174  0.1274 -0.2927
16628SOL    HW152038   1.273   1.545   5.547 -0.4287  0.4653 -2.6591
16628SOL    HW252039   1.372   1.658   5.531  0.3791  0.0541 -0.8387
16629SOL     OW52040   0.778   3.057   7.997 -0.9478 -0.4505  0.1380
16629SOL    HW152041   0.770   3.008   8.078  0.6732  0.5950  0.9870
16629SOL    HW252042   0.697   3.038   7.949 -1.2668 -2.2667  1.3153
16630SOL     OW52043   1.827   7.925   0.469 -0.0146  0.0298  0.1871
16630SOL    HW152044   1.912   7.899   0.435 -0.3573 -0.9001  0.0168
16630SOL    HW252045   1.825   8.020   0.460  0.6249 -0.0313 -0.6873
16631SOL     OW52046   2.950   5.055   7.062  0.2256 -0.0193  0.0610
16631SOL    HW152047   2.870   5.072   7.012  0.0428  1.0045  0.6806
16631SOL    HW252048   2.950   4.961   7.076 -1.0948  0.0187  0.4076
16632SOL     OW52049   5.321   6.320   8.360 -0.0027  0.7292 -0.1875
16632SOL    HW152050   5.265   6.307   8.436 -0.4804 -0.5171 -0.7205
16632SOL    HW252051   5.402   6.273   8.382 -0.4571 -0.3554 -0.7637
16633SOL     OW52052   6.084   7.717   8.715  0.5133 -0.4299  0.7231
16633SOL    HW152053   5.991   7.720   8.738  0.1562  0.3782 -0.7002
16633SOL    HW252054   6.087   7.738   8.622  2.1972  0.6964  0.9638
16634SOL     OW52055   0.268   8.639   7.712 -0.5620 -0.5832  0.3637
16634SOL    HW152056   0.310   8.643   7.626  1.4414 -0.1994  1.3196
16634SOL    HW252057   0.258   8.730   7.739  0.3520 -0.7276  1.2334
16635SOL     OW52058   3.044   5.875   2.432  0.7812 -0.1625 -0.1422
16635SOL    HW152059   3.134   5.881   2.400  0.5760  0.8006 -0.5542
16635SOL    HW252060   3.003   5.808   2.377  0.9159  0.2454 -0.7454
16636SOL     OW52061   7.095   8.752   5.723 -0.5300  0.1693 -0.0677
16636SOL    HW152062   7.002   8.728   5.721 -0.3382 -0.8375  1.3344
16636SOL    HW252063   7.130   8.720   5.640 -1.3903  0.3736 -0.5224
16637SOL     OW52064   9.560   1.915   7.925  0.4105  0.3719  0.0460
16637SOL    HW152065   9.592   1.879   8.007 -1.6838  1.5409  1.4607
16637SOL    HW252066   9.638   1.920   7.869  1.7155 -1.2996  1.6046
16638SOL     OW52067   0.937   5.424   7.554  0.1780  0.7374 -0.4582
16638SOL    HW152068   0.943   5.415   7.649  3.1801 -1.0853 -0.7087
16638SOL    HW252069   1.003   5.490   7.532 -0.1779  0.8102 -1.3447
16639SOL     OW52070   1.263   1.105   7.554 -0.0998 -0.0920 -0.8422
16639SOL    HW152071   1.220   1.184   7.523  0.7046  0.3878 -0.7593
16639SOL    HW252072   1.301   1.066   7.475 -0.3285 -0.2938 -0.8532
16640SOL     OW52073   7.935   5.914   3.262  0.4937 -0.1081  0.0327
16640SOL    HW152074   7.993   5.905   3.186  1.8506 -0.0981  1.0346
16640SOL    HW252075   7.980   5.977   3.319 -0.6856  0.1720  0.6822
16641SOL     OW52076   4.351   1.475   7.699 -0.1232 -0.4458 -0.4046
16641SOL    HW152077   4.279   1.513   7.649 -0.4795 -0.7201 -0.1082
16641SOL    HW252078   4.425   1.476   7.639 -0.2361  0.3175 -0.5425
16642SOL     OW52079   5.006   4.532   7.553 -0.1959  0.2878 -0.9489
16642SOL    HW152080   5.026   4.448   7.511 -1.2844 -0.3686 -0.2127
16642SOL    HW252081   4.934   4.568   7.501 -1.7200 -0.6489  0.4569
16643SOL     OW52082   4.714   2.228   3.067  0.1303  0.3896 -0.2658
16643SOL    HW152083   4.728   2.202   2.976 -0.5757 -1.6585  0.1342
16643SOL    HW252084   4.718   2.145   3.116  0.6999  1.4580  1.6038
16644SOL     OW52085   5.968   2.733   4.347  0.2333 -0.0840 -0.3705
16644SOL    HW152086   5.901   2.697   4.289  2.4281 -2.0849 -1.8349
16644SOL    HW252087   6.004   2.658   4.394  1.0889  1.0054  0.8210
16645SOL     OW52088   1.242   5.210   7.614 -0.1985  0.4802  0.0858
16645SOL    HW152089   1.253   5.240   7.524 -1.2694  0.8610  0.0654
16645SOL    HW252090   1.190   5.130   7.605  2.0973 -1.1139  0.1833
16646SOL     OW52091   7.833   9.423   6.697  0.1125 -0.2549 -0.1070
16646SOL    HW152092   7.803   9.395   6.611  0.4969 -0.3223 -0.2201
16646SOL    HW252093   7.822   9.346   6.753 -1.3786  0.1695  0.2229
16647SOL     OW52094   0.237   2.601   9.231 -0.7725  0.2891 -0.4158
16647SOL    HW152095   0.199   2.520   9.265  0.2716 -0.7219 -1.5802
16647SOL    HW252096   0.174   2.631   9.165 -0.1232 -0.7635 -1.5324
16648SOL     OW52097   9.534   7.707   0.896 -0.1135  0.2999 -0.0322
16648SOL    HW152098   9.443   7.682   0.911 -0.1824  0.4820 -0.1456
16648SOL    HW252099   9.578   7.692   0.980 -0.1265 -0.3140 -0.1314
16649SOL     OW52100   0.883   3.799   8.327 -0.1992 -0.1991 -0.4846
16649SOL    HW152101   0.893   3.766   8.238  1.3054 -1.0662 -0.0225
16649SOL    HW252102   0.966   3.779   8.370 -1.1085 -0.3395  1.2938
16650SOL     OW52103   1.175   0.815   8.865 -0.0126 -0.8314  0.2959
16650SOL    HW152104   1.082   0.828   8.881  0.2881 -0.4164  2.0132
16650SOL    HW252105   1.197   0.735   8.913  0.5579 -0.7869  0.1205
16651SOL     OW52106   0.984   8.813   5.256 -0.3477  0.0635 -0.2544
16651SOL    HW152107   1.034   8.745   5.302  0.5508  0.3617 -0.7686
16651SOL    HW252108   0.928   8.764   5.195 -3.0842 -0.4909  2.4543
16652SOL     OW52109   7.373   6.018   7.142  0.1211  0.0389  0.3054
16652SOL    HW152110   7.453   5.976   7.109 -0.0280  1.2527 -1.7773
16652SOL    HW252111   7.370   6.103   7.098 -3.2001 -0.6522 -1.1053
16653SOL     OW52112   2.794   0.326   2.461  0.4282  0.3407 -0.1958
16653SOL    HW152113   2.722   0.380   2.494 -0.0604 -0.0088 -0.6688
16653SOL    HW252114   2.759   0.237   2.463  1.3603 -0.0184  0.9381
16654SOL     OW52115   9.209   9.538   0.339  0.3421 -0.1666  0.0869
16654SOL    HW152116   9.283   9.519   0.398  0.1500  0.1919  0.4466
16654SOL    HW252117   9.134   9.496   0.380 -0.0762  1.2733  0.8580
16655SOL     OW52118   6.582   8.966   1.398  0.3336 -0.2999 -0.1955
16655SOL    HW152119   6.631   9.031   1.348 -0.3503  0.8033  0.5201
16655SOL    HW252120   6.637   8.888   1.396  0.7484  0.0024 -1.8463
16656SOL     OW52121   8.306   3.905   2.179 -0.4125  0.4682 -0.3394
16656SOL    HW152122   8.305   3.820   2.222 -1.0715 -0.0196 -1.2619
16656SOL    HW252123   8.269   3.965   2.243  0.2365  0.1065  0.3900
16657SOL     OW52124   7.502   2.020   5.704 -0.0122  0.6009 -0.7317
16657SOL    HW152125   7.436   1.999   5.770 -0.2210 -3.4173 -1.9054
16657SOL    HW252126   7.457   2.005   5.620  1.6521  0.2827 -1.6261
16658SOL     OW52127   6.659   5.333   3.736 -0.3339 -0.1557  0.4140
16658SOL    HW152128   6.641   5.241   3.719  0.8221 -0.2187 -0.5393
16658SOL    HW252129   6.734   5.333   3.795 -0.2342  0.1775  0.2924
16659SOL     OW52130   6.002   3.671   0.842  0.2901 -0.0936 -0.4702
16659SOL    HW152131   5.960   3.720   0.771  1.3991 -0.4135 -1.3755
16659SOL    HW252132   5.948   3.592   0.851 -0.3452  0.3462 -0.3762
16660SOL     OW52133   4.204   8.758   1.462  0.9501 -0.5195  0.2265
16660SOL    HW152134   4.223   8.665   1.455 -2.1194 -1.3202  1.1642
16660SOL    HW252135   4.157   8.780   1.381  0.2215 -0.1981  0.7283
16661SOL     OW52136   6.238   7.221   1.901  0.3360 -0.1382 -0.1214
16661SOL    HW152137   6.333   7.210   1.899  0.3831  0.2546 -0.1903
16661SOL    HW252138   6.226   7.314   1.917 -0.0392 -0.1396 -0.3869
16662SOL     OW52139   5.125   1.306   7.018 -0.0681  0.4377  1.2390
16662SOL    HW152140   5.210   1.348   7.028  0.5166  0.1418 -1.5622
16662SOL    HW252141   5.141   1.214   7.040  0.3105  0.4199  0.9058
16663SOL     OW52142   8.062   4.949   1.192 -0.1766  0.0511 -0.4315
16663SOL    HW152143   8.047   4.922   1.283  0.1387  0.7705 -0.1629
16663SOL    HW252144   8.149   4.916   1.170  1.2569  2.7814  0.6789
16664SOL     OW52145   5.166   2.693   4.300  0.4401 -0.4561  0.4210
16664SOL    HW152146   5.124   2.723   4.380  1.2030 -0.6197  0.8920
16664SOL    HW252147   5.243   2.749   4.290  1.5028 -1.7682  0.9456
16665SOL     OW52148   8.926   0.142   1.748 -0.1076 -0.0774 -0.8009
16665SOL    HW152149   8.908   0.231   1.718 -0.5927  0.1389  0.1041
16665SOL    HW252150   8.864   0.128   1.819  0.3178 -0.9537 -0.5968
16666SOL     OW52151   7.200   6.197   3.949 -0.2151 -0.3348  0.1586
16666SOL    HW152152   7.231   6.235   4.031  2.3292  0.3917 -1.0616
16666SOL    HW252153   7.193   6.103   3.967 -4.4192  0.1823  2.5347
16667SOL     OW52154   8.290   6.363   6.603  0.0993 -0.1354 -0.3583
16667SOL    HW152155   8.283   6.386   6.510  1.5060  0.1619 -0.4122
16667SOL    HW252156   8.254   6.440   6.649 -0.9457 -0.4382 -0.6471
16668SOL     OW52157   6.889   1.099   0.004 -0.3956  0.1948 -0.1617
16668SOL    HW152158   6.852   1.042   0.071 -0.2200  0.1477 -0.1057
16668SOL    HW252159   6.821   1.105  -0.063  0.5344 -2.1059 -1.3993
16669SOL     OW52160   5.000   5.578   0.246 -0.1409 -0.2419  0.0918
16669SOL    HW152161   4.929   5.603   0.187 -0.3277  0.4286  0.5978
16669SOL    HW252162   5.077   5.574   0.190 -0.5785 -1.0612 -0.4800
16670SOL     OW52163   6.408   1.861   0.156 -0.8493 -0.0271 -0.2086
16670SOL    HW152164   6.329   1.812   0.180  0.2811 -0.6861  2.5446
16670SOL    HW252165   6.391   1.950   0.186 -0.3189 -0.3368  1.0860
16671SOL     OW52166   3.858   3.382   1.909 -0.1985 -0.1043 -0.6639
16671SOL    HW152167   3.856   3.468   1.866 -2.0547  0.3462  0.2487
16671SOL    HW252168   3.937   3.341   1.874 -0.5605  0.9971 -3.0070
16672SOL     OW52169   3.575   7.775   6.255 -0.2053  0.3636  0.3841
16672SOL    HW152170   3.534   7.726   6.326 -1.8422  0.0026 -0.7468
16672SOL    HW252171   3.632   7.711   6.212 -0.6124  0.0755  0.2716
16673SOL     OW52172   7.136   1.444   7.480  0.3384 -0.1356  0.1441
16673SOL    HW152173   7.204   1.381   7.455  0.5971  0.5985 -1.0795
16673SOL    HW252174   7.085   1.456   7.400 -1.1306 -0.5116  0.9830
16674SOL     OW52175   6.150   8.723   1.139 -0.2467  0.4417  0.2729
16674SOL    HW152176   6.090   8.649   1.138 -1.5858  1.4272 -2.1822
16674SOL    HW252177   6.094   8.800   1.131  1.2477  1.4861 -0.8265
16675SOL     OW52178   8.872   1.084   7.133 -0.5705  0.2752  0.3182
16675SOL    HW152179   8.912   0.998   7.120 -1.4487 -0.5212  2.4716
16675SOL    HW252180   8.898   1.110   7.221 -1.5037  1.5816  0.2374
16676SOL     OW52181   3.407   9.117   8.645 -0.2296 -0.2300  0.7534
16676SOL    HW152182   3.319   9.088   8.621 -0.3246  0.4977  0.1896
16676SOL    HW252183   3.456   9.114   8.562 -0.2051  1.0733  0.7052
16677SOL     OW52184   6.628   2.673   7.421  0.3303  0.2901  0.0884
16677SOL    HW152185   6.682   2.751   7.432  1.6063 -0.6296  0.4917
16677SOL    HW252186   6.546   2.706   7.384  0.5429  1.9144  0.9965
16678SOL     OW52187   3.197   8.384   8.718  0.0234  0.5092 -0.5490
16678SOL    HW152188   3.257   8.395   8.645  0.6561  0.5588 -0.0357
16678SOL    HW252189   3.203   8.291   8.740  1.8177  0.9354  1.0637
16679SOL     OW52190   9.278   3.985   4.645 -0.6417  0.1748  0.1058
16679SOL    HW152191   9.339   3.912   4.641 -1.7533 -0.7707 -3.1255
16679SOL    HW252192   9.332   4.062   4.667  1.3574 -0.8883 -0.8855
16680SOL     OW52193   8.076   1.385   9.098 -0.1861  0.2257  0.1770
16680SOL    HW152194   8.001   1.399   9.041  0.4868 -0.1655 -0.8244
16680SOL    HW252195   8.144   1.443   9.064 -0.2105  1.0576  1.4664
16681SOL     OW52196   2.293   6.641   7.123  0.6911  0.2411  0.4564
16681SOL    HW152197   2.346   6.670   7.049  0.1848 -0.8591 -0.3810
16681SOL    HW252198   2.206   6.628   7.086  0.4514 -0.4190  1.2179
16682SOL     OW52199   0.419   1.793   7.119 -0.6123  0.5197  0.2444
16682SOL    HW152200   0.323   1.793   7.119 -0.6107  0.2016  0.2908
16682SOL    HW252201   0.443   1.737   7.193 -0.3896  0.3378  0.0336
16683SOL     OW52202   6.099   9.432   4.859 -0.5856 -0.0287  0.5654
16683SOL    HW152203   6.148   9.433   4.776 -0.3678  1.0884  0.6975
16683SOL    HW252204   6.109   9.520   4.894 -0.8088 -0.4480  1.7163
16684SOL     OW52205   7.964   1.397   9.542  0.0596 -0.3907  0.2816
16684SOL    HW152206   7.889   1.341   9.524 -0.3832  0.6012 -1.1537
16684SOL    HW252207   8.029   1.372   9.476  0.8114 -0.8981  1.1978
16685SOL     OW52208   4.372   5.627   0.272 -0.0204 -0.1795 -0.2938
16685SOL    HW152209   4.299   5.651   0.214  0.8924  1.0092 -0.9859
16685SOL    HW252210   4.397   5.710   0.314  0.5837 -0.6836  0.3618
16686SOL     OW52211   5.170   7.079   6.655 -0.1228 -0.1919 -0.3070
16686SOL    HW152212   5.157   7.155   6.599  0.2639 -1.4199 -2.1605
16686SOL    HW252213   5.096   7.082   6.716 -1.3991  0.4544 -1.7899
16687SOL     OW52214   2.957   4.523   7.912 -0.3136  0.2904  0.8741
16687SOL    HW152215   3.009   4.568   7.979  0.0416 -1.2945  1.7113
16687SOL    HW252216   3.011   4.447   7.887 -1.6540 -0.6831  0.8375
16688SOL     OW52217   4.684   0.481   7.781  0.5413  0.7394  0.3545
16688SOL    HW152218   4.633   0.560   7.798 -0.7966 -0.1313  0.5643
16688SOL    HW252219   4.623   0.409   7.798  1.3325 -0.3141 -1.0439
16689SOL     OW52220   4.096   7.912   2.646 -0.0625  0.2432 -0.1840
16689SOL    HW152221   4.048   7.830   2.642 -1.5116  1.0169  0.4549
16689SOL    HW252222   4.161   7.898   2.715  1.7616 -1.3260 -2.0742
16690SOL     OW52223   1.351   1.697   7.637  0.5008  0.1089  0.0731
16690SOL    HW152224   1.366   1.662   7.550 -1.0890 -1.5554  0.4272
16690SOL    HW252225   1.347   1.621   7.694 -1.0345  0.9762  1.2047
16691SOL     OW52226   2.948   2.511   0.593  0.2329  0.1336  0.4697
16691SOL    HW152227   2.898   2.536   0.516 -0.4605  0.6910  1.0871
16691SOL    HW252228   2.978   2.422   0.575 -0.5765 -0.0255 -0.1103
16692SOL     OW52229   7.734   0.326   5.353  0.2425  0.3074  0.6894
16692SOL    HW152230   7.784   0.252   5.388 -0.6740 -0.1343  1.0854
16692SOL    HW252231   7.731   0.389   5.424  2.8601  1.7382 -0.2985
16693SOL     OW52232   4.484   1.336   1.538 -0.1160 -0.0101  0.1474
16693SOL    HW152233   4.535   1.405   1.581 -0.0187  0.4554 -0.7081
16693SOL    HW252234   4.545   1.296   1.476 -0.7848  0.5557 -0.8874
16694SOL     OW52235   5.035   5.662   6.298  0.2778 -0.2844 -0.5263
16694SOL    HW152236   5.006   5.691   6.211  0.0843  1.1603  0.0041
16694SOL    HW252237   4.972   5.594   6.322 -1.4993  1.3636 -0.2726
16695SOL     OW52238   4.230   0.122   4.380  0.9106 -0.2852 -0.1349
16695SOL    HW152239   4.316   0.090   4.406  1.1130 -0.5087 -1.0464
16695SOL    HW252240   4.248   0.191   4.316  0.4201 -0.0064  0.0213
16696SOL     OW52241   1.213   2.964   4.673  0.8956 -0.1552 -0.3697
16696SOL    HW152242   1.134   3.015   4.655 -0.2282 -1.4575  0.6261
16696SOL    HW252243   1.213   2.896   4.605 -0.9430 -2.3920  1.6717
16697SOL     OW52244   5.501   7.087   7.811  0.4971  0.6270  0.3040
16697SOL    HW152245   5.410   7.067   7.830  0.1046  1.3058 -0.7389
16697SOL    HW252246   5.551   7.016   7.851 -0.6907 -1.3540 -1.5158
16698SOL     OW52247   3.554   8.605   8.440 -0.5309 -0.0124 -0.3721
16698SOL    HW152248   3.579   8.587   8.349 -2.9013  1.5134 -1.4270
16698SOL    HW252249   3.474   8.555   8.453 -1.1888  1.1790  0.2631
16699SOL     OW52250   4.918   8.879   0.947 -0.2405  0.2649 -0.0163
16699SOL    HW152251   4.826   8.854   0.941 -0.1031 -0.3778  0.4497
16699SOL    HW252252   4.937   8.919   0.862 -0.3736 -1.6013 -0.9828
16700SOL     OW52253   1.179   5.524   9.186  0.1688  0.2719 -0.2438
16700SOL    HW152254   1.213   5.607   9.219  0.7302  0.3243 -0.9122
16700SOL    HW252255   1.124   5.548   9.112  0.7332  0.0307 -0.7544
16701SOL     OW52256   3.851   6.755   5.169 -0.0216 -0.7263  0.0979
16701SOL    HW152257   3.841   6.747   5.264 -1.1557  1.4953  0.2152
16701SOL    HW252258   3.780   6.701   5.133 -0.4056 -0.5187  0.5375
16702SOL     OW52259   4.366   8.106   6.472 -0.4245 -0.1683  0.2635
16702SOL    HW152260   4.360   8.011   6.460  0.0340 -0.3091  1.0446
16702SOL    HW252261   4.275   8.135   6.477 -0.5667 -0.6157  0.3347
16703SOL     OW52262   6.317   8.801   8.152  0.0552 -0.3324 -0.5160
16703SOL    HW152263   6.304   8.873   8.214  1.3288 -1.8057  1.5657
16703SOL    HW252264   6.410   8.780   8.158  0.1049 -0.8757 -2.5790
16704SOL     OW52265   2.067   9.377   6.764 -0.0207  0.2541  0.3267
16704SOL    HW152266   2.114   9.418   6.836  0.3002  1.2274 -0.4151
16704SOL    HW252267   1.980   9.360   6.798 -0.1135  1.4311  0.6939
16705SOL     OW52268   0.145   2.386   6.948 -1.6163  0.1152  0.4282
16705SOL    HW152269   0.168   2.376   6.855  0.0747 -1.0717  0.9305
16705SOL    HW252270   0.197   2.460   6.978 -0.8286 -0.5766  0.8121
16706SOL     OW52271   0.663   8.855   3.222  0.3032  0.1237 -0.4418
16706SOL    HW152272   0.599   8.791   3.194  1.1570 -0.4434 -1.1424
16706SOL    HW252273   0.737   8.803   3.254 -0.4365  0.7174  2.5944
16707SOL     OW52274   5.276   1.259   2.779  0.3385  0.3725 -0.1855
16707SOL    HW152275   5.216   1.328   2.808 -0.3754 -0.4079  0.2332
16707SOL    HW252276   5.342   1.254   2.848  0.4272  0.6759 -0.2476
16708SOL     OW52277   2.906   3.048   0.575  0.2777 -0.2339  0.2782
16708SOL    HW152278   2.915   2.956   0.549  1.2965  0.1249 -0.6977
16708SOL    HW252279   2.844   3.046   0.648 -1.6207 -1.4310 -1.2683
16709SOL     OW52280   8.185   7.507   2.918  0.0116  0.2680  0.6112
16709SOL    HW152281   8.100   7.541   2.891 -0.7570  0.3082  2.9218
16709SOL    HW252282   8.195   7.535   3.009  1.8630 -0.9399  0.8331
16710SOL     OW52283   8.949   6.945   0.220  0.1665  0.2110 -0.5206
16710SOL    HW152284   8.963   6.877   0.286 -1.0188  1.7204  1.3840
16710SOL    HW252285   8.996   6.913   0.143  0.9045 -2.0301  0.7587
16711SOL     OW52286   7.144   8.131   4.808 -0.1123 -0.4617  0.1792
16711SOL    HW152287   7.058   8.091   4.818 -0.7525  0.8008 -0.0890
16711SOL    HW252288   7.196   8.094   4.879 -1.0359 -0.8284  0.6810
16712SOL     OW52289   6.413   5.889   2.001 -0.3876 -0.1131 -0.2317
16712SOL    HW152290   6.490   5.834   2.009 -0.6552 -0.4045  0.4152
16712SOL    HW252291   6.341   5.829   1.981 -0.2846  0.2675 -1.8731
16713SOL     OW52292   4.022   7.143   6.896  0.5887 -0.0000  0.1130
16713SOL    HW152293   4.047   7.050   6.900 -1.2045 -0.4753  2.0443
16713SOL    HW252294   3.981   7.160   6.981 -0.3482  2.2263 -0.7184
16714SOL     OW52295   0.358   5.164   3.321  0.0085 -0.5444 -0.4215
16714SOL    HW152296   0.333   5.240   3.374 -1.1916 -2.1534  1.5218
16714SOL    HW252297   0.339   5.189   3.231 -0.7586  1.2953  0.2101
16715SOL     OW52298   6.623   3.116   4.460  0.2805  0.0145 -0.2215
16715SOL    HW152299   6.697   3.104   4.519  0.2480 -0.8414 -0.3522
16715SOL    HW252300   6.608   3.211   4.460  0.5856  0.0757  0.7599
16716SOL     OW52301   3.175   6.951   4.171 -0.0560 -0.3649 -0.5099
16716SOL    HW152302   3.194   6.879   4.111 -0.9962 -2.3733  1.4210
16716SOL    HW252303   3.079   6.958   4.169  0.0519  1.2405 -1.0642
16717SOL     OW52304   3.600   7.751   1.094  0.5162  0.3332  0.2082
16717SOL    HW152305   3.562   7.677   1.047  0.4169  0.4475  0.1067
16717SOL    HW252306   3.678   7.774   1.044 -0.6441  1.7267 -1.0752
16718SOL     OW52307   9.450   8.793   0.145 -0.3855 -0.7376 -0.0988
16718SOL    HW152308   9.430   8.722   0.084 -0.3686 -0.6399 -0.2170
16718SOL    HW252309   9.490   8.749   0.220  1.5516 -0.6625 -1.0159
16719SOL     OW52310   4.181   1.958   6.192  0.7749 -0.1682  0.4705
16719SOL    HW152311   4.090   1.966   6.163 -0.1375 -2.8966  2.2359
16719SOL    HW252312   4.231   2.005   6.125 -1.8190  0.7140 -1.0133
16720SOL     OW52313   1.789   0.038   7.289  0.1425  0.1814  0.6322
16720SOL    HW152314   1.719   0.098   7.313  0.4811  0.6728  0.3911
16720SOL    HW252315   1.792   0.041   7.194  0.8125  0.5319  0.6605
16721SOL     OW52316   4.258   1.137   7.018 -0.0033 -0.2265 -0.1805
16721SOL    HW152317   4.290   1.208   6.963 -0.9457  1.1495  0.9681
16721SOL    HW252318   4.296   1.058   6.980  1.4181  0.9202 -1.2576
16722SOL     OW52319   7.310   0.941   0.383  0.5352  0.0271 -0.2396
16722SOL    HW152320   7.216   0.930   0.396  0.6032  1.2466  1.8178
16722SOL    HW252321   7.346   0.854   0.396 -0.1674 -0.1111  0.9480
16723SOL     OW52322   0.865   5.619   3.135  0.2388 -0.6320  0.3785
16723SOL    HW152323   0.951   5.617   3.176 -0.2292  0.3042  1.4607
16723SOL    HW252324   0.811   5.561   3.188 -0.2995  0.3758  0.9758
16724SOL     OW52325   3.388   1.016   8.459 -0.0165 -0.4895  0.0999
16724SOL    HW152326   3.431   1.096   8.489  1.0103 -2.2054  3.8006
16724SOL    HW252327   3.295   1.036   8.463  0.2283  0.6047  0.8517
16725SOL     OW52328   7.445   4.352   3.029  0.2617 -0.1192 -0.1788
16725SOL    HW152329   7.513   4.286   3.046  1.8358  1.1737 -1.1905
16725SOL    HW252330   7.453   4.414   3.102  1.6199  1.1310 -1.3237
16726SOL     OW52331   7.954   8.365   1.133 -0.0107  0.4392  0.2810
16726SOL    HW152332   7.862   8.389   1.121 -0.4636 -1.5531 -0.6050
16726SOL    HW252333   7.985   8.348   1.044  0.3256 -1.8858  0.7915
16727SOL     OW52334   3.168   5.466   3.407 -0.1557  1.1214 -0.1289
16727SOL    HW152335   3.140   5.447   3.318  1.4336  2.0255 -0.8633
16727SOL    HW252336   3.101   5.426   3.462 -0.2142 -1.0443 -1.6693
16728SOL     OW52337   4.090   0.503   5.196 -0.1808  0.7221  0.1839
16728SOL    HW152338   3.998   0.497   5.220  0.2813  0.5989  2.0005
16728SOL    HW252339   4.123   0.414   5.204  0.7949  1.2250  2.6659
16729SOL     OW52340   2.620   4.780   8.160  0.2237  0.0142  0.2832
16729SOL    HW152341   2.695   4.736   8.199  0.3197  0.1860  0.2935
16729SOL    HW252342   2.644   4.872   8.159 -0.1815  0.1353  0.7352
16730SOL     OW52343   9.276   2.891   3.640 -0.2757 -0.5870 -0.6473
16730SOL    HW152344   9.301   2.952   3.571  1.1855  0.1727  0.4869
16730SOL    HW252345   9.327   2.812   3.622  1.1854  0.0995  0.2894
16731SOL     OW52346   1.480   8.544   8.871  0.4756 -0.5934 -0.4072
16731SOL    HW152347   1.553   8.495   8.831  0.2541 -0.5880 -0.8267
16731SOL    HW252348   1.462   8.615   8.809  1.6012  0.7867  0.7657
16732SOL     OW52349   9.478   0.353   4.963 -0.5436 -0.0206 -0.1695
16732SOL    HW152350   9.414   0.424   4.973 -0.8767 -0.4984  1.6036
16732SOL    HW252351   9.425   0.277   4.936 -0.5882 -0.1547  0.2722
16733SOL     OW52352   1.007   3.272   7.765  0.6174 -0.1525  0.1948
16733SOL    HW152353   1.032   3.315   7.683  0.4074  0.3414  0.3899
16733SOL    HW252354   1.064   3.194   7.769  0.9785  0.0867 -0.1713
16734SOL     OW52355   6.585   4.873   6.431  0.5568 -0.1502  0.4047
16734SOL    HW152356   6.651   4.888   6.499  0.3783 -2.9010  1.3384
16734SOL    HW252357   6.502   4.873   6.479  0.5185 -3.3243  0.5764
16735SOL     OW52358   5.697   9.099   4.629  0.8041 -0.0126  0.7195
16735SOL    HW152359   5.788   9.124   4.649  0.7166  0.5378  0.4338
16735SOL    HW252360   5.705   9.013   4.588  1.3921  0.8835 -1.1814
16736SOL     OW52361   5.216   1.647   7.941  0.5539 -0.2930  0.2796
16736SOL    HW152362   5.172   1.624   8.023 -1.1510 -0.6740 -0.6866
16736SOL    HW252363   5.167   1.599   7.873  1.9633 -0.0573 -0.9556
16737SOL     OW52364   3.096   0.312   2.225 -0.3879 -0.5857  0.2990
16737SOL    HW152365   3.092   0.293   2.318 -0.4937 -1.0138  0.2107
16737SOL    HW252366   3.135   0.399   2.219  1.0371 -1.1786  0.6688
16738SOL     OW52367   7.315   2.839   3.603 -0.0798  0.3250  0.2190
16738SOL    HW152368   7.309   2.839   3.699  0.2581 -0.9136  0.2579
16738SOL    HW252369   7.381   2.772   3.584 -1.8212 -1.1648 -0.9478
16739SOL     OW52370   6.325   5.038   7.121 -0.0848 -0.3350 -0.2040
16739SOL    HW152371   6.297   4.988   7.197  1.4200  0.1781  0.7240
16739SOL    HW252372   6.416   5.012   7.106 -0.7361 -1.4572 -2.7195
16740SOL     OW52373   1.479   1.292   2.364 -0.1602  0.1515 -0.1164
16740SOL    HW152374   1.571   1.269   2.352 -0.2050 -0.3200  0.4355
16740SOL    HW252375   1.481   1.369   2.421 -0.1469 -0.6001  0.9250
16741SOL     OW52376   0.511   5.715   8.078  0.0630  0.5288 -0.4190
16741SOL    HW152377   0.426   5.711   8.122  0.3365  1.0371  0.1683
16741SOL    HW252378   0.522   5.807   8.055  1.2717  0.8197  1.1602
16742SOL     OW52379   0.365   3.221   2.418 -0.3000  0.4922 -0.2945
16742SOL    HW152380   0.419   3.287   2.464  1.5821 -0.4295 -1.0855
16742SOL    HW252381   0.351   3.152   2.483 -1.0596  0.9923  0.0908
16743SOL     OW52382   5.686   6.460   7.371  0.0466  0.9670 -0.0805
16743SOL    HW152383   5.694   6.407   7.451  0.8070  0.0246 -0.7569
16743SOL    HW252384   5.645   6.401   7.308  2.4403  0.5681 -1.3661
16744SOL     OW52385   4.851   9.406   2.684  0.0804  0.2087 -0.0489
16744SOL    HW152386   4.803   9.461   2.745 -1.8935 -1.1900 -0.2446
16744SOL    HW252387   4.792   9.332   2.667  1.5982 -0.6922 -1.7130
16745SOL     OW52388   2.618   9.427   9.098 -0.5879  0.1561  0.0629
16745SOL    HW152389   2.676   9.484   9.047  0.6003  0.0842  1.2768
16745SOL    HW252390   2.670   9.348   9.115 -0.4034  0.7067  2.4909
16746SOL     OW52391   9.292   2.558   4.078  0.1551 -0.2575  0.1515
16746SOL    HW152392   9.357   2.549   4.009  0.2218 -1.7861  0.3652
16746SOL    HW252393   9.209   2.575   4.033  0.3634 -0.3006 -0.2427
16747SOL     OW52394   7.690   5.081   2.739  0.0924  0.2729  0.0553
16747SOL    HW152395   7.785   5.082   2.753  0.1270 -1.7202  0.3606
16747SOL    HW252396   7.663   5.172   2.746  1.6501  0.6581  2.4477
16748SOL     OW52397   1.386   7.621   8.758  0.5844  0.8073 -0.3251
16748SOL    HW152398   1.317   7.672   8.800  1.3374  0.5140  1.3655
16748SOL    HW252399   1.443   7.594   8.830  2.2161  0.6614 -1.6008
16749SOL     OW52400   3.698   3.042   1.918  0.2198  0.0952  0.0788
16749SOL    HW152401   3.667   3.132   1.904  0.5308  0.1882 -0.0309
16749SOL    HW252402   3.701   3.032   2.013  2.1750  0.9219  0.1526
16750SOL     OW52403   4.581   5.971   0.414  0.1242  0.4901 -0.0172
16750SOL    HW152404   4.510   6.008   0.361  1.0665 -0.5102 -2.0693
16750SOL    HW252405   4.650   6.036   0.411 -0.4438  1.2362  1.5666
16751SOL     OW52406   4.552   1.260   8.524  0.0725 -0.2894  0.4439
16751SOL    HW152407   4.524   1.211   8.601 -0.6071 -2.7567 -1.2528
16751SOL    HW252408   4.476   1.262   8.467  0.5534  1.4961 -0.2208
16752SOL     OW52409   8.019   1.470   5.316 -0.3169  0.5102  0.0657
16752SOL    HW152410   7.924   1.473   5.324 -0.2096  0.0171  1.8183
16752SOL    HW252411   8.036   1.395   5.258 -0.9825  0.9795 -0.7712
16753SOL     OW52412   4.015   2.955   6.252  0.0863 -0.1927 -0.0910
16753SOL    HW152413   4.100   2.940   6.292  0.4621  0.9974 -0.3777
16753SOL    HW252414   3.979   3.030   6.301 -0.6554 -0.4875 -0.1746
16754SOL     OW52415   5.687   7.966   7.316  0.4091 -0.0104  0.8102
16754SOL    HW152416   5.769   7.922   7.292  0.3011  0.5942 -0.7723
16754SOL    HW252417   5.619   7.910   7.279  0.1198 -0.2013  1.6138
16755SOL     OW52418   2.757   2.106   5.228  0.4234  0.7650  0.3129
16755SOL    HW152419   2.695   2.171   5.197  1.0550  0.6566 -1.2702
16755SOL    HW252420   2.733   2.025   5.182  1.2976  0.5607  0.1862
16756SOL     OW52421   4.603   7.166   0.629 -0.4538 -0.1247  0.0817
16756SOL    HW152422   4.653   7.238   0.668  1.1073 -1.0429 -0.1580
16756SOL    HW252423   4.620   7.091   0.686  0.0902 -0.9419 -1.1144
16757SOL     OW52424   7.503   6.885   2.849  0.3488 -0.6022  0.3795
16757SOL    HW152425   7.534   6.913   2.935  0.8663  1.0917 -0.3178
16757SOL    HW252426   7.431   6.826   2.868  0.4272 -0.2300  1.9881
16758SOL     OW52427   0.267   7.550   6.387  0.3824 -0.3987  0.3346
16758SOL    HW152428   0.334   7.529   6.322  0.5166  0.7909  0.0823
16758SOL    HW252429   0.310   7.612   6.446 -0.9001  1.4533 -0.6107
16759SOL     OW52430   2.421   3.588   2.742  0.0915  0.6259 -0.1671
16759SOL    HW152431   2.514   3.568   2.755  0.3540  0.3688 -2.0394
16759SOL    HW252432   2.418   3.683   2.730 -0.0547  0.7724  0.9368
16760SOL     OW52433   6.324   6.952   3.789 -0.6910  0.2254 -0.9785
16760SOL    HW152434   6.297   6.936   3.698 -0.3484 -1.1366 -0.8514
16760SOL    HW252435   6.356   6.868   3.820  1.9018  1.2872 -0.5020
16761SOL     OW52436   3.251   7.474   2.258 -0.0090 -0.0675 -0.1168
16761SOL    HW152437   3.236   7.380   2.244  0.2000 -0.0383 -0.5694
16761SOL    HW252438   3.279   7.506   2.172  2.8318 -0.1447  0.6990
16762SOL     OW52439   0.355   2.426   3.576 -0.3355  0.2918  0.7684
16762SOL    HW152440   0.264   2.396   3.580 -0.3147  0.4029  2.7797
16762SOL    HW252441   0.355   2.492   3.506 -1.7944  0.3300  0.7669
16763SOL     OW52442   6.129   2.086   0.734  0.1247 -0.2776 -0.5917
16763SOL    HW152443   6.141   2.077   0.829  0.3987 -0.0098 -0.6010
16763SOL    HW252444   6.086   2.171   0.723 -3.3050 -1.8369 -0.4363
16764SOL     OW52445   4.083   4.816   7.176  0.4511 -0.1043 -0.2776
16764SOL    HW152446   4.055   4.881   7.239 -2.5472  0.9130 -2.4186
16764SOL    HW252447   4.133   4.752   7.227 -1.0993  1.0359  2.9227
16765SOL     OW52448   8.511   2.516   3.337 -0.2919  0.0155 -0.0160
16765SOL    HW152449   8.543   2.579   3.272 -0.2864 -2.3336 -2.5131
16765SOL    HW252450   8.590   2.479   3.375 -0.1494 -0.7907 -1.0298
16766SOL     OW52451   0.682   1.960   9.164  0.3618 -0.0738 -0.3946
16766SOL    HW152452   0.712   1.877   9.202  1.4910 -0.3220 -1.7280
16766SOL    HW252453   0.739   2.026   9.203 -0.2404  0.0290  0.3281
16767SOL     OW52454   4.770   4.570   5.418 -0.3919  0.5129  0.2228
16767SOL    HW152455   4.858   4.574   5.457 -0.2854  1.6606 -0.1038
16767SOL    HW252456   4.762   4.651   5.368 -1.4529  0.1823 -0.1706
16768SOL     OW52457   3.965   6.823   6.504 -0.1151 -0.2745 -0.1429
16768SOL    HW152458   3.903   6.863   6.565 -2.2988 -0.6045 -1.9885
16768SOL    HW252459   4.026   6.893   6.483 -0.6529  0.4794  0.7298
16769SOL     OW52460   7.242   0.397   2.900 -0.6709  0.9051 -0.1037
16769SOL    HW152461   7.282   0.369   2.982 -1.8796 -2.5931 -0.5119
16769SOL    HW252462   7.306   0.373   2.833 -1.4419 -0.3322 -0.4270
16770SOL     OW52463   8.823   5.568   7.872  0.1409  0.3839 -0.1940
16770SOL    HW152464   8.892   5.634   7.879 -0.5319  1.1226 -0.4483
16770SOL    HW252465   8.776   5.590   7.792 -0.9670  0.4466  0.4491
16771SOL     OW52466   7.618   1.584   0.539 -0.0081  0.5240  0.0916
16771SOL    HW152467   7.533   1.628   0.547  0.5982  2.0465 -1.4458
16771SOL    HW252468   7.676   1.632   0.599 -0.2256 -0.6170  1.2655
16772SOL     OW52469   1.321   1.399   0.923  0.3213 -0.6354 -0.1787
16772SOL    HW152470   1.371   1.368   0.848  0.6818 -1.3539  0.3365
16772SOL    HW252471   1.311   1.321   0.979 -2.3499 -0.8240 -0.7780
16773SOL     OW52472   4.954   3.943   8.270 -0.1846  0.6282  0.3241
16773SOL    HW152473   4.911   3.901   8.195  0.3243  0.5743  0.0607
16773SOL    HW252474   5.033   3.891   8.285 -1.0348 -0.2702  1.8595
16774SOL     OW52475   6.146   1.168   3.528  0.1282  0.4509 -0.0504
16774SOL    HW152476   6.086   1.100   3.497  0.2100  0.5060 -0.3361
16774SOL    HW252477   6.104   1.204   3.606  0.1849 -0.0669  0.2159
16775SOL     OW52478   1.940   1.058   2.132  0.2597  0.2810  0.1617
16775SOL    HW152479   1.999   1.108   2.075  0.8024  0.0211  0.4976
16775SOL    HW252480   1.907   0.987   2.077  2.6542 -1.4337  0.8072
16776SOL     OW52481   4.907   7.338   2.303 -0.3702  0.4706 -0.6044
16776SOL    HW152482   4.949   7.424   2.314 -0.4649  0.4615 -0.1547
16776SOL    HW252483   4.819   7.350   2.340 -0.9568  0.6360 -2.0147
16777SOL     OW52484   2.590   8.867   8.146  0.1270 -0.1433 -0.3319
16777SOL    HW152485   2.500   8.898   8.149  0.5290  1.2862 -2.0042
16777SOL    HW252486   2.587   8.781   8.189 -1.6318  0.7287  1.4132
16778SOL     OW52487   4.129   5.589   5.427  0.2240  0.1801  0.1931
16778SOL    HW152488   4.056   5.527   5.430 -0.3917  0.8961  0.1703
16778SOL    HW252489   4.106   5.656   5.492  0.8955  0.3649  0.2420
16779SOL     OW52490   9.338   5.196   2.224 -0.2383 -0.5080  0.0869
16779SOL    HW152491   9.297   5.128   2.277 -0.2893 -2.4712 -2.3227
16779SOL    HW252492   9.420   5.215   2.269 -0.4826 -1.7441  1.1078
16780SOL     OW52493   3.025   1.128   5.223  0.1171  0.5879  0.1791
16780SOL    HW152494   2.979   1.070   5.162 -1.6748  0.9588  1.1007
16780SOL    HW252495   3.116   1.099   5.219 -0.3445 -0.8463 -1.0064
16781SOL     OW52496   6.220   5.378   0.273 -0.6510  0.4875 -0.2992
16781SOL    HW152497   6.312   5.378   0.302 -1.2542 -0.4273  1.8346
16781SOL    HW252498   6.223   5.411   0.183  1.7657  0.4519 -0.2979
16782SOL     OW52499   3.474   1.812   0.631 -0.0267 -0.3838  0.8084
16782SOL    HW152500   3.444   1.862   0.707  0.9668 -0.2275  1.1091
16782SOL    HW252501   3.565   1.792   0.650 -0.4489 -2.5524  0.8180
16783SOL     OW52502   2.146   8.507   0.718  0.3589 -0.3236  0.2727
16783SOL    HW152503   2.088   8.449   0.767 -0.6602  0.6295  0.2604
16783SOL    HW252504   2.201   8.549   0.784  0.2113 -0.3626  0.4201
16784SOL     OW52505   6.827   7.499   4.282 -0.8149  0.5487 -0.0638
16784SOL    HW152506   6.889   7.426   4.270 -1.1049  0.3055 -0.1029
16784SOL    HW252507   6.881   7.573   4.309 -0.6258  0.0605  0.9605
16785SOL     OW52508   0.992   4.576   2.395 -0.1544  0.4956 -0.9571
16785SOL    HW152509   0.937   4.515   2.345 -0.7373  0.9202 -0.8435
16785SOL    HW252510   0.985   4.545   2.485  0.1177  0.3082 -1.0007
16786SOL     OW52511   7.735   4.651   0.270  0.1631  0.0266  0.1894
16786SOL    HW152512   7.765   4.718   0.332 -1.4424  0.5217  0.4693
16786SOL    HW252513   7.690   4.701   0.201  1.2574 -0.5785 -1.0128
16787SOL     OW52514   5.634   8.197   9.161 -0.3437 -0.3964 -0.0579
16787SOL    HW152515   5.572   8.202   9.089 -0.2849  0.0995 -0.0795
16787SOL    HW252516   5.720   8.198   9.118 -0.2890  0.7353  0.0421
16788SOL     OW52517   2.193   9.146   1.607 -0.7636 -0.2036 -0.4502
16788SOL    HW152518   2.229   9.160   1.520  0.1636 -0.4266 -0.1120
16788SOL    HW252519   2.214   9.226   1.655 -0.9025 -0.2532 -0.3040
16789SOL     OW52520   2.288   8.507   8.201  0.9253 -0.2312 -0.1223
16789SOL    HW152521   2.338   8.525   8.281 -1.1431 -0.5413  1.3234
16789SOL    HW252522   2.327   8.427   8.166  3.3163  1.1159 -0.7344
16790SOL     OW52523   7.210   2.505   6.265  0.3246  0.4094 -0.5547
16790SOL    HW152524   7.216   2.595   6.234 -0.8962  0.2814 -1.2443
16790SOL    HW252525   7.224   2.452   6.186 -0.1708  0.0267 -0.3912
16791SOL     OW52526   0.848   6.717   3.589  0.2229  0.5140 -0.2613
16791SOL    HW152527   0.886   6.754   3.508 -0.1933 -0.5711 -0.9696
16791SOL    HW252528   0.768   6.674   3.560  1.4630 -2.3273  0.2391
16792SOL     OW52529   3.965   5.056   4.446  0.2996  0.2179  0.0742
16792SOL    HW152530   4.025   4.983   4.461  1.3421  0.8701 -0.8316
16792SOL    HW252531   3.913   5.060   4.527  0.6103 -1.1389  0.3804
16793SOL     OW52532   0.319   9.566   9.534  0.6075 -0.1035 -0.0219
16793SOL    HW152533   0.396   9.603   9.577  1.0614 -0.3860 -0.5770
16793SOL    HW252534   0.353   9.493   9.482 -0.1914 -0.9406  0.6031
16794SOL     OW52535   6.746   2.676   3.240 -0.0322  0.4982 -0.4692
16794SOL    HW152536   6.817   2.740   3.229  0.4496 -0.2889 -2.3144
16794SOL    HW252537   6.753   2.648   3.331  0.6823  1.9660 -0.0333
16795SOL     OW52538   4.946   4.335   0.245 -0.3602  0.2116 -0.2181
16795SOL    HW152539   5.017   4.397   0.262 -0.1257 -0.2234  0.4490
16795SOL    HW252540   4.869   4.390   0.233  0.1369  0.6996 -1.2156
16796SOL     OW52541   3.547   2.131   4.729 -0.3463  0.1229  0.4093
16796SOL    HW152542   3.489   2.076   4.782 -0.0143 -0.4457  0.1870
16796SOL    HW252543   3.583   2.072   4.664  0.7296  0.4059  0.7336
16797SOL     OW52544   4.823   8.209   2.689  0.3444 -0.5143  0.3387
16797SOL    HW152545   4.837   8.261   2.610  0.8038  0.1517  0.8445
16797SOL    HW252546   4.732   8.179   2.682  0.2953 -0.2360 -0.3060
16798SOL     OW52547   2.211   2.557   1.486 -0.4067 -0.2124 -0.2107
16798SOL    HW152548   2.262   2.538   1.565 -0.5540 -0.1123 -0.0919
16798SOL    HW252549   2.222   2.479   1.431  1.8710  0.7572 -1.2562
16799SOL     OW52550   0.291   0.427   9.621  0.1634 -0.4204 -0.1114
16799SOL    HW152551   0.307   0.431   9.715  0.0643 -0.1892 -0.1047
16799SOL    HW252552   0.367   0.379   9.586  1.3084  1.3294 -0.1686
16800SOL     OW52553   4.300   7.956   9.579 -0.0391  0.5269  0.0651
16800SOL    HW152554   4.344   7.982   9.497  1.1243 -0.2346  0.4240
16800SOL    HW252555   4.352   7.884   9.612 -1.1554  0.0892  0.9254
16801SOL     OW52556   9.486   3.409   8.817 -0.6737 -0.2136  0.2222
16801SOL    HW152557   9.447   3.497   8.818  0.3181  0.2438  1.3067
16801SOL    HW252558   9.501   3.391   8.724  0.2865  1.3299  0.0264
16802SOL     OW52559   8.516   5.126   3.101 -0.1347 -0.4989 -0.2757
16802SOL    HW152560   8.563   5.104   3.021 -1.0663 -0.5958 -0.8217
16802SOL    HW252561   8.500   5.221   3.095 -0.4923 -0.5612 -0.3787
16803SOL     OW52562   5.920   1.546   1.113 -0.6259 -0.2379  0.1012
16803SOL    HW152563   5.966   1.493   1.047 -0.2977 -1.0441  0.9567
16803SOL    HW252564   5.960   1.632   1.107 -0.2258 -0.4511 -0.3784
16804SOL     OW52565   9.627   3.950   1.090  0.2604  0.4385 -0.2478
16804SOL    HW152566   9.716   3.930   1.119 -0.0711 -0.1588  0.4166
16804SOL    HW252567   9.587   3.864   1.074 -0.1706  0.7014 -0.6103
16805SOL     OW52568   1.220   7.795   2.102  0.0022  0.0885 -0.0738
16805SOL    HW152569   1.212   7.860   2.172  0.9787  0.0875  0.0468
16805SOL    HW252570   1.186   7.714   2.140  3.2843 -0.7049  1.5151
16806SOL     OW52571   7.764   8.826   9.363 -0.0968  0.5324 -0.1040
16806SOL    HW152572   7.781   8.742   9.321 -0.4565  0.6082 -0.3976
16806SOL    HW252573   7.836   8.882   9.333  1.3841 -0.2541  1.7753
16807SOL     OW52574   5.780   0.876   5.696 -0.0184  0.0271 -0.1966
16807SOL    HW152575   5.735   0.910   5.619 -1.0603 -1.7606 -0.4241
16807SOL    HW252576   5.853   0.825   5.660 -0.9497 -1.4483 -0.0998
16808SOL     OW52577   5.719   5.843   1.961 -0.0652 -0.1500 -0.1947
16808SOL    HW152578   5.690   5.934   1.951 -0.5658 -0.1614  0.9818
16808SOL    HW252579   5.696   5.801   1.878 -3.0603 -0.0458  0.4857
16809SOL     OW52580   3.472   7.929   7.154 -0.1525  0.3475 -0.7414
16809SOL    HW152581   3.383   7.897   7.139 -0.4878  0.6880  0.4270
16809SOL    HW252582   3.461   8.020   7.181  0.4485  0.0033  0.7292
16810SOL     OW52583   1.857   4.997   1.617  0.0569  0.2156  0.7678
16810SOL    HW152584   1.822   4.913   1.647 -2.9373  1.1180  0.1644
16810SOL    HW252585   1.885   4.981   1.527 -1.7243  0.0865  0.1961
16811SOL     OW52586   0.316   0.028   3.750 -0.6219 -0.5252  0.1429
16811SOL    HW152587   0.396   0.079   3.736 -0.2121 -0.6768  1.7398
16811SOL    HW252588   0.304  -0.022   3.669 -0.2477  1.0203 -0.9105
16812SOL     OW52589   0.083   3.839   8.183  1.1537  0.4012  0.1427
16812SOL    HW152590   0.062   3.930   8.202  1.2292  0.5612 -0.5425
16812SOL    HW252591   0.003   3.791   8.205  0.9277  0.6964 -0.0338
16813SOL     OW52592   9.594   2.299   2.729  0.1352 -0.4031  0.5061
16813SOL    HW152593   9.553   2.233   2.674 -1.1504  1.8846 -1.4980
16813SOL    HW252594   9.529   2.321   2.795 -0.0476 -0.1048  0.2322
16814SOL     OW52595   4.062   0.785   6.846  0.2418  0.0757 -0.6069
16814SOL    HW152596   4.032   0.854   6.905 -1.7329 -0.9027 -0.4006
16814SOL    HW252597   4.101   0.832   6.772  3.4015  1.3476  1.6376
16815SOL     OW52598   7.629   1.845   5.365 -0.1996 -0.0535  0.0605
16815SOL    HW152599   7.566   1.910   5.396 -1.1447 -0.2599 -1.3734
16815SOL    HW252600   7.630   1.855   5.270  1.4543 -0.5068  0.0044
16816SOL     OW52601   3.388   4.768   8.988  0.5172 -0.1563 -0.2134
16816SOL    HW152602   3.382   4.689   9.041  0.4496 -0.3375 -0.4825
16816SOL    HW252603   3.302   4.810   8.998  1.0564  0.6626  1.1036
16817SOL     OW52604   3.604   5.956   1.241  1.0718  0.0348  0.7012
16817SOL    HW152605   3.543   5.909   1.185  0.6152 -0.1857  1.3667
16817SOL    HW252606   3.666   5.889   1.270  1.5088  0.2156  0.1974
16818SOL     OW52607   5.410   9.396   5.703  0.5152 -0.1324  0.0389
16818SOL    HW152608   5.357   9.380   5.781 -0.9899  2.1854 -0.4406
16818SOL    HW252609   5.412   9.311   5.659 -1.0790 -0.7873  1.1201
16819SOL     OW52610   0.771   0.448   3.133  0.3923 -0.0562 -0.2050
16819SOL    HW152611   0.779   0.386   3.206  0.7898  0.6091  0.3223
16819SOL    HW252612   0.695   0.416   3.084  1.9868 -2.3741 -1.3363
16820SOL     OW52613   2.193   2.859   6.684 -0.2696 -0.2767  0.7033
16820SOL    HW152614   2.119   2.813   6.644 -0.7806  1.9962 -1.2264
16820SOL    HW252615   2.269   2.807   6.660 -1.0203 -1.5006  0.8707
16821SOL     OW52616   0.315   1.936   2.056  0.3169 -0.0941 -0.0215
16821SOL    HW152617   0.311   1.905   2.146 -0.0899 -0.6741 -0.2323
16821SOL    HW252618   0.389   1.888   2.017  1.8743  1.7208  0.5677
16822SOL     OW52619   7.440   0.868   5.556  0.0315 -0.4623 -0.3089
16822SOL    HW152620   7.438   0.938   5.621 -1.0749 -1.0964  0.3807
16822SOL    HW252621   7.531   0.864   5.527  0.8429 -0.9358  2.0839
16823SOL     OW52622   7.903   3.820   9.427  0.1730  0.5263  0.3281
16823SOL    HW152623   7.836   3.805   9.360  0.6176  0.4230 -0.0960
16823SOL    HW252624   7.931   3.732   9.453  0.0389  0.5665  0.6204
16824SOL     OW52625   6.536   6.188   6.208  0.0144  0.3863  0.4564
16824SOL    HW152626   6.622   6.171   6.248 -0.6581  1.2627  2.4207
16824SOL    HW252627   6.554   6.249   6.137  1.2066 -0.8007 -0.3067
16825SOL     OW52628   5.871   8.194   1.983 -0.1873  0.2461 -0.5741
16825SOL    HW152629   5.778   8.186   2.007 -0.2139 -0.0811 -0.7884
16825SOL    HW252630   5.881   8.286   1.960 -0.5890  0.1666 -1.0872
16826SOL     OW52631   5.201   5.530   8.314  0.1920 -0.5043  0.3123
16826SOL    HW152632   5.221   5.605   8.371 -0.3706 -0.3097  0.2581
16826SOL    HW252633   5.194   5.456   8.374  2.3046 -0.8367  0.2177
16827SOL     OW52634   5.757   8.094   9.425  0.0952 -0.6247 -0.0038
16827SOL    HW152635   5.784   8.067   9.337 -2.2215 -0.0535 -0.9627
16827SOL    HW252636   5.812   8.042   9.484  1.9561 -0.7815 -1.7449
16828SOL     OW52637   6.764   2.247   8.792  0.3629  0.1889 -0.0649
16828SOL    HW152638   6.851   2.254   8.830  0.2633  0.2983  0.1473
16828SOL    HW252639   6.747   2.153   8.788  0.2405  0.1809  0.4809
16829SOL     OW52640   4.826   4.110   1.508 -0.3707  0.3089 -0.0514
16829SOL    HW152641   4.875   4.047   1.561 -0.8462 -0.5024 -0.5520
16829SOL    HW252642   4.854   4.092   1.418 -1.7212 -0.3166 -0.3710
16830SOL     OW52643   4.593   8.285   0.896 -0.0944  0.2213  0.1641
16830SOL    HW152644   4.673   8.234   0.882 -0.0371  0.5102 -0.5946
16830SOL    HW252645   4.555   8.294   0.809 -0.3392  1.0928  0.3539
16831SOL     OW52646   6.850   7.268   7.676  0.4306 -0.3388 -0.1931
16831SOL    HW152647   6.805   7.263   7.591  0.2204  0.0247 -0.1049
16831SOL    HW252648   6.932   7.315   7.657 -0.8109  2.1978  0.2656
16832SOL     OW52649   9.406   5.399   7.136  0.6770  0.2991  0.4982
16832SOL    HW152650   9.359   5.317   7.148  1.9512 -0.4467  0.6216
16832SOL    HW252651   9.341   5.467   7.153 -0.0305 -0.6908  1.9621
16833SOL     OW52652   1.664   6.183   8.366  0.3095 -0.3420  0.1622
16833SOL    HW152653   1.691   6.259   8.419 -0.7050 -0.1878  0.4752
16833SOL    HW252654   1.574   6.203   8.341  0.8613 -0.2353 -1.9486
16834SOL     OW52655   2.665   6.674   6.596 -0.6319 -0.0296 -0.0111
16834SOL    HW152656   2.612   6.743   6.637 -0.7737  0.9695 -1.7895
16834SOL    HW252657   2.618   6.593   6.617 -2.1926  0.7041 -0.4785
16835SOL     OW52658   1.355   7.143   8.907 -0.3797  0.2803  0.2604
16835SOL    HW152659   1.377   7.052   8.922  0.5043  0.5597  0.6997
16835SOL    HW252660   1.315   7.144   8.819  0.5038 -0.3785 -0.1601
16836SOL     OW52661   7.181   3.788   2.653 -0.3922 -0.2686  0.5240
16836SOL    HW152662   7.090   3.794   2.681 -0.4288  2.4863  0.1109
16836SOL    HW252663   7.180   3.809   2.560  0.8600  2.6968  1.0722
16837SOL     OW52664   3.435   1.717   7.069  0.0101 -0.2644 -0.5397
16837SOL    HW152665   3.441   1.804   7.028 -0.6522 -0.4154 -0.9607
16837SOL    HW252666   3.526   1.687   7.073  0.2356  0.3985 -0.4957
16838SOL     OW52667   2.153   5.255   6.455 -0.0488  0.0789 -0.1608
16838SOL    HW152668   2.241   5.252   6.418 -0.2506 -1.4626 -0.5878
16838SOL    HW252669   2.138   5.347   6.476  1.8956  0.2754  0.5047
16839SOL     OW52670   1.755   4.459   0.675 -0.3104 -0.6106 -0.2922
16839SOL    HW152671   1.836   4.482   0.630 -0.2741 -0.6916 -0.2694
16839SOL    HW252672   1.779   4.384   0.730 -0.1834 -0.0853  0.3812
16840SOL     OW52673   4.383   4.451   2.548  0.4613 -0.8009 -0.1985
16840SOL    HW152674   4.391   4.546   2.544  2.1705 -0.8886  0.3947
16840SOL    HW252675   4.294   4.433   2.515  0.0195  0.9919 -0.0907
16841SOL     OW52676   8.568   0.722   4.280  0.4453  0.2058  0.2187
16841SOL    HW152677   8.561   0.632   4.249  2.6569  0.1041 -0.2123
16841SOL    HW252678   8.517   0.773   4.217 -1.1439 -0.7444  0.6842
16842SOL     OW52679   8.046   8.311   5.251  0.5011 -0.0452  0.1061
16842SOL    HW152680   8.052   8.372   5.325 -1.5411 -0.9816  1.0969
16842SOL    HW252681   8.065   8.225   5.288  0.7679 -0.3722 -0.7524
16843SOL     OW52682   0.081   9.117   7.896 -0.3360 -0.8217 -0.4978
16843SOL    HW152683   0.164   9.145   7.936 -0.4890 -1.5415  0.3467
16843SOL    HW252684   0.027   9.196   7.897 -0.1967 -0.7249  0.3812
16844SOL     OW52685   3.434   7.831   2.420  0.0182 -0.2417 -0.3452
16844SOL    HW152686   3.454   7.891   2.492 -3.8936  0.7151  0.1914
16844SOL    HW252687   3.407   7.750   2.464  1.7307 -1.1998 -0.9634
16845SOL     OW52688   5.895   3.980   2.957 -0.1975  0.3876  0.1493
16845SOL    HW152689   5.827   3.988   3.023 -0.7833  2.3605 -0.6201
16845SOL    HW252690   5.972   4.022   2.997  0.0438 -0.2174  0.3288
16846SOL     OW52691   3.085   1.090   0.389 -0.1078 -0.1546 -0.2850
16846SOL    HW152692   3.174   1.072   0.421  0.0112 -1.1079 -1.0939
16846SOL    HW252693   3.042   1.135   0.461  0.2637 -1.9042  1.0933
16847SOL     OW52694   4.711   7.970   2.205  0.3412 -0.4571 -0.2042
16847SOL    HW152695   4.737   7.904   2.270  0.4521  0.7055  0.9916
16847SOL    HW252696   4.639   7.930   2.158  0.5404 -1.5185  0.3373
16848SOL     OW52697   1.339   1.747   4.272 -0.0336  0.3720  0.3722
16848SOL    HW152698   1.300   1.830   4.247 -0.3700 -0.4894 -2.3127
16848SOL    HW252699   1.282   1.681   4.232  0.3197 -1.1837  2.2673
16849SOL     OW52700   2.870   6.180   6.048 -0.4448  0.0859 -0.5992
16849SOL    HW152701   2.915   6.179   5.964 -2.2327 -1.1152 -1.6286
16849SOL    HW252702   2.940   6.175   6.113  0.9802  0.8259 -1.9992
16850SOL     OW52703   1.136   3.676   1.984 -0.0071 -0.3425 -0.0778
16850SOL    HW152704   1.123   3.630   1.901  1.0742  0.8111 -0.9190
16850SOL    HW252705   1.224   3.712   1.979 -0.8608  2.0309  0.4034
16851SOL     OW52706   9.277   6.640   2.722  0.3098  0.5079  0.3400
16851SOL    HW152707   9.243   6.692   2.650 -0.9485  1.3839  1.5106
16851SOL    HW252708   9.373   6.643   2.711  0.1711  1.2528 -0.8241
16852SOL     OW52709   4.905   6.281   0.488  0.6415  0.7961  0.2400
16852SOL    HW152710   4.974   6.348   0.493  1.7711 -0.3349  0.4517
16852SOL    HW252711   4.937   6.211   0.545 -0.5442  0.0963  0.0656
16853SOL     OW52712   4.055   7.843   4.395 -0.0186 -0.2051 -0.2455
16853SOL    HW152713   4.030   7.914   4.337  0.5509 -0.4943 -0.8531
16853SOL    HW252714   4.074   7.769   4.337  2.0212 -0.0638  0.1809
16854SOL     OW52715   6.101   1.259   1.632 -0.4105 -0.7180 -0.3186
16854SOL    HW152716   6.047   1.267   1.710 -2.3726 -2.0118 -1.4556
16854SOL    HW252717   6.190   1.273   1.663 -1.2499  0.4403  1.8363
16855SOL     OW52718   0.544   2.943   7.894 -0.3437 -0.7196  0.1512
16855SOL    HW152719   0.565   2.959   7.802 -0.5517 -1.3558 -0.0128
16855SOL    HW252720   0.497   2.859   7.894  0.2800 -1.0844  0.9173
16856SOL     OW52721   1.328   9.323   2.621  0.3379 -0.3819  0.1216
16856SOL    HW152722   1.308   9.338   2.529 -1.9193  2.3006  0.9109
16856SOL    HW252723   1.243   9.304   2.661  0.7930  1.1966  2.0280
16857SOL     OW52724   2.695   3.910   1.455  0.6308  0.0107  0.1122
16857SOL    HW152725   2.757   3.979   1.434  0.3843  0.5340  0.9989
16857SOL    HW252726   2.683   3.917   1.550 -2.8098  1.7553 -0.2620
16858SOL     OW52727   5.155   0.541   8.318 -0.4978  1.3875  0.2068
16858SOL    HW152728   5.171   0.636   8.319  0.9555  1.1527  0.1336
16858SOL    HW252729   5.236   0.502   8.351 -0.5353  0.0973 -1.1244
16859SOL     OW52730   6.917   2.954   7.016 -0.2950 -0.3181 -0.8216
16859SOL    HW152731   6.860   2.887   6.979 -1.3154 -0.7678  1.4208
16859SOL    HW252732   6.868   3.036   7.006 -1.1589 -0.6284  0.6311
16860SOL     OW52733   8.173   6.972   1.395 -0.4815  0.6633  0.6689
16860SOL    HW152734   8.163   6.969   1.490  1.5090  1.7649  0.9705
16860SOL    HW252735   8.223   7.053   1.378  0.9213 -0.4881 -1.1119
16861SOL     OW52736   5.215   3.076   1.783 -0.3112  0.3137  1.0039
16861SOL    HW152737   5.247   2.999   1.830 -0.1960 -0.0163  0.4070
16861SOL    HW252738   5.198   3.043   1.694  2.0893  1.4723  0.0062
16862SOL     OW52739   0.525   2.855   9.038 -0.2936 -0.3366  0.4929
16862SOL    HW152740   0.445   2.806   9.018  0.3445 -0.4153 -2.2650
16862SOL    HW252741   0.515   2.938   8.992  1.2625 -0.4201 -0.0515
16863SOL     OW52742   4.230   1.090   5.275  0.1658  0.0353  0.1964
16863SOL    HW152743   4.279   1.023   5.322 -0.7143 -0.2649  0.7256
16863SOL    HW252744   4.266   1.090   5.187 -1.7411 -3.3012 -0.7613
16864SOL     OW52745   4.219   3.733   2.265  0.0868  0.6022 -0.0282
16864SOL    HW152746   4.257   3.655   2.305  0.9187  1.0597  0.0972
16864SOL    HW252747   4.274   3.805   2.297  0.1361  1.0892 -1.1666
16865SOL     OW52748   5.735   8.979   4.068 -0.2233  0.0831 -0.0766
16865SOL    HW152749   5.793   8.992   4.143 -0.5371  1.4678 -0.0494
16865SOL    HW252750   5.732   9.065   4.025  0.3275 -0.7862 -1.9576
16866SOL     OW52751   8.822   4.811   7.226  0.7366  0.4206 -0.7268
16866SOL    HW152752   8.841   4.903   7.243 -2.1374  0.9086  0.5579
16866SOL    HW252753   8.832   4.801   7.132  0.7441  2.1540 -0.9458
16867SOL     OW52754   8.241   1.362   4.055 -0.0537 -0.3211 -0.4346
16867SOL    HW152755   8.285   1.436   4.098 -2.8055  1.5375 -0.5311
16867SOL    HW252756   8.250   1.290   4.117  1.8188  0.3398  0.1542
16868SOL     OW52757   3.797   2.425   8.933 -0.3643 -0.2773  0.0069
16868SOL    HW152758   3.855   2.439   9.008  0.8822  0.2885 -1.0207
16868SOL    HW252759   3.755   2.341   8.951  0.3862 -0.4564  1.0474
16869SOL     OW52760   5.123   7.228   1.378  0.2680 -0.2000  0.3441
16869SOL    HW152761   5.185   7.193   1.442  0.8276 -1.9705 -1.0870
16869SOL    HW252762   5.038   7.194   1.405  0.4342 -0.5623  0.4151
16870SOL     OW52763   0.331   8.478   5.856 -0.3397  0.1506  0.1437
16870SOL    HW152764   0.303   8.452   5.944 -1.2360  0.8738  0.0861
16870SOL    HW252765   0.423   8.454   5.851 -0.9512 -2.5431  0.2859
16871SOL     OW52766   3.251   2.238   1.491  0.2845  0.0864  0.0629
16871SOL    HW152767   3.192   2.269   1.560 -1.0133 -0.1942 -0.8768
16871SOL    HW252768   3.334   2.221   1.536 -0.3242  0.5655  1.4168
16872SOL     OW52769   3.815   8.275   5.353 -0.1037 -0.2197 -0.0907
16872SOL    HW152770   3.851   8.322   5.278 -0.9502  0.6427  0.0324
16872SOL    HW252771   3.721   8.291   5.349 -0.1007  0.4128  1.5324
16873SOL     OW52772   4.302   4.483   9.095 -0.0505 -0.3046 -0.6443
16873SOL    HW152773   4.323   4.406   9.043  1.0738  0.3079 -1.1249
16873SOL    HW252774   4.208   4.476   9.111 -0.4979 -0.4141 -2.9516
16874SOL     OW52775   2.048   7.554   4.527 -0.0062  0.3758 -0.7619
16874SOL    HW152776   2.061   7.481   4.586 -2.1470  1.2202  0.8971
16874SOL    HW252777   1.997   7.518   4.454 -1.1543  0.2168  0.1062
16875SOL     OW52778   0.286   9.081   0.555  0.4401 -0.0038 -0.0373
16875SOL    HW152779   0.379   9.081   0.578  0.6379 -0.8306 -0.7618
16875SOL    HW252780   0.283   9.038   0.469 -0.5686  0.4006 -0.2153
16876SOL     OW52781   8.821   3.730   6.746 -0.3255  0.8147 -0.3524
16876SOL    HW152782   8.873   3.666   6.698  0.8352  2.1865 -1.0103
16876SOL    HW252783   8.807   3.801   6.684 -0.8017  1.5893  0.6140
16877SOL     OW52784   9.556   1.087   3.091 -0.3041  0.2321  0.1899
16877SOL    HW152785   9.639   1.108   3.133 -0.5536 -1.4330  1.6513
16877SOL    HW252786   9.537   1.163   3.035  1.4531  1.2877  0.9408
16878SOL     OW52787   7.887   0.065   9.372  0.3375 -0.3706 -0.1916
16878SOL    HW152788   7.939   0.004   9.320  0.5840  2.1735 -3.2090
16878SOL    HW252789   7.797   0.049   9.345  0.3629  0.2816 -0.6827
16879SOL     OW52790   9.302   4.578   4.926 -0.5535 -0.0936  0.2531
16879SOL    HW152791   9.327   4.613   5.011  0.5491 -1.4346  0.5257
16879SOL    HW252792   9.361   4.621   4.864  0.3202 -0.8899  0.5004
16880SOL     OW52793   4.390   4.761   2.752  0.6796  0.3882  0.1655
16880SOL    HW152794   4.354   4.739   2.666  0.2154 -0.1841  0.5012
16880SOL    HW252795   4.366   4.853   2.765 -1.7924 -0.3022  0.9151
16881SOL     OW52796   0.045   7.570   1.610  0.6848 -0.2664  0.7424
16881SOL    HW152797   0.108   7.629   1.569 -0.1659  0.8661  1.0224
16881SOL    HW252798   0.013   7.618   1.687 -0.9208 -0.5532  0.2986
16882SOL     OW52799   4.301   8.009   4.871 -0.1060  0.7042  0.1706
16882SOL    HW152800   4.350   7.982   4.949  0.7234 -1.8476 -1.1006
16882SOL    HW252801   4.233   8.068   4.904  0.7396  0.3797  2.6847
16883SOL     OW52802   7.195   3.356   6.523 -0.2935 -0.1699  0.3955
16883SOL    HW152803   7.132   3.350   6.595  0.3188 -0.7028  0.9079
16883SOL    HW252804   7.230   3.267   6.514  0.5306  0.1546  0.2733
16884SOL     OW52805   1.685   1.864   5.430 -0.2114  0.3948  0.1794
16884SOL    HW152806   1.665   1.845   5.339 -0.9084 -2.9843  0.9279
16884SOL    HW252807   1.600   1.877   5.472 -0.2408 -2.1058  1.0483
16885SOL     OW52808   5.904   1.570   4.769  0.5480  0.2664 -0.0341
16885SOL    HW152809   5.832   1.508   4.755  1.5511 -0.3976 -2.8415
16885SOL    HW252810   5.878   1.648   4.721  1.0791  0.5470  0.1323
16886SOL     OW52811   7.201   0.083   5.826 -0.5289  0.4541  0.1399
16886SOL    HW152812   7.280   0.134   5.843  0.9876 -1.4767 -0.8167
16886SOL    HW252813   7.227   0.019   5.760 -2.7006 -0.7360  0.3519
16887SOL     OW52814   5.253   2.253   8.879  0.5110 -0.3635 -0.3721
16887SOL    HW152815   5.232   2.174   8.829  1.5898  0.1807 -1.7492
16887SOL    HW252816   5.324   2.226   8.936 -0.0395 -0.7222  0.1628
16888SOL     OW52817   2.343   1.878   5.014 -0.5740  0.0126 -0.0982
16888SOL    HW152818   2.319   1.791   4.981  1.4992 -0.3297 -0.8176
16888SOL    HW252819   2.411   1.909   4.954 -0.4844  1.6724  0.8004
16889SOL     OW52820   6.520   5.350   9.596 -0.5246  0.4997  0.1085
16889SOL    HW152821   6.549   5.290   9.665  0.1253  1.1000  0.3700
16889SOL    HW252822   6.446   5.397   9.635  0.2867  1.3393  0.6701
16890SOL     OW52823   4.434   0.049   8.033  0.0046 -0.1896  0.7067
16890SOL    HW152824   4.450  -0.030   7.982  0.4314 -0.6631  1.5518
16890SOL    HW252825   4.341   0.046   8.055 -0.9224  1.4453 -2.3544
16891SOL     OW52826   1.751   3.564   2.474  0.1695 -0.0612 -0.3705
16891SOL    HW152827   1.776   3.620   2.548  0.3437 -1.5040  0.7252
16891SOL    HW252828   1.736   3.624   2.402  0.7812  1.3488  0.6280
16892SOL     OW52829   7.798   1.750   7.505  0.1817 -0.4861  0.7023
16892SOL    HW152830   7.787   1.817   7.437 -0.7629 -1.2255  0.1005
16892SOL    HW252831   7.843   1.795   7.576  1.5435  0.2238 -0.5585
16893SOL     OW52832   8.254   9.616   9.407  0.3018 -0.0433 -0.5510
16893SOL    HW152833   8.250   9.710   9.392 -1.3792  0.1000  0.5560
16893SOL    HW252834   8.216   9.577   9.328  0.6106  0.2118 -0.8294
16894SOL     OW52835   1.446   0.785   7.926 -0.1301  0.2894 -0.2871
16894SOL    HW152836   1.424   0.855   7.988  1.3188 -0.0428  0.6538
16894SOL    HW252837   1.538   0.765   7.944 -0.0416 -0.7173 -1.6836
16895SOL     OW52838   1.338   1.537   4.449 -0.3220  0.1073  0.4097
16895SOL    HW152839   1.359   1.616   4.399 -0.5187 -0.4314 -0.5469
16895SOL    HW252840   1.243   1.526   4.436 -0.1120 -0.8871 -0.3825
16896SOL     OW52841   6.685   1.804   0.779 -0.1021 -0.1157  0.2870
16896SOL    HW152842   6.746   1.734   0.756  0.4477  0.8776 -1.5440
16896SOL    HW252843   6.649   1.833   0.694 -0.7945  1.3747  1.0441
16897SOL     OW52844   9.014   7.181   3.512 -0.1580  0.5541  0.6291
16897SOL    HW152845   9.031   7.263   3.466  0.7145  0.4644  0.7869
16897SOL    HW252846   8.938   7.201   3.568  0.1245  1.2958  0.7630
16898SOL     OW52847   6.279   1.014   7.461  0.2763  0.1162  0.1437
16898SOL    HW152848   6.259   0.952   7.391  2.7647  0.3924 -0.9430
16898SOL    HW252849   6.199   1.065   7.472 -0.5810 -0.7505 -1.6562
16899SOL     OW52850   7.341   8.943   2.979 -0.3889 -0.0995  0.8665
16899SOL    HW152851   7.405   8.911   2.914 -2.1505 -0.9332 -0.5432
16899SOL    HW252852   7.336   9.037   2.962  0.1279 -0.0949  0.7025
16900SOL     OW52853   8.767   9.042   8.292  0.6975 -0.1908 -0.0790
16900SOL    HW152854   8.788   8.996   8.211 -1.3480  1.6241 -1.7923
16900SOL    HW252855   8.789   9.133   8.274  0.1354  0.2739  1.3890
16901SOL     OW52856   0.068   4.316   8.314 -0.1877 -0.3224  0.2556
16901SOL    HW152857   0.099   4.335   8.225  0.3724 -0.2383  0.4611
16901SOL    HW252858   0.115   4.378   8.370 -0.9797  0.0215  0.5506
16902SOL     OW52859   8.754   7.679   0.256 -0.0373 -0.2732  0.1635
16902SOL    HW152860   8.793   7.701   0.172 -2.4295  0.2434 -0.8856
16902SOL    HW252861   8.762   7.758   0.308  0.6778 -0.3156  0.1224
16903SOL     OW52862   8.714   0.217   9.624  0.4737  0.9922  0.4794
16903SOL    HW152863   8.774   0.288   9.647  2.2062 -0.1415 -0.3212
16903SOL    HW252864   8.758   0.137   9.653 -0.3577  0.0650 -0.6576
16904SOL     OW52865   6.911   7.150   1.030 -0.2406 -0.6710 -0.2537
16904SOL    HW152866   6.891   7.237   1.065  0.2469  0.2993 -2.2004
16904SOL    HW252867   6.881   7.089   1.097 -4.4486  0.8253 -0.4726
16905SOL     OW52868   2.081   3.382   5.142  0.1612  0.6491  0.3783
16905SOL    HW152869   2.022   3.457   5.134  0.6361  0.9080 -0.8981
16905SOL    HW252870   2.165   3.420   5.170  0.2095  0.5070  0.4307
16906SOL     OW52871   4.671   6.026   0.051  0.4370 -0.1088 -0.5586
16906SOL    HW152872   4.671   5.972   0.130  0.3663 -0.5022 -0.8227
16906SOL    HW252873   4.589   6.003   0.007  0.5048  0.0659 -0.7789
16907SOL     OW52874   8.940   8.188   6.145 -0.0755  0.1928 -0.0247
16907SOL    HW152875   8.964   8.112   6.093  1.5699 -1.1763  2.4976
16907SOL    HW252876   8.981   8.262   6.101  0.9915 -0.8391 -0.8285
16908SOL     OW52877   5.831   5.892   4.561 -0.1317 -0.2459  0.4938
16908SOL    HW152878   5.840   5.825   4.628 -1.9906 -0.7920  0.2624
16908SOL    HW252879   5.742   5.881   4.528 -0.0214  1.4649 -0.5047
16909SOL     OW52880   0.626   2.762   0.353 -0.6405  0.4288  0.2166
16909SOL    HW152881   0.533   2.740   0.345 -0.8495  1.7887 -2.5634
16909SOL    HW252882   0.626   2.853   0.384 -0.5722  1.8709 -3.4517
16910SOL     OW52883   2.322   8.710   4.823  0.2815 -0.1658  0.1723
16910SOL    HW152884   2.330   8.618   4.849 -0.1129  0.2107  1.7185
16910SOL    HW252885   2.412   8.742   4.822  0.6356 -0.9892 -2.2204
16911SOL     OW52886   2.167   6.393   0.661  0.3645  0.1836  0.3564
16911SOL    HW152887   2.135   6.335   0.730 -0.5899  0.2214 -0.0483
16911SOL    HW252888   2.121   6.365   0.582 -1.0620  2.2349  0.3692
16912SOL     OW52889   3.216   5.868   8.638 -0.0653 -0.2491 -0.2008
16912SOL    HW152890   3.271   5.790   8.649 -0.6191 -0.4148  2.1062
16912SOL    HW252891   3.136   5.846   8.687 -1.0640  1.0057 -1.2275
16913SOL     OW52892   2.984   5.066   8.085 -0.0044  0.1714  0.2472
16913SOL    HW152893   2.982   4.972   8.101  0.2868  0.0997 -0.1300
16913SOL    HW252894   2.918   5.081   8.018  1.7090 -0.1532 -1.6250
16914SOL     OW52895   9.535   1.234   0.035  0.1905  0.3561  0.1153
16914SOL    HW152896   9.499   1.203   0.117  2.3417 -1.9136  0.3365
16914SOL    HW252897   9.470   1.211  -0.031  0.7375 -2.9964  0.5661
16915SOL     OW52898   4.096   4.556   4.185  0.4712 -0.5669 -0.0186
16915SOL    HW152899   4.017   4.502   4.192 -0.1124  0.2084 -0.5154
16915SOL    HW252900   4.113   4.562   4.091  1.0168 -0.5645  0.0725
16916SOL     OW52901   9.104   1.796   1.326 -0.2927 -0.7056  0.0341
16916SOL    HW152902   9.045   1.721   1.324 -2.5126  0.9629 -0.8945
16916SOL    HW252903   9.130   1.809   1.235 -0.9569  0.3701 -0.0272
16917SOL     OW52904   5.177   3.278   9.402 -0.3201  0.3014 -0.0993
16917SOL    HW152905   5.165   3.372   9.419 -1.4394  0.3395 -0.9921
16917SOL    HW252906   5.102   3.237   9.443 -0.6924 -0.0376 -1.1011
16918SOL     OW52907   8.292   0.645   2.606 -0.1498 -0.9469  0.6763
16918SOL    HW152908   8.376   0.662   2.564  0.1614  1.0622  1.9834
16918SOL    HW252909   8.240   0.724   2.590 -0.4952 -0.6617  2.8310
16919SOL     OW52910   1.521   6.515   5.213 -0.3469  0.1749 -0.5940
16919SOL    HW152911   1.562   6.536   5.129 -0.8014  0.1501 -0.8218
16919SOL    HW252912   1.427   6.520   5.196 -0.4400  0.4708 -0.0128
16920SOL     OW52913   5.225   5.075   6.721 -0.4821 -0.4799 -0.2041
16920SOL    HW152914   5.172   5.064   6.800 -0.9603  1.2580 -0.2396
16920SOL    HW252915   5.170   5.041   6.651 -1.5186  1.1078 -0.2109
16921SOL     OW52916   8.587   4.119   4.694 -0.1656  0.6078  0.0322
16921SOL    HW152917   8.524   4.170   4.745  0.5385  1.3285  0.2113
16921SOL    HW252918   8.661   4.107   4.753  0.3391  0.7763 -0.5575
16922SOL     OW52919   8.584   4.511   4.747 -0.5077  0.5003 -0.0068
16922SOL    HW152920   8.576   4.573   4.674  0.1375 -0.5398 -0.9946
16922SOL    HW252921   8.675   4.483   4.744 -0.5366  0.2654  1.0801
16923SOL     OW52922   4.410   6.173   2.744 -0.9041 -0.4284 -0.0633
16923SOL    HW152923   4.452   6.091   2.770 -0.2743  0.0257  0.3885
16923SOL    HW252924   4.407   6.169   2.648  2.4555  0.5522 -0.3551
16924SOL     OW52925   6.999   3.773   3.333 -0.3642 -0.3757  0.3770
16924SOL    HW152926   6.908   3.800   3.323  0.1359  1.7551  1.0342
16924SOL    HW252927   7.003   3.687   3.292 -2.0916  0.6005 -2.1059
16925SOL     OW52928   1.617   9.363   9.454 -0.0586  0.1525  0.3102
16925SOL    HW152929   1.569   9.362   9.371  1.4337 -0.5094 -0.5882
16925SOL    HW252930   1.709   9.367   9.428  0.4053  1.0903  1.9729
16926SOL     OW52931   8.413   0.333   3.027  0.6685  0.0041  0.6884
16926SOL    HW152932   8.402   0.383   3.108  0.0952 -0.0802  0.6633
16926SOL    HW252933   8.502   0.299   3.032  0.9582  0.7703  0.8530
16927SOL     OW52934   7.304   6.100   9.220  0.3125  0.0264  0.4020
16927SOL    HW152935   7.339   6.182   9.255 -0.1245  0.6976 -0.6817
16927SOL    HW252936   7.372   6.067   9.161  0.6679 -0.6317  1.1606
16928SOL     OW52937   5.032   0.125   9.291 -0.1661 -0.4095  0.2349
16928SOL    HW152938   5.041   0.149   9.199  1.0805 -1.4093  0.0676
16928SOL    HW252939   5.042   0.208   9.339 -0.2735  0.0307 -0.4974
16929SOL     OW52940   7.591   3.589   3.215  0.4217  0.1165 -0.2799
16929SOL    HW152941   7.498   3.589   3.236  0.1784 -0.5470 -1.2719
16929SOL    HW252942   7.624   3.507   3.252  0.5590  0.2221 -0.1659
16930SOL     OW52943   8.605   5.068   5.298 -0.7314  0.0200  0.0869
16930SOL    HW152944   8.554   4.987   5.286  0.8169 -0.9248 -0.3760
16930SOL    HW252945   8.633   5.091   5.209  1.1501 -0.5167  0.4982
16931SOL     OW52946   6.675   4.103   6.965  0.1413  0.1031 -0.3909
16931SOL    HW152947   6.594   4.100   6.914 -0.8410 -1.3902  1.1183
16931SOL    HW252948   6.742   4.067   6.907 -0.5797  0.0221 -1.1806
16932SOL     OW52949   0.796   1.859   7.639 -0.2231  0.3191  0.0616
16932SOL    HW152950   0.849   1.938   7.629 -0.7220  0.8549  1.4939
16932SOL    HW252951   0.752   1.869   7.723 -0.1763 -1.5572  0.3544
16933SOL     OW52952   7.388   1.075   5.802  0.7317 -0.5037 -0.2751
16933SOL    HW152953   7.356   1.162   5.827 -0.7476 -0.9416 -0.5718
16933SOL    HW252954   7.339   1.014   5.857  1.6074 -1.1852 -0.2167
16934SOL     OW52955   3.849   9.354   6.283  0.0853 -0.3616  0.7256
16934SOL    HW152956   3.835   9.446   6.304 -0.6465 -0.4621  0.6815
16934SOL    HW252957   3.799   9.339   6.203  1.3513 -0.4499 -0.0763
16935SOL     OW52958   9.392   7.264   1.005 -0.0261  0.5771 -0.7499
16935SOL    HW152959   9.388   7.278   0.911  0.9302 -1.8926 -1.2406
16935SOL    HW252960   9.337   7.187   1.020 -0.6214  1.2715  0.8144
16936SOL     OW52961   9.144   6.837   0.041 -0.1269 -0.4133  0.0656
16936SOL    HW152962   9.211   6.777   0.009 -0.4607 -0.6127 -0.2734
16936SOL    HW252963   9.184   6.879   0.117  0.2138 -0.8688  0.1468
16937SOL     OW52964   7.045   9.573   2.824  0.1256  0.7395 -0.4719
16937SOL    HW152965   7.120   9.592   2.881  0.3112 -0.1249 -0.4231
16937SOL    HW252966   7.081   9.521   2.752 -1.0429 -3.6097  1.7491
16938SOL     OW52967   0.301   5.355   6.372  0.3649 -0.3337 -0.0910
16938SOL    HW152968   0.255   5.406   6.438  0.3239  0.5777 -0.8108
16938SOL    HW252969   0.373   5.314   6.419 -0.6467 -1.0580  0.8585
16939SOL     OW52970   0.691   9.216   9.052 -0.2471  0.3987 -0.4410
16939SOL    HW152971   0.596   9.216   9.063 -0.1468  0.8999  0.6150
16939SOL    HW252972   0.716   9.308   9.067  0.5227  0.0426  0.5242
16940SOL     OW52973   0.820   7.907   4.175 -0.3100 -0.5733 -0.2644
16940SOL    HW152974   0.894   7.851   4.200  0.4704  0.6841  0.3806
16940SOL    HW252975   0.849   7.949   4.094 -0.7486 -0.8186 -0.5547
16941SOL     OW52976   9.257   7.493   3.666  0.3699 -0.3011 -0.6127
16941SOL    HW152977   9.231   7.528   3.580  3.0350 -1.3494 -1.9649
16941SOL    HW252978   9.294   7.407   3.647 -0.5237 -1.3418  1.8754
16942SOL     OW52979   3.778   7.422   8.093  0.1679  0.2660 -0.0288
16942SOL    HW152980   3.686   7.419   8.120  0.0320  0.8518 -0.4091
16942SOL    HW252981   3.828   7.412   8.174 -0.2192 -1.0541  0.0721
16943SOL     OW52982   6.866   7.981   1.142  0.0674  0.0055 -0.3013
16943SOL    HW152983   6.818   8.009   1.064 -1.3591  0.6481  0.7599
16943SOL    HW252984   6.957   8.003   1.123 -0.2599  0.2435 -1.7280
16944SOL     OW52985   0.897   8.109   0.757  0.5218  0.1260  0.9221
16944SOL    HW152986   0.979   8.119   0.709 -0.4541  0.7668 -0.6546
16944SOL    HW252987   0.843   8.183   0.729 -0.8611 -0.6710  1.3937
16945SOL     OW52988   5.962   8.978   8.347  0.1142 -0.3386 -0.5559
16945SOL    HW152989   5.986   8.910   8.410 -0.1399  0.1186  0.0474
16945SOL    HW252990   6.045   9.022   8.326  0.1023 -0.0537 -0.0165
16946SOL     OW52991   7.239   4.913   3.380 -0.5844 -0.0487 -0.0534
16946SOL    HW152992   7.166   4.853   3.388  0.2409 -0.8785  1.9345
16946SOL    HW252993   7.203   4.988   3.332 -2.3538 -0.9663 -0.2505
16947SOL     OW52994   7.944   1.073   0.846 -0.0046 -0.3559  0.6587
16947SOL    HW152995   7.950   0.992   0.795 -1.4206 -0.5428  0.7676
16947SOL    HW252996   7.982   1.049   0.931  0.7447 -0.5376  0.2817
16948SOL     OW52997   2.418   2.485   5.679  0.0381 -0.3903 -0.0063
16948SOL    HW152998   2.404   2.393   5.700 -0.0776  0.0163  1.8108
16948SOL    HW252999   2.511   2.500   5.696  0.9944 -0.9526 -3.7006
16949SOL     OW53000   7.383   1.069   0.137  0.3282  0.2711  0.0111
16949SOL    HW153001   7.296   1.105   0.120  0.0252 -0.4257  0.0554
16949SOL    HW253002   7.366   0.983   0.177  1.0245 -0.3373 -0.9488
16950SOL     OW53003   2.585   3.944   0.088 -0.2874  0.1538  0.1376
16950SOL    HW153004   2.593   3.849   0.100 -2.8397 -0.1198  0.1267
16950SOL    HW253005   2.570   3.955  -0.006 -0.8310  0.4937  0.2608
16951SOL     OW53006   0.787   3.025   5.074 -0.0285  0.6600  0.6862
16951SOL    HW153007   0.783   2.953   5.136  0.2000  0.1447  0.1175
16951SOL    HW253008   0.732   3.093   5.112 -0.8049 -0.0695  0.9047
16952SOL     OW53009   9.204   0.770   2.954 -0.0591  0.2076 -0.0399
16952SOL    HW153010   9.195   0.839   3.020  0.6303  1.1532 -0.8957
16952SOL    HW253011   9.176   0.812   2.872 -0.0092 -0.6534 -0.5092
16953SOL     OW53012   6.476   0.599   9.225  0.1370  0.5350  0.0769
16953SOL    HW153013   6.503   0.675   9.277  0.5892  1.4723 -1.4508
16953SOL    HW253014   6.431   0.542   9.287 -1.3533  2.6221  1.0435
16954SOL     OW53015   5.328   6.420   4.783  0.1316  0.2906 -0.1852
16954SOL    HW153016   5.406   6.470   4.761  0.4207 -0.3847 -0.7617
16954SOL    HW253017   5.291   6.396   4.698  0.6024 -1.3757  0.0487
16955SOL     OW53018   9.201   6.383   0.557 -0.1357  0.3341 -0.2923
16955SOL    HW153019   9.164   6.404   0.643  0.6504  1.7491 -0.2680
16955SOL    HW253020   9.138   6.322   0.518 -0.7896  0.1085  1.0546
16956SOL     OW53021   4.604   0.858   4.357 -0.4739 -0.1342  0.1951
16956SOL    HW153022   4.671   0.833   4.293  0.7595  0.1965  1.3105
16956SOL    HW253023   4.624   0.949   4.379 -0.3482 -0.4913  1.6503
16957SOL     OW53024   8.211   2.164   9.603 -0.2710 -0.1359  0.1536
16957SOL    HW153025   8.157   2.217   9.545 -1.7418 -1.2387  0.4640
16957SOL    HW253026   8.285   2.221   9.626 -0.6843  1.0049 -1.1927
16958SOL     OW53027   2.118   2.438   3.406 -0.3936 -0.3174 -0.1570
16958SOL    HW153028   2.055   2.456   3.476 -2.0566 -0.2382 -1.5891
16958SOL    HW253029   2.121   2.519   3.355  0.1371 -0.6422 -0.6555
16959SOL     OW53030   5.324   8.362   1.309  0.0382 -0.3367 -0.3837
16959SOL    HW153031   5.282   8.447   1.321  1.5209  0.6028 -1.4918
16959SOL    HW253032   5.409   8.371   1.352  1.9708  0.2686 -3.8915
16960SOL     OW53033   6.631   7.840   4.467 -0.1616 -0.0245 -0.2716
16960SOL    HW153034   6.668   7.754   4.487 -0.4043  0.1524  1.0729
16960SOL    HW253035   6.567   7.855   4.537 -2.1714  0.0380 -2.0394
16961SOL     OW53036   4.114   0.509   2.713  0.6233 -0.3995 -0.4916
16961SOL    HW153037   4.037   0.555   2.680  1.2067  1.8195  1.0502
16961SOL    HW253038   4.167   0.492   2.634 -1.2409 -1.7004 -1.5302
16962SOL     OW53039   7.004   1.555   6.473  0.3876  0.1443 -0.0905
16962SOL    HW153040   7.081   1.596   6.511  0.4661  0.1313 -0.2356
16962SOL    HW253041   7.038   1.478   6.427  0.0821 -0.9153  1.4011
16963SOL     OW53042   4.767   8.013   6.649 -0.3087  0.0091  0.0167
16963SOL    HW153043   4.848   8.036   6.695 -0.2621 -0.8761  0.3871
16963SOL    HW253044   4.728   8.098   6.626  1.5657  0.4847 -1.6838
16964SOL     OW53045   1.926   3.786   2.370  0.8279  0.4171 -0.4213
16964SOL    HW153046   1.977   3.786   2.451  0.8884  0.6286 -0.4581
16964SOL    HW253047   1.989   3.764   2.301  1.0859  1.6031 -0.5938
16965SOL     OW53048   4.187   5.965   0.975  0.2451  0.6423 -0.2815
16965SOL    HW153049   4.172   6.026   1.047  0.8020  1.2339 -0.6612
16965SOL    HW253050   4.235   6.016   0.909  0.6054 -0.1641 -0.6589
16966SOL     OW53051   0.235   6.809   1.483  0.1906  0.1712  0.3232
16966SOL    HW153052   0.329   6.831   1.485 -0.1350  2.2003 -1.8800
16966SOL    HW253053   0.192   6.889   1.512 -0.8968 -0.5325  0.6773
16967SOL     OW53054   7.425   3.688   4.239 -0.0345  0.1951 -0.1566
16967SOL    HW153055   7.352   3.680   4.178  0.2490  1.2487 -0.6707
16967SOL    HW253056   7.389   3.733   4.315  0.2097  1.4054 -0.7206
16968SOL     OW53057   2.304   6.924   2.234  0.5891 -0.4224  0.1433
16968SOL    HW153058   2.305   6.927   2.329  1.0330 -2.4337  0.2591
16968SOL    HW253059   2.303   6.830   2.213  1.1530 -0.0460 -1.8222
16969SOL     OW53060   2.148   7.851   6.799 -0.3228 -1.2227  0.0456
16969SOL    HW153061   2.224   7.823   6.849  0.9926  0.0654 -1.1304
16969SOL    HW253062   2.185   7.891   6.720 -1.9760  3.0670  1.1816
16970SOL     OW53063   6.026   9.364   2.344 -0.1401  0.2539 -0.7627
16970SOL    HW153064   6.094   9.334   2.284 -0.4674  0.4017 -1.2138
16970SOL    HW253065   6.048   9.456   2.361 -1.3963  0.9249 -2.5789
16971SOL     OW53066   6.328   7.139   0.453 -0.2917 -0.2129 -0.3757
16971SOL    HW153067   6.420   7.142   0.477 -0.0868  1.6573 -1.2340
16971SOL    HW253068   6.283   7.103   0.530  0.8585  1.1578  0.9697
16972SOL     OW53069   7.505   2.441   4.496 -0.0141  0.4847 -0.0316
16972SOL    HW153070   7.549   2.386   4.432 -1.6354  0.8233 -1.5113
16972SOL    HW253071   7.431   2.388   4.526 -0.6672  1.2436 -0.2795
16973SOL     OW53072   2.038   7.316   1.684 -0.2452 -0.1548  0.0222
16973SOL    HW153073   2.110   7.330   1.622  0.4434 -1.6432  0.4398
16973SOL    HW253074   2.066   7.363   1.763 -0.0771 -0.1191 -0.0557
16974SOL     OW53075   2.159   0.339   7.726 -0.4153 -0.5081  0.4231
16974SOL    HW153076   2.254   0.329   7.723 -0.1000  1.9322  0.6557
16974SOL    HW253077   2.142   0.382   7.809 -1.7006 -0.6197  0.2356
16975SOL     OW53078   3.643   4.548   2.457 -0.3664  0.2944 -0.1900
16975SOL    HW153079   3.610   4.601   2.385  0.6131  0.8936 -0.2060
16975SOL    HW253080   3.706   4.488   2.417 -0.9191 -0.3985 -0.0545
16976SOL     OW53081   6.494   5.717   7.265  0.9993  0.0584 -0.4215
16976SOL    HW153082   6.552   5.677   7.200  0.3478 -0.5285 -0.6580
16976SOL    HW253083   6.406   5.690   7.237  0.6555  0.4841  0.2412
16977SOL     OW53084   7.139   4.196   0.761 -0.6217  0.2262 -0.3093
16977SOL    HW153085   7.190   4.269   0.797  0.7745  0.9313 -3.4118
16977SOL    HW253086   7.130   4.135   0.834  1.5787  1.7264  1.3497
16978SOL     OW53087   8.975   3.485   1.299  0.3503  0.2237 -0.2298
16978SOL    HW153088   8.982   3.391   1.319 -0.1887  0.5635  1.8677
16978SOL    HW253089   8.885   3.495   1.266 -0.0854  0.1799  0.8933
16979SOL     OW53090   5.446   9.219   8.395  0.3690  0.5420  0.0031
16979SOL    HW153091   5.487   9.257   8.472 -0.7938  1.0545  0.3957
16979SOL    HW253092   5.365   9.270   8.384  1.6175  2.1114 -2.9713
16980SOL     OW53093   1.081   8.490   1.857  0.3908  0.6928  0.5285
16980SOL    HW153094   1.145   8.539   1.909 -0.5997  1.3500  1.1677
16980SOL    HW253095   0.996   8.517   1.891 -0.3335  1.3695 -1.6180
16981SOL     OW53096   3.259   0.113   2.540  0.4030 -0.0352 -0.6134
16981SOL    HW153097   3.213   0.185   2.584  4.4016  1.7385  1.1766
16981SOL    HW253098   3.307   0.156   2.469  2.0872 -1.0593 -0.1410
16982SOL     OW53099   0.057   0.482   2.760 -0.0019  0.1272  0.0874
16982SOL    HW153100   0.056   0.480   2.856 -1.5150  0.2366  0.0910
16982SOL    HW253101  -0.009   0.419   2.733 -0.8044  1.3027 -0.8403
16983SOL     OW53102   5.646   4.108   6.580  0.6877  0.5412 -0.1036
16983SOL    HW153103   5.590   4.107   6.503  0.6619 -0.3603 -0.0943
16983SOL    HW253104   5.717   4.047   6.559 -1.3430 -2.9024  1.9440
16984SOL     OW53105   8.755   6.341   3.295 -0.1245  0.1262  0.3567
16984SOL    HW153106   8.685   6.404   3.285  1.0593  1.2759 -1.0343
16984SOL    HW253107   8.821   6.387   3.348  0.9450  0.2692 -1.0542
16985SOL     OW53108   8.041   6.420   3.512  0.0169  0.2687 -0.2714
16985SOL    HW153109   8.044   6.502   3.563 -1.5125  0.5595 -0.5939
16985SOL    HW253110   7.951   6.389   3.523  0.6147 -1.4872 -0.0144
16986SOL     OW53111   3.918   1.312   0.651  0.2507  0.4432  0.4339
16986SOL    HW153112   3.842   1.329   0.707 -0.6309  2.5850 -1.2936
16986SOL    HW253113   3.884   1.258   0.580  0.6628  0.2626  0.3732
16987SOL     OW53114   1.730   8.932   2.239  0.3040  0.2313 -0.2316
16987SOL    HW153115   1.717   8.926   2.144 -0.6082  0.7548 -0.1567
16987SOL    HW253116   1.644   8.957   2.273 -0.4594 -3.5810  1.1324
16988SOL     OW53117   4.831   2.553   5.672  0.0633  0.1267  0.7158
16988SOL    HW153118   4.842   2.620   5.603  0.3712  1.2525  1.8202
16988SOL    HW253119   4.825   2.471   5.624 -2.6648  1.1078 -0.8868
16989SOL     OW53120   0.232   1.597   9.194 -0.3857 -0.5139 -0.2959
16989SOL    HW153121   0.137   1.584   9.204 -0.9006  1.8552 -1.3444
16989SOL    HW253122   0.250   1.575   9.102 -0.4950  1.5252 -0.8698
16990SOL     OW53123   5.332   1.024   3.423  0.1958  0.4794 -0.5132
16990SOL    HW153124   5.268   1.059   3.361 -0.0962  0.0312 -0.4706
16990SOL    HW253125   5.417   1.043   3.384  0.0593  1.6155 -0.2833
16991SOL     OW53126   2.649   9.325   3.523  0.4319  0.7160 -0.0190
16991SOL    HW153127   2.575   9.326   3.462  0.6715  1.1059 -0.3088
16991SOL    HW253128   2.726   9.312   3.468  0.6426  0.9804  0.2068
16992SOL     OW53129   1.935   7.133   2.976  0.4422  0.4005  0.5988
16992SOL    HW153130   1.852   7.130   2.930  0.4765  1.3713  0.4537
16992SOL    HW253131   1.993   7.185   2.920  1.4716 -1.0837  0.2161
16993SOL     OW53132   8.821   0.007   4.604  0.2700 -0.0723  0.0958
16993SOL    HW153133   8.815  -0.065   4.541  1.1457  0.9030 -1.1750
16993SOL    HW253134   8.741   0.057   4.591 -0.1067 -0.5337  0.6212
16994SOL     OW53135   0.659   3.657   7.455  0.2674  0.5382 -0.0257
16994SOL    HW153136   0.651   3.611   7.538  1.1165  1.5724  0.6489
16994SOL    HW253137   0.615   3.600   7.392 -0.8677 -0.0063  1.2151
16995SOL     OW53138   4.185   0.028   9.456  0.3564  0.4690 -0.6152
16995SOL    HW153139   4.259   0.074   9.494  0.0421  1.5650 -1.2853
16995SOL    HW253140   4.115   0.036   9.521  0.1765  1.3096 -0.9083
16996SOL     OW53141   4.746   2.363   2.261 -0.9575  0.5326  0.3659
16996SOL    HW153142   4.717   2.279   2.223  1.0243 -0.3182  0.6300
16996SOL    HW253143   4.713   2.429   2.200 -1.4926 -0.5243 -0.5295
16997SOL     OW53144   9.073   4.693   6.503 -0.2835 -0.1945 -0.1627
16997SOL    HW153145   9.076   4.703   6.598 -0.1390 -0.3542 -0.1499
16997SOL    HW253146   8.980   4.683   6.483 -0.3752  0.4984 -0.1087
16998SOL     OW53147   6.104   5.101   1.810  0.1476 -0.6408 -0.8156
16998SOL    HW153148   6.036   5.063   1.866 -0.1447  0.5093 -0.3536
16998SOL    HW253149   6.070   5.089   1.721 -2.2525  2.5721 -0.5331
16999SOL     OW53150   9.187   3.012   0.135  0.2429  0.1601  0.4009
16999SOL    HW153151   9.205   3.087   0.191  1.5998  1.1113 -1.2228
16999SOL    HW253152   9.167   3.049   0.049  2.9877 -1.2779 -1.0054
17000SOL     OW53153   9.397   6.215   1.051 -0.6750  0.3493  0.0296
17000SOL    HW153154   9.429   6.177   1.133 -1.9812  2.0750  1.3936
17000SOL    HW253155   9.368   6.139   1.000  3.6786 -1.2179 -0.6049
17001SOL     OW53156   9.328   6.155   3.132  0.3180  0.4963 -0.5932
17001SOL    HW153157   9.303   6.248   3.131 -1.6560  0.0351 -2.3415
17001SOL    HW253158   9.258   6.112   3.182  0.0344 -0.2927 -1.6375
17002SOL     OW53159   1.202   6.260   2.494  0.8125 -0.0924  0.3607
17002SOL    HW153160   1.186   6.168   2.516 -0.0354  0.1552  0.8252
17002SOL    HW253161   1.273   6.257   2.431 -0.6434 -1.2329 -1.3319
17003SOL     OW53162   8.516   5.175   9.000 -0.0174  0.0748  0.2748
17003SOL    HW153163   8.446   5.114   8.977  0.5761 -0.5828  0.1613
17003SOL    HW253164   8.515   5.178   9.095 -1.2278  1.3157  0.2629
17004SOL     OW53165   2.931   3.411   3.654 -0.3104  0.1322  0.3675
17004SOL    HW153166   2.982   3.354   3.711 -0.4103  0.7205  1.0650
17004SOL    HW253167   2.996   3.454   3.598 -0.0157  0.9228  1.2922
17005SOL     OW53168   5.590   7.674   5.602  0.5122  0.2145 -0.1695
17005SOL    HW153169   5.525   7.705   5.539  0.7001  0.9852 -0.0025
17005SOL    HW253170   5.549   7.689   5.688  0.2361 -0.8744 -0.1030
17006SOL     OW53171   5.076   5.385   6.093  0.1299  1.0623  0.2335
17006SOL    HW153172   5.003   5.349   6.144  1.0090 -2.6564 -0.7675
17006SOL    HW253173   5.041   5.398   6.005  0.6694 -1.3313 -0.4134
17007SOL     OW53174   8.841   4.627   6.021 -0.2136  0.0222  0.2501
17007SOL    HW153175   8.851   4.535   5.995 -1.1444  0.3109 -1.2249
17007SOL    HW253176   8.784   4.624   6.098 -2.5627 -0.5329 -1.3856
17008SOL     OW53177   0.217   0.166   3.989 -0.2867 -0.0658  0.5525
17008SOL    HW153178   0.249   0.129   3.907  0.6815  0.6365  0.6046
17008SOL    HW253179   0.155   0.234   3.963  0.5639  0.6559  0.3703
17009SOL     OW53180   4.009   3.502   2.568  0.4141  0.5210  0.7275
17009SOL    HW153181   4.014   3.597   2.563  1.1068  0.4276 -0.8852
17009SOL    HW253182   3.948   3.477   2.499  2.9925 -0.3738 -1.4000
17010SOL     OW53183   3.597   5.652   8.191  0.0122 -0.4347  0.2134
17010SOL    HW153184   3.688   5.651   8.160 -0.6485  0.1891 -1.9228
17010SOL    HW253185   3.553   5.587   8.136 -0.4513 -2.3575  2.7013
17011SOL     OW53186   1.706   9.357   5.409  0.0287  0.2347  0.8450
17011SOL    HW153187   1.772   9.296   5.441  0.1255  0.2708  0.7131
17011SOL    HW253188   1.688   9.413   5.484  0.5271  0.5545  0.7325
17012SOL     OW53189   9.383   0.680   6.673 -0.3446  0.5600 -0.1359
17012SOL    HW153190   9.314   0.643   6.617  0.0423 -2.8917  1.3866
17012SOL    HW253191   9.340   0.749   6.723 -2.2878 -0.3743 -0.4206
17013SOL     OW53192   5.737   4.238   6.286  0.4498  0.4271 -0.1876
17013SOL    HW153193   5.748   4.313   6.228  0.7778 -0.4475 -1.3145
17013SOL    HW253194   5.643   4.234   6.303  0.2637  0.3532 -1.1684
17014SOL     OW53195   1.335   2.183   5.969  0.1039  0.2535  0.1374
17014SOL    HW153196   1.250   2.194   6.010 -0.2133  0.2499 -0.4971
17014SOL    HW253197   1.315   2.167   5.876  0.7925  0.3402 -0.0349
17015SOL     OW53198   3.315   3.080   9.171 -0.3882 -0.4345  0.0143
17015SOL    HW153199   3.280   3.037   9.249 -2.7732 -0.6945 -1.1038
17015SOL    HW253200   3.313   3.173   9.192  1.5247 -0.6053  1.1803
17016SOL     OW53201   5.679   4.924   8.355 -0.3209 -0.6523 -0.1368
17016SOL    HW153202   5.734   4.918   8.433 -0.5186 -1.6937 -0.0674
17016SOL    HW253203   5.731   4.973   8.292  0.2016 -0.5899  0.3400
17017SOL     OW53204   3.308   4.145   9.067 -0.6849  0.0314  0.0904
17017SOL    HW153205   3.378   4.106   9.014  1.3112  2.5002  0.6978
17017SOL    HW253206   3.260   4.200   9.005 -2.6502 -2.1637 -0.4740
17018SOL     OW53207   7.770   6.669   9.091 -0.9038  0.0415 -0.3472
17018SOL    HW153208   7.792   6.672   8.998 -1.8275  0.7579 -0.5659
17018SOL    HW253209   7.813   6.591   9.124  1.5627  1.1285 -0.8017
17019SOL     OW53210   3.507   7.845   2.913  0.0927 -0.1456 -0.0655
17019SOL    HW153211   3.492   7.759   2.873  2.6975  0.2584 -2.2378
17019SOL    HW253212   3.436   7.899   2.880 -1.4145 -1.3386  1.0907
17020SOL     OW53213   8.641   6.625   2.377  0.1112 -0.5741 -0.2542
17020SOL    HW153214   8.683   6.541   2.396  1.5993  0.1334 -0.2468
17020SOL    HW253215   8.714   6.684   2.357 -0.9766  0.4133 -1.4757
17021SOL     OW53216   3.149   7.751   4.991 -0.1292 -0.2668  0.2574
17021SOL    HW153217   3.171   7.677   4.935 -0.1951  0.2011 -0.3970
17021SOL    HW253218   3.174   7.828   4.940 -1.3032  0.2120  0.3644
17022SOL     OW53219   5.703   0.082   7.732 -0.3356  0.3313 -0.4949
17022SOL    HW153220   5.663   0.162   7.698 -1.5199 -0.6322 -1.4412
17022SOL    HW253221   5.751   0.111   7.810 -0.1464  2.0704 -1.1970
17023SOL     OW53222   8.251   1.432   7.908  0.3693 -0.2514  0.2822
17023SOL    HW153223   8.337   1.402   7.937  1.1770  0.8294 -0.8641
17023SOL    HW253224   8.250   1.415   7.813 -1.6703 -2.4992  0.6016
17024SOL     OW53225   4.106   0.158   7.168  0.3952  0.5091  0.9854
17024SOL    HW153226   4.108   0.211   7.088 -0.0851 -1.6447 -0.5312
17024SOL    HW253227   4.013   0.157   7.193  0.3984  0.3398  0.9892
17025SOL     OW53228   7.130   7.451   6.730  1.0676 -0.3318  0.4629
17025SOL    HW153229   7.218   7.412   6.730  1.3091  0.0779 -1.7157
17025SOL    HW253230   7.143   7.539   6.766  1.2158 -0.8939  1.8081
17026SOL     OW53231   2.600   5.229   0.576  0.2142 -0.1546 -0.2826
17026SOL    HW153232   2.543   5.183   0.638 -0.3707 -1.1141 -1.4662
17026SOL    HW253233   2.545   5.299   0.541 -0.0881 -0.7446 -1.0263
17027SOL     OW53234   0.428   7.495   6.141  0.2136 -0.3032 -0.0280
17027SOL    HW153235   0.385   7.418   6.105 -0.9821 -0.0587  0.8214
17027SOL    HW253236   0.511   7.462   6.175 -0.8111 -1.4943  1.4578
17028SOL     OW53237   6.215   8.562   3.115  0.0260 -0.5545  0.0159
17028SOL    HW153238   6.121   8.579   3.111 -0.4126 -2.0324  2.1353
17028SOL    HW253239   6.256   8.648   3.105 -1.6510  0.4367  1.0801
17029SOL     OW53240   2.764   3.190   3.555  0.7701 -0.2399  0.4080
17029SOL    HW153241   2.802   3.259   3.610  1.8158 -1.4797  1.3198
17029SOL    HW253242   2.833   3.123   3.552 -0.3627 -1.4067 -0.1187
17030SOL     OW53243   1.587   0.124   0.281  0.4843 -0.2651  0.8369
17030SOL    HW153244   1.580   0.087   0.369  3.2973  0.4938  1.4578
17030SOL    HW253245   1.606   0.049   0.224 -0.7011 -0.6636  0.9412
17031SOL     OW53246   3.567   6.011   7.599 -0.0192  0.4040 -0.2341
17031SOL    HW153247   3.526   6.067   7.664  0.9154  2.2949 -1.1715
17031SOL    HW253248   3.495   5.965   7.557 -1.1739  2.8938 -1.1692
17032SOL     OW53249   9.246   7.586   3.937  0.5435 -0.0146  0.0176
17032SOL    HW153250   9.337   7.558   3.952 -0.4728 -3.5492  0.4021
17032SOL    HW253251   9.223   7.546   3.853 -0.9427  0.0581  0.3733
17033SOL     OW53252   1.025   1.398   9.391 -0.0541  0.3762 -0.3931
17033SOL    HW153253   1.041   1.491   9.375  2.5130 -0.0411 -0.6344
17033SOL    HW253254   1.075   1.378   9.470  1.3332 -1.2454 -1.6020
17034SOL     OW53255   4.971   4.069   2.133  0.0831 -0.4459 -0.0573
17034SOL    HW153256   4.941   4.046   2.221 -1.5719  0.9747 -0.1954
17034SOL    HW253257   5.063   4.091   2.144  0.2590 -1.6233  1.0412
17035SOL     OW53258   1.049   0.358   0.028 -0.5284  0.1070  0.0687
17035SOL    HW153259   0.985   0.385   0.093 -1.1085 -0.1319 -0.3962
17035SOL    HW253260   1.118   0.424   0.033 -1.0049  0.5961  0.2856
17036SOL     OW53261   4.663   5.019   7.934  0.3638 -0.6654 -0.1817
17036SOL    HW153262   4.632   4.929   7.929 -1.6283 -0.1465  1.5068
17036SOL    HW253263   4.741   5.014   7.989 -0.5019 -1.2373  1.0464
17037SOL     OW53264   8.921   4.486   7.124 -0.1260  0.9589  0.2320
17037SOL    HW153265   8.869   4.417   7.165  1.0752 -0.9954 -1.3265
17037SOL    HW253266   9.000   4.491   7.177  0.9709 -0.8437 -1.1123
17038SOL     OW53267   1.965   4.570   1.316  0.6899  0.4650  0.7463
17038SOL    HW153268   2.022   4.627   1.264  0.0299  0.2191 -0.2832
17038SOL    HW253269   2.025   4.518   1.369  1.4546  0.1252 -0.4055
17039SOL     OW53270   5.298   1.961   0.047 -0.2356  0.7771  0.2905
17039SOL    HW153271   5.203   1.975   0.047 -0.5388 -0.9827  1.4755
17039SOL    HW253272   5.335   2.049   0.059 -1.7519  1.3759  0.8141
17040SOL     OW53273   9.044   0.400   3.996  0.2359  0.2528 -0.3590
17040SOL    HW153274   8.962   0.429   3.956  0.9275 -0.3554 -2.2945
17040SOL    HW253275   9.054   0.310   3.968 -0.3026 -1.0009  3.0205
17041SOL     OW53276   5.647   1.833   4.336  0.6302  0.7510  0.3360
17041SOL    HW153277   5.594   1.873   4.268  1.6312 -1.6931 -2.0496
17041SOL    HW253278   5.693   1.906   4.377  1.8387  2.2093 -3.2751
17042SOL     OW53279   3.837   5.200   0.900  0.3688 -0.2386  0.5675
17042SOL    HW153280   3.778   5.214   0.974 -1.0919  5.5273 -1.1328
17042SOL    HW253281   3.792   5.136   0.845 -0.2123 -1.9649  2.9153
17043SOL     OW53282   2.835   1.383   7.928 -0.3597 -0.1820  0.1077
17043SOL    HW153283   2.910   1.378   7.988 -0.2283 -3.5789 -0.1311
17043SOL    HW253284   2.765   1.420   7.981  0.4806 -0.5432  1.5422
17044SOL     OW53285   8.316   1.368   1.928 -0.3940  0.3222  0.0710
17044SOL    HW153286   8.222   1.376   1.914 -0.7080  0.1632  1.7800
17044SOL    HW253287   8.325   1.296   1.990  0.7617  0.9991  0.7311
17045SOL     OW53288   3.839   2.158   5.821  0.3252  0.0308 -0.4536
17045SOL    HW153289   3.791   2.236   5.850  0.2455 -0.8150  1.9144
17045SOL    HW253290   3.807   2.142   5.732 -1.6038  1.2110 -0.0405
17046SOL     OW53291   0.816   0.721   0.620  0.0318 -0.2306  0.0957
17046SOL    HW153292   0.742   0.680   0.664  0.2259 -1.9204 -1.0469
17046SOL    HW253293   0.868   0.758   0.691 -0.9478 -0.6597  1.0758
17047SOL     OW53294   6.935   5.635   3.469  0.3782  0.4911  0.7411
17047SOL    HW153295   7.029   5.650   3.456  0.6531 -2.0454 -0.7152
17047SOL    HW253296   6.903   5.608   3.383 -2.0608  2.6619  0.8338
17048SOL     OW53297   4.719   9.488   0.664  0.2946 -0.1175  0.0735
17048SOL    HW153298   4.726   9.572   0.710  0.3218  0.3287 -0.7273
17048SOL    HW253299   4.626   9.479   0.646  0.3038 -0.2023  0.0705
17049SOL     OW53300   5.780   6.819   5.672  0.1271 -0.2771 -0.0441
17049SOL    HW153301   5.848   6.886   5.671 -1.3856  1.3295  0.2984
17049SOL    HW253302   5.702   6.864   5.705 -0.7351 -2.4272  1.0821
17050SOL     OW53303   8.294   3.254   8.295  0.0647  0.3473  0.0509
17050SOL    HW153304   8.292   3.167   8.335  1.5685  0.6424  0.8336
17050SOL    HW253305   8.260   3.313   8.363 -0.1606  0.4884 -0.1799
17051SOL     OW53306   3.673   6.548   7.995  0.4371 -0.0456  0.4220
17051SOL    HW153307   3.580   6.533   7.979  0.1681  1.0601  0.8244
17051SOL    HW253308   3.714   6.540   7.909  0.0760 -1.1665  0.3383
17052SOL     OW53309   9.139   4.815   6.775 -0.2966  0.4189 -0.2544
17052SOL    HW153310   9.163   4.744   6.835 -1.0802  1.1038  0.9019
17052SOL    HW253311   9.156   4.895   6.824 -2.1376  0.9770 -0.4566
17053SOL     OW53312   4.394   3.547   4.186  0.5075  0.1270  0.0040
17053SOL    HW153313   4.482   3.576   4.209 -0.0547  2.0884 -0.1837
17053SOL    HW253314   4.408   3.465   4.137  2.3216  1.0636 -1.1572
17054SOL     OW53315   4.211   9.555   8.750  0.3565  0.1186 -0.0532
17054SOL    HW153316   4.200   9.535   8.657 -0.9610 -0.9728  0.2899
17054SOL    HW253317   4.190   9.648   8.758  0.4428  0.2099 -0.8438
17055SOL     OW53318   4.800   4.026   4.107 -0.0194  0.4751 -0.3169
17055SOL    HW153319   4.795   4.069   4.022 -0.4707  0.0684 -0.5005
17055SOL    HW253320   4.890   3.992   4.111 -0.5188 -1.0747 -1.4223
17056SOL     OW53321   7.493   5.329   6.785 -0.4800 -0.0957  0.5007
17056SOL    HW153322   7.486   5.336   6.880 -0.5849  0.6991  0.4478
17056SOL    HW253323   7.569   5.273   6.769  0.4843  1.0062  1.0581
17057SOL     OW53324   4.153   5.677   7.159 -0.0023 -0.1295 -0.1256
17057SOL    HW153325   4.168   5.772   7.161 -2.0610  0.2913 -1.6983
17057SOL    HW253326   4.233   5.640   7.197  0.6338  2.2259  1.0645
17058SOL     OW53327   3.171   3.014   3.545 -0.3778  0.0950 -0.3318
17058SOL    HW153328   3.081   2.981   3.539 -0.2937  0.0349 -1.3373
17058SOL    HW253329   3.165   3.104   3.513  0.3889 -0.7827 -3.2106
17059SOL     OW53330   9.552   9.496   6.397 -0.0062  0.3916 -0.5831
17059SOL    HW153331   9.595   9.486   6.313  1.9415  2.6550  0.0192
17059SOL    HW253332   9.486   9.564   6.382 -0.7041 -0.2708 -0.5905
17060SOL     OW53333   3.353   9.077   4.802 -0.7347  0.1330  0.8996
17060SOL    HW153334   3.292   9.057   4.874 -2.2825  0.4344 -0.2661
17060SOL    HW253335   3.302   9.058   4.723 -0.1366  2.6814 -0.1810
17061SOL     OW53336   0.794   8.086   8.320 -0.1965  0.0374  0.0177
17061SOL    HW153337   0.785   7.994   8.297 -1.3677  0.4338 -1.3064
17061SOL    HW253338   0.886   8.096   8.345 -0.1488 -1.5484  0.5766
17062SOL     OW53339   8.585   4.158   3.572  0.1952  0.3123 -0.0281
17062SOL    HW153340   8.531   4.186   3.647 -0.8070 -1.5394  0.0034
17062SOL    HW253341   8.525   4.158   3.498  0.8239  0.7240 -0.5458
17063SOL     OW53342   6.638   5.972   1.057  0.6632 -0.2808  0.4564
17063SOL    HW153343   6.720   6.011   1.027  0.0963 -0.3595 -1.3037
17063SOL    HW253344   6.665   5.903   1.118  1.9378 -0.7681 -0.6186
17064SOL     OW53345   8.180   4.702   3.616  1.2121  0.0080  0.8560
17064SOL    HW153346   8.094   4.726   3.651  1.3943 -0.9719  2.0745
17064SOL    HW253347   8.236   4.778   3.633  0.8360  0.2394  1.0605
17065SOL     OW53348   6.389   7.815   3.547  0.6318 -0.1471  0.5228
17065SOL    HW153349   6.359   7.894   3.592 -1.0625 -1.0387  1.0197
17065SOL    HW253350   6.334   7.809   3.469  1.3250 -0.3907  0.0431
17066SOL     OW53351   0.668   8.999   4.278 -0.0005  0.2213 -0.0363
17066SOL    HW153352   0.741   9.023   4.221 -0.7927  0.2265 -1.0821
17066SOL    HW253353   0.660   8.904   4.269 -1.1748  0.4149 -1.2610
17067SOL     OW53354   5.894   4.371   6.559  0.1812 -0.0471 -0.5616
17067SOL    HW153355   5.902   4.457   6.519 -0.3536  0.2803  0.0119
17067SOL    HW253356   5.818   4.332   6.516 -0.0132  0.0574 -0.3177
17068SOL     OW53357   0.050   0.016   4.399  0.3201 -0.4614 -0.0660
17068SOL    HW153358   0.039  -0.051   4.466  0.6162 -1.4052 -0.9302
17068SOL    HW253359   0.145   0.025   4.389  0.3143  1.0669  0.9685
17069SOL     OW53360   4.926   6.407   9.169 -0.2049 -0.0423 -0.0242
17069SOL    HW153361   4.980   6.394   9.246  0.1676  3.5156  0.4832
17069SOL    HW253362   4.955   6.340   9.107  3.2826  0.3328  1.0182
17070SOL     OW53363   2.013   3.802   1.553  0.1118 -0.3277  0.0657
17070SOL    HW153364   2.010   3.763   1.465  0.8009 -0.8904  0.2868
17070SOL    HW253365   1.968   3.886   1.543  1.2561  0.1792 -1.1178
17071SOL     OW53366   4.517   0.989   0.152  0.2023 -0.0152 -0.6310
17071SOL    HW153367   4.491   1.044   0.077  0.9818  1.8393  0.3831
17071SOL    HW253368   4.555   1.051   0.214  2.7313 -1.9701 -0.0924
17072SOL     OW53369   2.169   8.681   7.097 -0.5110 -0.1355  0.5666
17072SOL    HW153370   2.119   8.762   7.104 -1.2476 -0.5353  0.0573
17072SOL    HW253371   2.183   8.653   7.187 -1.1804  0.0015  0.7181
17073SOL     OW53372   0.482   4.124   3.664 -0.8432  0.0853 -0.6354
17073SOL    HW153373   0.462   4.218   3.657  1.5741  0.6320 -1.1918
17073SOL    HW253374   0.483   4.094   3.573  1.7104  0.3793 -0.7904
17074SOL     OW53375   9.425   2.805   1.058 -0.7034 -0.4122 -0.2663
17074SOL    HW153376   9.365   2.759   1.118  0.1540 -0.1763  0.8160
17074SOL    HW253377   9.511   2.771   1.080 -0.2861  0.2257 -0.8715
17075SOL     OW53378   5.842   2.595   2.890  0.4625 -0.1765 -0.1702
17075SOL    HW153379   5.861   2.580   2.983 -1.8510 -0.9397  0.2531
17075SOL    HW253380   5.891   2.528   2.844 -0.8676 -1.8892  0.8012
17076SOL     OW53381   6.808   6.472   2.126  0.5739 -0.1816  0.8234
17076SOL    HW153382   6.769   6.508   2.205 -1.1042 -1.6361  0.6932
17076SOL    HW253383   6.795   6.378   2.132 -0.1933 -0.2999 -1.4476
17077SOL     OW53384   5.899   6.661   1.082  0.3796  0.4970  0.1767
17077SOL    HW153385   5.942   6.745   1.097  0.2422  0.3395  1.5668
17077SOL    HW253386   5.815   6.668   1.128  0.7652 -0.7241  1.0920
17078SOL     OW53387   1.762   0.971   8.738  0.3425 -0.2130 -0.0762
17078SOL    HW153388   1.845   0.926   8.722  0.8499  0.0998  1.5266
17078SOL    HW253389   1.698   0.901   8.752  0.2159 -0.4635 -1.7354
17079SOL     OW53390   2.488   6.962   0.775  0.2675  0.3109  0.5298
17079SOL    HW153391   2.463   6.877   0.812  0.5457 -0.3473 -0.7514
17079SOL    HW253392   2.415   6.984   0.716 -0.6019  1.7737  2.0624
17080SOL     OW53393   8.467   3.719   6.909 -0.0570  0.6058 -0.2959
17080SOL    HW153394   8.452   3.768   6.828  0.8493  1.0506 -0.2006
17080SOL    HW253395   8.410   3.762   6.974 -1.8734 -0.6323 -0.9898
17081SOL     OW53396   7.254   2.208   4.972 -0.2316 -0.1370  0.3795
17081SOL    HW153397   7.349   2.211   4.982 -0.1298 -0.3219 -0.4534
17081SOL    HW253398   7.237   2.121   4.937 -0.6702  0.0289  0.1788
17082SOL     OW53399   8.590   0.551   7.764 -0.2341  0.5044  0.4228
17082SOL    HW153400   8.674   0.553   7.809 -0.0334 -0.9040  0.1697
17082SOL    HW253401   8.599   0.613   7.692  1.3476 -1.0469 -0.8154
17083SOL     OW53402   2.118   8.149   6.259  0.4318 -0.1160 -0.1063
17083SOL    HW153403   2.101   8.175   6.349  2.8321 -0.4094  0.4764
17083SOL    HW253404   2.036   8.170   6.213  0.1118  2.7185  1.5279
17084SOL     OW53405   1.889   5.202   2.065  0.0157  0.2135  0.0239
17084SOL    HW153406   1.873   5.209   2.159 -0.1732  1.1499 -0.0738
17084SOL    HW253407   1.802   5.186   2.028 -0.0343  0.7066 -0.0723
17085SOL     OW53408   8.723   2.606   1.381 -0.2910 -0.6339 -0.7303
17085SOL    HW153409   8.801   2.632   1.430 -0.6249 -0.4921 -0.2711
17085SOL    HW253410   8.653   2.603   1.447 -0.5685 -1.2536 -1.0404
17086SOL     OW53411   8.221   3.611   5.356  0.1813 -0.1289  0.0015
17086SOL    HW153412   8.248   3.671   5.286  0.3076 -0.5080 -0.2810
17086SOL    HW253413   8.240   3.658   5.437  1.5291 -0.3120 -0.1905
17087SOL     OW53414   0.528   5.218   1.177 -0.1728 -0.3114  0.0401
17087SOL    HW153415   0.487   5.300   1.149 -0.2477 -0.2231  0.4017
17087SOL    HW253416   0.553   5.175   1.096  0.5700  0.4287 -0.1405
17088SOL     OW53417   7.565   8.841   6.925 -0.3593  0.0123 -0.2686
17088SOL    HW153418   7.526   8.768   6.974  1.0003 -2.1552 -2.1741
17088SOL    HW253419   7.603   8.898   6.992 -0.6423 -1.5337  1.2796
17089SOL     OW53420   8.045   8.580   1.859 -0.6943 -0.9299  0.0959
17089SOL    HW153421   8.122   8.589   1.915 -0.5910 -1.4497  0.0448
17089SOL    HW253422   8.064   8.635   1.783 -0.3254 -1.1333  0.0385
17090SOL     OW53423   8.744   8.021   5.897 -0.4355 -0.4319  0.0468
17090SOL    HW153424   8.756   7.971   5.978  0.8338  1.6261  1.2024
17090SOL    HW253425   8.824   8.004   5.847 -0.8443 -1.0303 -0.4143
17091SOL     OW53426   2.608   1.728   3.314  0.2950  0.0487 -0.0596
17091SOL    HW153427   2.530   1.702   3.363 -0.5444  1.8573 -0.3606
17091SOL    HW253428   2.610   1.668   3.239 -0.4617 -0.4035  0.2717
17092SOL     OW53429   5.818   9.055   2.389  0.4115  0.3490  0.1457
17092SOL    HW153430   5.882   8.996   2.431  0.0173  0.1672  0.4989
17092SOL    HW253431   5.740   9.001   2.378  0.2142  0.6649  0.0021
17093SOL     OW53432   4.302   2.703   0.421  0.2416 -0.4565 -0.1608
17093SOL    HW153433   4.264   2.790   0.404  0.4635 -0.2694  0.2964
17093SOL    HW253434   4.357   2.715   0.499 -0.4785 -1.2172  0.4867
17094SOL     OW53435   2.152   5.637   4.077  0.1041  0.0120  0.0895
17094SOL    HW153436   2.219   5.595   4.023  0.8403  2.3938 -0.9450
17094SOL    HW253437   2.135   5.721   4.035 -1.7255  0.5644  1.7555
17095SOL     OW53438   8.838   1.325   8.582 -0.2391  0.3882  0.0061
17095SOL    HW153439   8.905   1.346   8.517  0.1204  0.9251  0.5538
17095SOL    HW253440   8.841   1.229   8.589 -0.2157  0.3270 -0.6879
17096SOL     OW53441   1.912   7.353   1.033 -0.4218  0.0134  0.3176
17096SOL    HW153442   1.825   7.325   1.061  0.2428 -2.8059 -0.0913
17096SOL    HW253443   1.896   7.425   0.972 -2.6205 -1.4191 -0.9187
17097SOL     OW53444   6.534   7.761   2.601 -0.3758  0.3036  0.1872
17097SOL    HW153445   6.471   7.832   2.588 -0.4140  0.2096 -0.1612
17097SOL    HW253446   6.496   7.708   2.671  0.6792  1.7851  1.9595
17098SOL     OW53447   6.776   5.845   1.435 -0.5122 -0.5330  0.3609
17098SOL    HW153448   6.846   5.783   1.414  0.2371  0.1195  0.8521
17098SOL    HW253449   6.806   5.928   1.398 -2.3342 -0.7901 -1.8845
17099SOL     OW53450   2.659   2.252   3.121  0.3737 -0.1501 -0.1953
17099SOL    HW153451   2.624   2.287   3.039  1.1487  0.5258 -0.2502
17099SOL    HW253452   2.582   2.223   3.170 -0.3033  1.4952 -0.2265
17100SOL     OW53453   5.152   3.725   5.604  0.4263  0.8092 -0.1604
17100SOL    HW153454   5.083   3.667   5.636  0.0753  1.0099 -0.5320
17100SOL    HW253455   5.159   3.794   5.670  1.4246 -0.0829  0.7058
17101SOL     OW53456   5.492   3.951   2.470  0.1540  0.4392 -0.0816
17101SOL    HW153457   5.459   4.027   2.517 -0.7009 -0.2146  0.4092
17101SOL    HW253458   5.460   3.876   2.520 -0.3111 -0.2668 -1.3847
17102SOL     OW53459   8.457   5.924   4.162  0.3173  0.5296 -0.9549
17102SOL    HW153460   8.449   5.956   4.072  0.4398 -0.9494 -1.5119
17102SOL    HW253461   8.544   5.884   4.166 -0.3479 -0.9507 -0.7051
17103SOL     OW53462   2.001   0.501   8.963  0.5637 -0.3620 -0.0673
17103SOL    HW153463   2.043   0.586   8.980 -0.1336 -0.1383  0.6042
17103SOL    HW253464   2.032   0.476   8.876  0.0992  0.9979 -0.6578
17104SOL     OW53465   5.088   0.775   3.154  0.0563  0.0525 -0.4018
17104SOL    HW153466   5.082   0.723   3.074  1.8624 -1.5094  0.4030
17104SOL    HW253467   5.167   0.829   3.142 -0.1404  0.4332 -0.0254
17105SOL     OW53468   8.497   7.994   4.143  0.2099 -0.6999 -0.1629
17105SOL    HW153469   8.443   8.015   4.218 -0.0445  0.6811 -0.6905
17105SOL    HW253470   8.584   7.977   4.180  0.6304  2.0475  0.3497
17106SOL     OW53471   1.219   1.754   9.603 -0.3047 -0.1638 -0.8923
17106SOL    HW153472   1.204   1.823   9.668  4.0633 -0.4511  0.7938
17106SOL    HW253473   1.226   1.801   9.520  0.9860  1.3380 -0.0164
17107SOL     OW53474   9.235   0.934   5.798 -0.3254 -0.1616 -0.2062
17107SOL    HW153475   9.163   0.987   5.765 -1.5965 -1.5732  0.1832
17107SOL    HW253476   9.241   0.954   5.891 -0.8129 -0.6822 -0.0568
17108SOL     OW53477   3.128   6.503   6.406  0.2489  0.2440  0.4500
17108SOL    HW153478   3.115   6.527   6.314  1.1538 -0.6598  0.0674
17108SOL    HW253479   3.048   6.531   6.450 -0.7631 -0.5076 -0.8597
17109SOL     OW53480   1.373   0.385   1.487  0.4057 -0.0937  0.0535
17109SOL    HW153481   1.328   0.304   1.462 -0.7526  0.9810 -1.5141
17109SOL    HW253482   1.466   0.365   1.477  0.1495 -1.3176  0.0017
17110SOL     OW53483   2.910   4.180   8.918  0.2609 -0.0520 -0.2580
17110SOL    HW153484   2.893   4.207   8.828 -0.5918  1.5335  0.3317
17110SOL    HW253485   2.826   4.148   8.950  0.2056  0.6822  0.3692
17111SOL     OW53486   5.562   8.979   0.035 -0.5405 -0.3270  0.1865
17111SOL    HW153487   5.622   8.973  -0.039 -1.4052  1.2413 -0.7113
17111SOL    HW253488   5.617   9.006   0.108  0.1513 -0.8123 -0.1461
17112SOL     OW53489   1.220   8.518   2.133 -0.7492 -0.2435 -0.0472
17112SOL    HW153490   1.310   8.543   2.155 -0.6510  0.0162 -0.6958
17112SOL    HW253491   1.213   8.426   2.157 -0.2536 -0.3100 -0.1447
17113SOL     OW53492   2.161   7.144   3.147 -0.0814 -0.2158 -0.3237
17113SOL    HW153493   2.141   7.094   3.227 -0.0980  0.5606  0.1738
17113SOL    HW253494   2.075   7.173   3.115  0.0387  1.0759  0.4568
17114SOL     OW53495   4.554   9.190   0.105  0.4044 -0.0682  0.4196
17114SOL    HW153496   4.519   9.113   0.150 -0.5093 -0.0017 -0.1658
17114SOL    HW253497   4.644   9.195   0.136  0.2330 -0.8787  1.1202
17115SOL     OW53498   9.424   6.528   3.363 -0.3233 -0.0540 -0.3439
17115SOL    HW153499   9.385   6.499   3.280  1.4615  2.7009 -2.3127
17115SOL    HW253500   9.485   6.459   3.387 -1.0924 -1.0371 -1.1169
17116SOL     OW53501   4.856   2.437   5.026  0.1614 -0.0064  0.4670
17116SOL    HW153502   4.806   2.518   5.025  1.8891  1.1510  1.7214
17116SOL    HW253503   4.943   2.461   4.994  0.6164 -1.4350  0.5495
17117SOL     OW53504   0.171   5.570   6.548  0.2381 -0.0645 -0.1436
17117SOL    HW153505   0.080   5.543   6.535 -0.5400  2.2244  0.1502
17117SOL    HW253506   0.166   5.649   6.602  2.5013 -0.5939  0.9807
17118SOL     OW53507   7.671   0.841   3.929 -0.1807 -0.8068 -0.2272
17118SOL    HW153508   7.578   0.820   3.917  0.5696 -2.7640 -4.4945
17118SOL    HW253509   7.709   0.761   3.965  0.0723 -0.4391  0.3423
17119SOL     OW53510   8.724   9.147   2.364  0.5428  0.0561  0.4221
17119SOL    HW153511   8.675   9.065   2.358 -0.3454  0.6498 -1.1704
17119SOL    HW253512   8.656   9.215   2.357  1.3815  0.9128  0.4897
17120SOL     OW53513   3.216   9.138   4.217  0.1736  0.1107 -0.2642
17120SOL    HW153514   3.157   9.102   4.150 -2.4832 -0.4495  2.1440
17120SOL    HW253515   3.239   9.062   4.271  2.0357  0.5957 -0.3205
17121SOL     OW53516   9.175   1.249   1.759 -0.3686  0.7810  0.0308
17121SOL    HW153517   9.257   1.209   1.731 -1.0320 -1.1249  0.6567
17121SOL    HW253518   9.192   1.281   1.848 -0.7772 -1.3327  0.9285
17122SOL     OW53519   7.402   5.869   4.762  0.4410 -0.4625  0.2254
17122SOL    HW153520   7.394   5.898   4.853 -0.8649 -1.6593  0.5233
17122SOL    HW253521   7.441   5.782   4.768  1.4371 -0.0844 -0.4586
17123SOL     OW53522   3.822   9.411   1.091  1.1558 -0.0499 -0.1686
17123SOL    HW153523   3.757   9.342   1.074  0.4212  0.6602 -0.3219
17123SOL    HW253524   3.851   9.437   1.004  0.2750  0.8999 -0.1946
17124SOL     OW53525   5.259   3.240   2.942 -0.4731  0.1276  0.4409
17124SOL    HW153526   5.336   3.193   2.910 -1.3689 -1.3108  0.3403
17124SOL    HW253527   5.290   3.284   3.022  0.4450 -0.3975  0.3914
17125SOL     OW53528   9.630   5.280   3.477 -0.3523  0.3939 -0.4807
17125SOL    HW153529   9.583   5.336   3.538  0.2839 -0.2288  0.6142
17125SOL    HW253530   9.718   5.274   3.513 -0.2336 -0.7602 -0.9257
17126SOL     OW53531   4.070   4.535   9.541  0.2875  0.2286  0.2728
17126SOL    HW153532   4.085   4.544   9.636 -1.4462  0.9858  0.5129
17126SOL    HW253533   4.035   4.446   9.531  0.9725 -0.0466  0.2525
17127SOL     OW53534   7.991   1.209   2.891 -0.1487  0.6242  0.0498
17127SOL    HW153535   8.047   1.181   2.819 -2.3180 -1.8873 -0.8173
17127SOL    HW253536   8.025   1.161   2.967 -0.5129 -0.1245 -0.2573
17128SOL     OW53537   9.175   4.235   0.496 -0.4195 -0.3038 -0.7291
17128SOL    HW153538   9.092   4.282   0.496  0.0894  0.6780  0.6052
17128SOL    HW253539   9.222   4.270   0.421 -0.0978  1.3243  0.1691
17129SOL     OW53540   5.067   4.119   7.703  0.2238  0.5152  0.0651
17129SOL    HW153541   5.047   4.155   7.789  0.5472  1.6854 -0.3356
17129SOL    HW253542   5.027   4.032   7.704  1.0343  0.1302  1.7242
17130SOL     OW53543   4.696   5.915   3.103 -0.0878 -0.0914 -0.0039
17130SOL    HW153544   4.773   5.963   3.070 -0.0258 -0.0922  0.1394
17130SOL    HW253545   4.670   5.859   3.030 -0.2568  0.2755 -0.2289
17131SOL     OW53546   0.386   2.475   0.913 -0.1274 -0.7929 -0.4855
17131SOL    HW153547   0.403   2.566   0.888 -1.7781 -0.3621 -0.1538
17131SOL    HW253548   0.290   2.466   0.910  0.0298 -2.8790 -1.7414
17132SOL     OW53549   0.973   3.693   3.130 -0.1200 -0.6415  0.1229
17132SOL    HW153550   0.918   3.754   3.080 -0.3945 -2.5122 -2.0141
17132SOL    HW253551   1.052   3.743   3.149 -0.7558  0.7228 -0.6470
17133SOL     OW53552   1.826   0.922   0.938 -0.5999 -0.2451 -0.1164
17133SOL    HW153553   1.799   0.831   0.927 -2.5221  0.2591  0.0328
17133SOL    HW253554   1.766   0.957   1.004  1.5930  0.5445  1.5752
17134SOL     OW53555   0.311   5.492   7.781  0.5702 -0.0266 -0.6027
17134SOL    HW153556   0.306   5.584   7.809  0.1480 -0.2594  0.1010
17134SOL    HW253557   0.222   5.459   7.792  0.4736 -0.2423 -1.8778
17135SOL     OW53558   5.674   8.552   8.169  0.4577 -0.0698 -0.7200
17135SOL    HW153559   5.610   8.490   8.134 -0.6959  0.7931 -0.1988
17135SOL    HW253560   5.625   8.602   8.234  1.6522  0.6755 -0.3748
17136SOL     OW53561   5.404   2.485   7.196 -0.0019 -0.2993 -0.0151
17136SOL    HW153562   5.331   2.443   7.150 -2.1912  2.2382  0.8371
17136SOL    HW253563   5.362   2.555   7.247  2.9776  0.7499  1.1988
17137SOL     OW53564   1.088   2.339   3.302  0.0359 -0.2305  0.1490
17137SOL    HW153565   1.159   2.403   3.293 -1.8510  2.0832  0.7707
17137SOL    HW253566   1.079   2.302   3.214  0.5283  1.1324 -0.5234
17138SOL     OW53567   7.806   0.433   0.671 -0.0085 -0.4200 -0.3359
17138SOL    HW153568   7.862   0.356   0.659 -1.0788 -0.9927 -2.1493
17138SOL    HW253569   7.735   0.402   0.727  0.7609 -0.0772  0.8458
17139SOL     OW53570   1.249   0.065   0.146  0.3276 -0.1103  0.3912
17139SOL    HW153571   1.183   0.095   0.085  0.1440 -0.4458  0.4213
17139SOL    HW253572   1.303   0.142   0.164  0.7129 -0.1330 -0.6044
17140SOL     OW53573   4.808   1.573   0.727 -0.0775 -0.8608 -0.3086
17140SOL    HW153574   4.853   1.655   0.707  0.5208 -1.0825  0.1106
17140SOL    HW253575   4.780   1.584   0.818 -1.0069 -0.6667 -0.6075
17141SOL     OW53576   0.595   5.746   4.387  0.3110  0.2494 -0.2802
17141SOL    HW153577   0.561   5.830   4.419 -2.7105 -0.3006 -1.6316
17141SOL    HW253578   0.643   5.769   4.307 -1.2283  0.7241 -1.1286
17142SOL     OW53579   6.606   7.276   9.041 -0.0965  0.1736 -0.1218
17142SOL    HW153580   6.637   7.186   9.043 -1.4610 -0.3543 -1.2299
17142SOL    HW253581   6.564   7.289   9.126  0.5539 -0.0579  0.2373
17143SOL     OW53582   2.892   5.485   4.600  0.1814  0.3404  0.0670
17143SOL    HW153583   2.902   5.418   4.668  0.1808 -0.6202 -0.8495
17143SOL    HW253584   2.981   5.504   4.572  0.0802 -0.7721 -1.0678
17144SOL     OW53585   6.841   5.325   8.652 -0.2935 -0.0005 -0.1328
17144SOL    HW153586   6.861   5.331   8.746  3.6831  1.0039 -0.8436
17144SOL    HW253587   6.857   5.414   8.619 -0.5377 -0.5765 -1.9067
17145SOL     OW53588   2.477   3.299   1.001  0.0396  0.1021 -0.6752
17145SOL    HW153589   2.467   3.299   1.096  1.1680 -0.0365 -0.5336
17145SOL    HW253590   2.554   3.354   0.985 -0.9028  1.1871 -1.6215
17146SOL     OW53591   7.241   1.448   9.152  0.0043 -0.3735 -0.5096
17146SOL    HW153592   7.265   1.363   9.191 -0.5475 -0.6422 -0.7417
17146SOL    HW253593   7.307   1.462   9.084  0.8995  0.0390  0.4228
17147SOL     OW53594   8.004   1.680   4.167  0.0648 -0.2596 -0.2874
17147SOL    HW153595   8.090   1.654   4.199  1.6041  2.8918 -1.3915
17147SOL    HW253596   7.969   1.737   4.236 -0.4174 -0.2598 -0.5287
17148SOL     OW53597   6.188   7.642   9.365  0.1541 -0.0792 -0.1915
17148SOL    HW153598   6.165   7.730   9.335  1.2984  0.8929  1.5820
17148SOL    HW253599   6.202   7.591   9.285 -0.1750  1.4379 -1.2550
17149SOL     OW53600   2.581   6.152   4.171  0.3940 -0.1598  0.0363
17149SOL    HW153601   2.545   6.142   4.259 -1.5677 -0.6675 -0.7651
17149SOL    HW253602   2.661   6.101   4.172  0.4520 -0.1048  1.5292
17150SOL     OW53603   2.806   5.072   7.849 -0.0014 -0.4511 -0.4541
17150SOL    HW153604   2.722   5.054   7.890  0.8408 -2.0697  0.6857
17150SOL    HW253605   2.786   5.135   7.780 -1.9649 -0.0039  0.4453
17151SOL     OW53606   4.939   8.618   3.688  0.4785 -0.2050  0.1414
17151SOL    HW153607   4.855   8.665   3.686 -0.1007 -1.2161 -0.2105
17151SOL    HW253608   4.996   8.673   3.741 -0.5486  0.2921  0.7723
17152SOL     OW53609   6.777   3.476   5.174  0.1387 -0.0118  0.2389
17152SOL    HW153610   6.720   3.551   5.191 -2.4731 -1.4275 -1.4304
17152SOL    HW253611   6.826   3.500   5.096  0.1360  0.3845  0.3596
17153SOL     OW53612   5.679   5.553   5.260 -0.4635 -0.0958 -0.4677
17153SOL    HW153613   5.724   5.485   5.310 -0.8424 -0.0162 -0.0117
17153SOL    HW253614   5.747   5.619   5.244 -0.5703  0.3980  0.8954
17154SOL     OW53615   9.406   6.393   0.745  0.1068 -0.1594  0.9128
17154SOL    HW153616   9.337   6.393   0.679  0.1297 -0.7644  0.8819
17154SOL    HW253617   9.412   6.484   0.774 -2.5363 -0.4956  2.8431
17155SOL     OW53618   3.000   5.553   8.396 -0.4843 -0.2922  0.1527
17155SOL    HW153619   3.072   5.503   8.434 -0.1149  0.0377 -0.1031
17155SOL    HW253620   2.938   5.565   8.469 -0.1008 -0.2470  0.4783
17156SOL     OW53621   9.409   2.484   6.181  0.1992  0.7253  0.1956
17156SOL    HW153622   9.401   2.569   6.224  1.8133 -0.0326  2.1460
17156SOL    HW253623   9.349   2.427   6.229  1.3369  0.0824  0.8896
17157SOL     OW53624   0.954   7.710   2.698 -0.2107  0.2116 -0.4429
17157SOL    HW153625   1.020   7.766   2.656 -2.0640  1.6547 -1.6210
17157SOL    HW253626   0.989   7.691   2.784  0.9840  2.3597 -0.3907
17158SOL     OW53627   8.629   7.239   9.283  0.7260  0.1177 -0.6869
17158SOL    HW153628   8.546   7.228   9.329  0.6787  1.9524 -0.2783
17158SOL    HW253629   8.667   7.151   9.281 -0.3398 -0.4131  0.8042
17159SOL     OW53630   1.038   4.245   9.160  0.2453 -0.7745  0.0539
17159SOL    HW153631   0.961   4.244   9.104  0.1080 -0.1533  0.2299
17159SOL    HW253632   1.017   4.186   9.232  0.1553 -1.0413 -0.1912
17160SOL     OW53633   8.913   5.134   2.991  0.0890 -0.1755  0.2298
17160SOL    HW153634   8.878   5.130   3.080  0.5882 -2.8666  0.4017
17160SOL    HW253635   8.836   5.121   2.934  0.1541 -1.7433  0.4473
17161SOL     OW53636   0.136   5.978   2.252 -0.5598 -0.7873 -0.1330
17161SOL    HW153637   0.160   5.948   2.340 -0.0018 -0.4887 -0.1774
17161SOL    HW253638   0.048   6.013   2.262  0.2248  1.1112  0.7778
17162SOL     OW53639   1.320   3.520   0.800 -0.6035 -0.0502 -0.3690
17162SOL    HW153640   1.378   3.586   0.838  2.2758 -2.3159 -0.4401
17162SOL    HW253641   1.380   3.452   0.768 -3.3416 -2.5153 -0.6121
17163SOL     OW53642   1.781   8.027   8.622 -0.2906  0.0213  0.3199
17163SOL    HW153643   1.857   8.048   8.677 -0.5681  0.1373  0.6654
17163SOL    HW253644   1.811   8.044   8.532  0.1940 -0.2527  0.4281
17164SOL     OW53645   1.957   5.550   5.841 -0.1600  0.2164  0.1638
17164SOL    HW153646   2.020   5.612   5.804  0.1615 -0.1008  0.1795
17164SOL    HW253647   2.009   5.473   5.864 -0.6242 -0.2122 -0.2074
17165SOL     OW53648   9.008   3.580   6.155 -0.6887 -0.1731 -0.4597
17165SOL    HW153649   8.994   3.671   6.180 -2.0848 -0.2454 -0.9030
17165SOL    HW253650   9.099   3.577   6.127 -0.4220  0.9220  0.2259
17166SOL     OW53651   0.700   8.093   6.243  0.0010 -0.8275  0.0085
17166SOL    HW153652   0.673   8.011   6.284 -3.4147  0.4127  0.5805
17166SOL    HW253653   0.755   8.136   6.308 -1.2211 -1.0821  1.2307
17167SOL     OW53654   7.465   1.236   1.180  0.2916 -0.7282  0.5726
17167SOL    HW153655   7.458   1.279   1.265  0.3313 -0.5550  0.4880
17167SOL    HW253656   7.528   1.288   1.131 -0.6194 -0.1148  0.0062
17168SOL     OW53657   9.055   0.276   6.719  0.4919 -0.2772 -0.3496
17168SOL    HW153658   9.117   0.262   6.791 -0.9942 -0.7987  0.8878
17168SOL    HW253659   8.980   0.221   6.741 -1.1523  1.6325 -0.8874
17169SOL     OW53660   4.834   3.263   7.543 -0.0589 -0.2285 -0.0035
17169SOL    HW153661   4.909   3.286   7.487 -1.1566 -0.2597 -1.5543
17169SOL    HW253662   4.776   3.338   7.538 -0.4151 -0.4532  0.6842
17170SOL     OW53663   6.317   8.573   4.960 -0.3003 -0.6403  0.4166
17170SOL    HW153664   6.236   8.611   4.992 -1.6312 -1.6004 -1.6301
17170SOL    HW253665   6.386   8.627   5.000 -1.9983  2.1960 -0.2311
17171SOL     OW53666   4.759   1.568   0.437 -0.8812  0.1530 -0.1006
17171SOL    HW153667   4.772   1.587   0.530 -0.0350 -0.3177 -0.1172
17171SOL    HW253668   4.667   1.588   0.421 -1.5028 -1.4321  1.2386
17172SOL     OW53669   3.320   5.727   7.114  0.1995  0.1239 -0.2985
17172SOL    HW153670   3.258   5.667   7.072 -0.0801  0.2420 -0.0618
17172SOL    HW253671   3.349   5.785   7.044  0.5625 -0.3580 -0.5556
17173SOL     OW53672   4.773   2.742   3.468 -0.3537 -0.1183 -0.5819
17173SOL    HW153673   4.710   2.671   3.476 -0.0825 -0.4334 -1.1071
17173SOL    HW253674   4.740   2.796   3.396 -1.0922  0.8661  0.4782
17174SOL     OW53675   7.790   6.972   1.903  0.4923 -0.1034  0.8880
17174SOL    HW153676   7.704   6.941   1.875  0.7110  0.2695 -0.2672
17174SOL    HW253677   7.788   7.066   1.885  0.4542  0.2741  2.7076
17175SOL     OW53678   2.766   4.529   2.070 -0.0738 -0.2450  0.1307
17175SOL    HW153679   2.702   4.472   2.111  0.5259 -0.4833  0.7489
17175SOL    HW253680   2.774   4.603   2.129  0.7730 -0.5762  0.4422
17176SOL     OW53681   8.114   1.838   4.571  0.1566  1.0434  0.1278
17176SOL    HW153682   8.078   1.832   4.482  1.9607 -0.0923 -0.5679
17176SOL    HW253683   8.162   1.756   4.583  2.3377  2.3822  1.0493
17177SOL     OW53684   1.597   1.502   5.067 -0.2739 -0.0192 -0.0383
17177SOL    HW153685   1.565   1.510   5.157 -2.4679  0.2898 -0.7974
17177SOL    HW253686   1.518   1.490   5.014  0.9951 -0.6724 -1.8892
17178SOL     OW53687   1.673   0.340   3.486  0.2387  0.2726 -0.2131
17178SOL    HW153688   1.710   0.302   3.406  2.5461 -0.6952  1.2087
17178SOL    HW253689   1.723   0.300   3.557 -2.7370 -0.0782  1.8687
17179SOL     OW53690   2.288   0.696   7.519  0.5172 -0.0584  0.3194
17179SOL    HW153691   2.242   0.727   7.597  0.2898 -1.0362  0.5881
17179SOL    HW253692   2.369   0.659   7.553 -0.3870 -2.1463  0.3232
17180SOL     OW53693   4.948   5.628   1.732  0.4740  0.4188 -0.5886
17180SOL    HW153694   4.881   5.634   1.800  0.3397 -0.9240 -0.5869
17180SOL    HW253695   4.900   5.645   1.651  0.2344 -0.0036 -0.5368
17181SOL     OW53696   7.396   7.799   6.110 -0.0765 -0.5742 -0.1969
17181SOL    HW153697   7.390   7.821   6.017  0.0130 -0.8178 -0.2612
17181SOL    HW253698   7.324   7.737   6.125  0.1637 -0.8575 -0.1998
17182SOL     OW53699   3.094   4.697   7.609  0.0669  0.3542 -0.2510
17182SOL    HW153700   3.135   4.740   7.534  0.5004 -2.2427 -1.6094
17182SOL    HW253701   3.054   4.618   7.572 -1.1518 -0.1664  2.0135
17183SOL     OW53702   1.946   5.629   8.594  0.4993  0.1273 -0.1060
17183SOL    HW153703   1.942   5.661   8.504  0.1492  1.2277  0.2872
17183SOL    HW253704   1.954   5.534   8.585 -1.0662  0.0718 -1.2744
17184SOL     OW53705   9.559   1.155   6.168 -0.3229  0.8124  0.1239
17184SOL    HW153706   9.620   1.196   6.107 -0.9862  1.5486 -0.0729
17184SOL    HW253707   9.594   1.068   6.183  0.0040  0.7219 -1.0893
17185SOL     OW53708   6.083   6.747   3.813 -0.1226 -0.7526  0.5087
17185SOL    HW153709   6.145   6.720   3.746  1.2081 -1.4468  1.9523
17185SOL    HW253710   5.998   6.717   3.781  0.2477  0.1351 -1.4708
17186SOL     OW53711   2.184   3.663   9.441  0.2833 -0.0874  0.2307
17186SOL    HW153712   2.178   3.570   9.418  0.1160  0.0511 -0.3144
17186SOL    HW253713   2.190   3.707   9.356  0.9497  0.3606  0.5051
17187SOL     OW53714   4.574   0.037   2.175 -0.1698  0.0471  0.2275
17187SOL    HW153715   4.544   0.023   2.265  1.6138  1.0065  1.0187
17187SOL    HW253716   4.667   0.015   2.177 -0.1210 -0.0509 -1.4453
17188SOL     OW53717   3.102   9.345   6.433  0.0240 -0.4862 -0.0221
17188SOL    HW153718   3.041   9.271   6.440  0.0372 -0.5458 -0.4925
17188SOL    HW253719   3.183   9.313   6.472 -0.0522 -0.6340  0.0152
17189SOL     OW53720   4.335   0.654   7.216 -0.0239  0.0561 -0.0929
17189SOL    HW153721   4.413   0.599   7.204  1.5743  2.3585 -0.9043
17189SOL    HW253722   4.312   0.683   7.128 -0.5444  1.0352  0.3507
17190SOL     OW53723   9.519   8.032   9.509  0.5553  0.1384 -0.1145
17190SOL    HW153724   9.572   8.110   9.525 -1.1005  1.6926 -1.7670
17190SOL    HW253725   9.462   8.025   9.586  0.7411  0.5452  0.0619
17191SOL     OW53726   3.565   7.558   2.817 -0.2885 -0.5553  0.2407
17191SOL    HW153727   3.647   7.509   2.830 -0.0826 -0.2869 -0.0241
17191SOL    HW253728   3.497   7.491   2.814  0.1726 -1.0049 -1.7894
17192SOL     OW53729   4.558   0.236   1.259 -0.2267 -0.0936  0.1815
17192SOL    HW153730   4.496   0.199   1.322  0.9555 -2.3128  0.1695
17192SOL    HW253731   4.572   0.165   1.196  1.6178  0.6829 -0.3321
17193SOL     OW53732   1.592   9.239   8.157  0.1394  0.0440  0.7896
17193SOL    HW153733   1.625   9.162   8.203  1.8572 -0.2545 -0.8129
17193SOL    HW253734   1.564   9.205   8.072 -0.3646  0.9844  0.5716
17194SOL     OW53735   6.141   7.301   3.061 -0.4457 -0.2248  0.0006
17194SOL    HW153736   6.076   7.362   3.025 -1.1774 -1.2324 -0.4422
17194SOL    HW253737   6.172   7.344   3.141 -0.4898  1.0010 -0.6110
17195SOL     OW53738   8.246   6.257   3.460  0.0472 -0.6565 -0.1545
17195SOL    HW153739   8.175   6.313   3.490 -0.0090 -0.4454 -0.6682
17195SOL    HW253740   8.262   6.285   3.370  1.1789 -0.3089  0.1479
17196SOL     OW53741   7.356   0.687   7.140 -0.3366 -0.3429 -0.2109
17196SOL    HW153742   7.355   0.717   7.049 -0.9526  2.2910  0.5914
17196SOL    HW253743   7.266   0.664   7.159 -0.1747 -1.0711 -0.3063
17197SOL     OW53744   9.396   0.924   4.114 -0.5552  0.0599 -0.0076
17197SOL    HW153745   9.307   0.956   4.126 -0.6275  0.5806 -1.7156
17197SOL    HW253746   9.436   0.984   4.051  0.6856 -0.7378 -0.0240
17198SOL     OW53747   9.574   7.387   1.169 -0.2139 -0.5429 -0.1973
17198SOL    HW153748   9.496   7.371   1.116 -0.5790 -1.0038  0.4652
17198SOL    HW253749   9.542   7.437   1.243  0.0638 -1.0023  0.2362
17199SOL     OW53750   8.456   6.825   5.199  0.3911 -0.2413  0.6600
17199SOL    HW153751   8.431   6.903   5.150  0.2261 -1.2375 -0.9260
17199SOL    HW253752   8.551   6.832   5.209  0.3632  0.2051  0.6471
17200SOL     OW53753   6.704   9.267   8.923 -0.2810  0.1385  0.1268
17200SOL    HW153754   6.619   9.288   8.963 -0.3867 -1.1774  0.6489
17200SOL    HW253755   6.687   9.186   8.874  1.4248 -2.1547  3.0578
17201SOL     OW53756   6.668   0.038   0.938 -0.3542  0.0970  0.2070
17201SOL    HW153757   6.577   0.067   0.925 -0.4691 -1.3635 -3.2312
17201SOL    HW253758   6.719   0.119   0.941 -1.5114  0.8874 -0.5622
17202SOL     OW53759   0.886   8.597   0.651 -0.2113  0.1683  0.5048
17202SOL    HW153760   0.828   8.591   0.575  0.5121 -1.2696  0.0324
17202SOL    HW253761   0.843   8.544   0.719 -0.4974  0.8578  0.8714
17203SOL     OW53762   4.577   1.249   9.066  0.0021  0.4117  0.2326
17203SOL    HW153763   4.506   1.210   9.116  0.5551  1.5350  1.9727
17203SOL    HW253764   4.562   1.344   9.072  0.4854  0.5981 -1.1480
17204SOL     OW53765   1.552   2.812   8.855 -0.0872  0.3350 -0.1617
17204SOL    HW153766   1.540   2.826   8.948 -1.6857  0.2466 -0.3316
17204SOL    HW253767   1.477   2.854   8.814  1.6633  2.2421 -1.6028
17205SOL     OW53768   4.610   0.110   7.015  0.0775  0.4064 -0.6939
17205SOL    HW153769   4.652   0.135   7.097 -2.0375 -0.6382  0.7851
17205SOL    HW253770   4.547   0.180   6.998 -0.2208  0.0998 -0.8631
17206SOL     OW53771   2.354   8.720   6.316 -0.2840 -0.1314  0.7504
17206SOL    HW153772   2.262   8.698   6.309 -0.8128  1.8375  0.9490
17206SOL    HW253773   2.356   8.802   6.366  1.4113  0.7747 -0.6620
17207SOL     OW53774   1.318   1.833   2.553 -0.0777  0.1640  0.6056
17207SOL    HW153775   1.367   1.834   2.635 -0.0520  1.0519  0.5893
17207SOL    HW253776   1.283   1.922   2.544  0.3071  0.2197 -0.5675
17208SOL     OW53777   5.978   7.357   3.699 -0.7255  0.4412  0.4027
17208SOL    HW153778   5.905   7.395   3.749 -1.8882 -0.0369 -0.8724
17208SOL    HW253779   6.007   7.428   3.642 -2.3480 -0.2357 -1.3781
17209SOL     OW53780   0.330   8.670   7.415 -0.1969  0.2706 -0.6344
17209SOL    HW153781   0.303   8.733   7.348  3.1235  2.2660 -0.3229
17209SOL    HW253782   0.354   8.591   7.366 -1.1019  0.4308 -1.3700
17210SOL     OW53783   9.195   8.022   1.354  0.0306 -0.4632  0.2014
17210SOL    HW153784   9.196   8.010   1.260 -0.5412 -0.7834  0.2362
17210SOL    HW253785   9.213   7.934   1.390 -0.1577 -0.4228  0.3958
17211SOL     OW53786   5.921   8.525   1.185  0.4826 -0.0602  0.0972
17211SOL    HW153787   5.892   8.609   1.151  0.6847 -0.1855 -0.3940
17211SOL    HW253788   5.896   8.526   1.278  0.2657  0.4367  0.0331
17212SOL     OW53789   7.973   0.461   4.285 -0.0336  0.0253 -0.1557
17212SOL    HW153790   7.965   0.527   4.354 -0.1062 -0.1362 -0.0101
17212SOL    HW253791   7.922   0.387   4.316  0.3230 -0.2282 -0.1615
17213SOL     OW53792   2.779   0.785   6.019  0.4042  0.0924  0.0246
17213SOL    HW153793   2.714   0.808   6.085 -0.3524 -2.6738  0.3741
17213SOL    HW253794   2.733   0.790   5.935  0.6891  1.2362 -0.0831
17214SOL     OW53795   0.846   8.491   0.024  0.0739  0.3331  0.0086
17214SOL    HW153796   0.820   8.451  -0.058 -1.6450 -1.3110  1.2913
17214SOL    HW253797   0.766   8.528   0.060  0.3400 -0.8357  1.9238
17215SOL     OW53798   7.290   7.248   2.199 -0.0777 -0.9216  0.5921
17215SOL    HW153799   7.253   7.217   2.282 -0.0376  0.0834  0.9901
17215SOL    HW253800   7.337   7.328   2.221 -1.9670  0.6580 -0.7454
17216SOL     OW53801   7.391   4.973   2.471  0.8871  0.2728  0.0472
17216SOL    HW153802   7.457   5.024   2.424 -0.4225  0.8559 -1.2333
17216SOL    HW253803   7.403   4.883   2.440  1.3858  0.2823  0.2002
17217SOL     OW53804   6.108   3.632   8.973  0.0317  0.0298  0.0960
17217SOL    HW153805   6.108   3.680   9.056 -0.3656  2.6225 -1.2728
17217SOL    HW253806   6.163   3.685   8.915  0.3791 -1.7608 -1.2829
17218SOL     OW53807   9.201   9.608   5.573 -0.5777  0.1776 -0.5455
17218SOL    HW153808   9.206   9.648   5.486 -1.5704  2.2850  0.3111
17218SOL    HW253809   9.277   9.549   5.576 -0.0459  0.6875 -2.5207
17219SOL     OW53810   7.962   2.724   4.791  0.1394  0.3875  0.8139
17219SOL    HW153811   7.879   2.677   4.801 -0.1224  0.9465  1.3493
17219SOL    HW253812   7.953   2.773   4.710  0.2255 -0.0933  0.5059
17220SOL     OW53813   1.949   2.088   7.102 -0.4920 -0.2353  0.4465
17220SOL    HW153814   1.887   2.053   7.039  0.5630  0.9994 -1.4071
17220SOL    HW253815   2.024   2.028   7.099  0.0641  0.4686 -0.4553
17221SOL     OW53816   8.126   3.175   4.102 -0.3850 -0.0067 -0.0157
17221SOL    HW153817   8.098   3.161   4.192 -1.9501  1.6090 -0.2062
17221SOL    HW253818   8.222   3.173   4.107 -0.3871  1.5158  1.9747
17222SOL     OW53819   8.273   3.141   6.658  0.5507 -0.7765  0.1076
17222SOL    HW153820   8.286   3.198   6.734  2.2550 -2.0654  0.8576
17222SOL    HW253821   8.310   3.056   6.685  0.1014 -1.6100 -1.7358
17223SOL     OW53822   1.496   0.700   2.217  0.2241 -0.5269 -0.3529
17223SOL    HW153823   1.401   0.692   2.206  0.1068 -0.6911  0.6278
17223SOL    HW253824   1.515   0.791   2.197 -0.3971 -0.0805  0.9360
17224SOL     OW53825   4.073   7.164   1.057 -0.4149 -0.5572 -0.6683
17224SOL    HW153826   4.026   7.138   1.136 -1.7311  0.9638 -0.8798
17224SOL    HW253827   4.158   7.195   1.088 -0.0492 -2.0516 -0.1137
17225SOL     OW53828   9.151   7.205   8.698  0.0399  1.1603  0.0269
17225SOL    HW153829   9.165   7.111   8.711  1.9784  1.5794  1.4009
17225SOL    HW253830   9.195   7.246   8.772  0.3054  3.2285 -1.2104
17226SOL     OW53831   1.330   1.791   3.771 -0.2663  0.3251  0.1331
17226SOL    HW153832   1.257   1.806   3.831 -0.1838  0.6150  0.1624
17226SOL    HW253833   1.392   1.738   3.820 -1.0283 -1.0315 -0.3184
17227SOL     OW53834   4.056   1.559   6.195  0.1358 -0.3305 -0.1290
17227SOL    HW153835   4.142   1.590   6.168  0.3326  0.0588  0.9209
17227SOL    HW253836   4.072   1.472   6.232  0.1509 -0.0407  0.5436
17228SOL     OW53837   2.483   6.614   4.724 -1.3033 -0.0982 -0.5282
17228SOL    HW153838   2.546   6.541   4.723  1.0264  1.7926 -1.2323
17228SOL    HW253839   2.457   6.623   4.815 -0.3274 -0.7493 -0.1713
17229SOL     OW53840   7.085   0.698   5.196  0.0615 -0.3054  0.6120
17229SOL    HW153841   7.009   0.649   5.228  0.5442 -0.2780  1.8234
17229SOL    HW253842   7.131   0.726   5.275  0.0436  1.7540 -0.0375
17230SOL     OW53843   9.031   5.287   4.414  0.5715  1.0817  0.3272
17230SOL    HW153844   8.937   5.303   4.404 -0.5026 -2.6959  2.2858
17230SOL    HW253845   9.054   5.234   4.338  0.6771  0.5762  0.7084
17231SOL     OW53846   0.159   7.292   1.627 -0.4482 -0.4141 -0.3848
17231SOL    HW153847   0.251   7.317   1.630 -0.1806 -1.3123 -0.7897
17231SOL    HW253848   0.111   7.374   1.634  0.3676 -0.0179  0.9211
17232SOL     OW53849   4.057   0.370   7.970  0.1453 -0.0530  0.3869
17232SOL    HW153850   4.090   0.372   8.059  1.2778 -0.7129  0.0007
17232SOL    HW253851   4.060   0.278   7.945 -1.7369 -0.1158  0.2160
17233SOL     OW53852   8.536   1.103   2.326  0.0068 -0.0848 -0.4987
17233SOL    HW153853   8.543   1.035   2.393  1.1068  0.4348 -0.0449
17233SOL    HW253854   8.444   1.129   2.327  0.0450  0.0630  0.9759
17234SOL     OW53855   0.524   6.307   0.347 -1.0774 -0.0136  0.0566
17234SOL    HW153856   0.586   6.267   0.287 -0.8289 -0.7486  0.7900
17234SOL    HW253857   0.461   6.351   0.290 -1.7828 -2.0323 -0.8256
17235SOL     OW53858   0.453   4.306   3.141 -0.0528  0.3843  0.0934
17235SOL    HW153859   0.514   4.270   3.206  0.0216 -0.3464 -0.3589
17235SOL    HW253860   0.508   4.358   3.082 -0.2011  1.4906  0.9091
17236SOL     OW53861   4.504   1.559   0.412  0.1173  0.4418 -0.2653
17236SOL    HW153862   4.486   1.561   0.506  1.6234  1.3154  0.0369
17236SOL    HW253863   4.454   1.484   0.380 -1.2255  0.7186  1.0434
17237SOL     OW53864   2.207   8.783   3.726  0.1191 -0.1273 -0.0620
17237SOL    HW153865   2.272   8.840   3.685  0.7220 -0.4348  0.4509
17237SOL    HW253866   2.190   8.823   3.811  0.6356 -0.7696  0.3512
17238SOL     OW53867   2.251   4.909   3.703 -0.4250 -0.0108 -0.3627
17238SOL    HW153868   2.253   4.961   3.783 -3.0332  2.8191 -1.9414
17238SOL    HW253869   2.293   4.963   3.637 -0.3338 -1.3213 -1.4288
17239SOL     OW53870   4.410   8.700   2.518 -0.4226 -0.1216 -0.3017
17239SOL    HW153871   4.493   8.654   2.509 -1.3492 -1.9381 -0.0651
17239SOL    HW253872   4.371   8.696   2.430 -1.0037 -0.8051 -0.0200
17240SOL     OW53873   0.562   1.131   2.144 -0.3615  0.5960 -0.0038
17240SOL    HW153874   0.617   1.209   2.140 -3.7774  3.3342  1.5320
17240SOL    HW253875   0.566   1.102   2.235  0.1605 -0.5391 -0.3621
17241SOL     OW53876   7.738   5.568   7.095  0.3076 -0.3923  0.4788
17241SOL    HW153877   7.782   5.526   7.021  0.6783 -0.1034  0.5340
17241SOL    HW253878   7.645   5.553   7.080  0.1097  2.3057 -1.6984
17242SOL     OW53879   7.136   2.513   4.114  0.0993 -0.1305  0.1608
17242SOL    HW153880   7.219   2.497   4.069 -1.9223 -2.4429 -3.1778
17242SOL    HW253881   7.079   2.442   4.085 -3.4242  1.9427  1.4050
17243SOL     OW53882   3.022   8.173   9.372 -0.1585 -0.1913  0.4935
17243SOL    HW153883   2.954   8.188   9.307 -0.6096 -0.6382  0.8550
17243SOL    HW253884   3.008   8.242   9.437  2.0372  2.0831 -1.2116
17244SOL     OW53885   3.818   1.828   7.599 -0.6154 -0.4085 -0.3850
17244SOL    HW153886   3.769   1.881   7.661  0.3898 -0.1568  0.2261
17244SOL    HW253887   3.900   1.807   7.644 -0.2448 -0.9948 -1.2818
17245SOL     OW53888   1.164   5.466   0.782 -0.2476  0.6441 -0.2443
17245SOL    HW153889   1.082   5.514   0.772  0.0731  0.8767 -2.2062
17245SOL    HW253890   1.212   5.512   0.850 -1.7478  0.4782  0.9531
17246SOL     OW53891   4.303   9.115   0.217 -0.2341 -0.3630 -0.2418
17246SOL    HW153892   4.256   9.036   0.192 -3.7664  1.1142  1.1118
17246SOL    HW253893   4.246   9.187   0.190  0.2088  1.5199  3.2091
17247SOL     OW53894   7.408   3.208   2.808 -0.1694  0.6604  0.4051
17247SOL    HW153895   7.382   3.299   2.827 -1.2361  0.3379  0.5721
17247SOL    HW253896   7.476   3.216   2.741 -1.0225  1.5485 -0.3929
17248SOL     OW53897   0.880   8.136   6.428  0.1126 -0.3367  0.3332
17248SOL    HW153898   0.843   8.084   6.500 -1.0643  1.0512  0.7723
17248SOL    HW253899   0.974   8.125   6.438 -0.0847 -1.8915  0.7770
17249SOL     OW53900   3.171   0.831   1.265 -0.0790  0.0745  0.1865
17249SOL    HW153901   3.216   0.801   1.344 -0.0246  0.6014  0.3540
17249SOL    HW253902   3.233   0.812   1.194 -0.0392 -0.2004  0.2938
17250SOL     OW53903   0.723   7.723   6.681  0.1167 -0.0049 -0.4770
17250SOL    HW153904   0.733   7.658   6.750 -1.0506  1.6346  1.3304
17250SOL    HW253905   0.751   7.677   6.601  0.9227 -2.1611  0.9417
17251SOL     OW53906   1.931   3.005   1.033 -0.0610  0.4094 -0.0953
17251SOL    HW153907   1.888   3.012   1.118 -0.0023  1.5963 -0.1382
17251SOL    HW253908   1.860   3.011   0.969 -0.1219 -0.6451 -0.1405
17252SOL     OW53909   3.366   7.310   8.616  0.1842 -0.3429  0.2528
17252SOL    HW153910   3.415   7.393   8.609  0.7263 -0.6956 -0.1980
17252SOL    HW253911   3.279   7.331   8.582  0.4978 -0.0986 -0.4239
17253SOL     OW53912   4.190   4.909   6.945 -0.2569  0.0039 -0.3963
17253SOL    HW153913   4.146   4.888   7.027  1.4216  2.7246  1.3994
17253SOL    HW253914   4.265   4.850   6.943 -1.6156 -1.7798 -1.3373
17254SOL     OW53915   0.225   8.360   8.480  0.5014 -0.0011  0.6516
17254SOL    HW153916   0.313   8.395   8.471  1.0858 -1.2646  1.2638
17254SOL    HW253917   0.223   8.282   8.425 -0.9981  1.2604 -1.2368
17255SOL     OW53918   7.426   8.301   8.303  0.0820  0.6572 -0.2437
17255SOL    HW153919   7.419   8.394   8.323 -1.0280  0.4018  0.6591
17255SOL    HW253920   7.336   8.272   8.289  0.4408 -0.2128 -0.8528
17256SOL     OW53921   0.601   5.553   7.725 -0.1397 -0.3980 -0.2532
17256SOL    HW153922   0.654   5.475   7.708 -1.7147 -1.2900 -1.2797
17256SOL    HW253923   0.522   5.519   7.767 -0.7165  0.6888 -0.4441
17257SOL     OW53924   3.157   0.300   8.793 -0.1104  0.2793 -0.7092
17257SOL    HW153925   3.167   0.225   8.850 -1.1474  0.3807 -0.3799
17257SOL    HW253926   3.104   0.268   8.719 -0.8750  0.7656 -0.3833
17258SOL     OW53927   4.605   2.366   1.070  0.3541  0.0789 -0.0588
17258SOL    HW153928   4.591   2.274   1.048  1.0819 -0.1370  0.3585
17258SOL    HW253929   4.655   2.365   1.152 -0.8678  0.8565  0.7466
17259SOL     OW53930   2.435   5.769   1.850  0.0049 -0.2651 -0.1659
17259SOL    HW153931   2.504   5.731   1.905 -0.6636  0.4871  1.2269
17259SOL    HW253932   2.358   5.716   1.868 -0.0855 -0.3607 -0.8181
17260SOL     OW53933   8.872   2.192   1.577  0.4083 -0.1071  0.2342
17260SOL    HW153934   8.895   2.209   1.485 -0.0412 -0.5715  0.0297
17260SOL    HW253935   8.928   2.118   1.602  0.0441 -0.4209  0.1242
17261SOL     OW53936   4.906   6.176   4.697  0.0124 -0.3633 -0.1447
17261SOL    HW153937   4.883   6.256   4.745  1.2406 -0.2977  0.3533
17261SOL    HW253938   4.983   6.143   4.741  1.0102 -0.4792 -1.8885
17262SOL     OW53939   2.080   3.189   7.476 -0.2113 -0.1237  0.0203
17262SOL    HW153940   2.161   3.217   7.518  0.3980 -0.8032 -0.6495
17262SOL    HW253941   2.098   3.099   7.448 -1.2621 -0.3415  0.0146
17263SOL     OW53942   1.352   8.026   7.827  0.4939 -0.1449  0.6198
17263SOL    HW153943   1.344   8.084   7.751  1.4480 -1.5212 -0.5649
17263SOL    HW253944   1.264   8.025   7.865  0.0038  0.5830 -0.4463
17264SOL     OW53945   2.093   8.692   5.565  0.3862 -0.3345  0.1437
17264SOL    HW153946   2.152   8.735   5.503  0.2841 -0.9960 -0.4293
17264SOL    HW253947   2.115   8.599   5.558  0.0131 -0.4722  0.7228
17265SOL     OW53948   4.359   2.362   3.090  0.1837 -0.6353  0.0958
17265SOL    HW153949   4.316   2.423   3.150  0.8584 -0.1271  0.0784
17265SOL    HW253950   4.327   2.387   3.003  1.1542  0.3377 -0.0182
17266SOL     OW53951   2.708   5.914   8.840 -0.7411 -0.0471  0.0639
17266SOL    HW153952   2.661   5.833   8.857 -3.4413  1.6080  1.1198
17266SOL    HW253953   2.691   5.969   8.916  2.4582  0.9864  0.2123
17267SOL     OW53954   4.156   8.056   8.088 -0.0826  0.5163  0.2667
17267SOL    HW153955   4.121   8.129   8.036 -1.3769 -0.3939 -0.1858
17267SOL    HW253956   4.124   8.073   8.176 -0.5420  0.3970  0.1241
17268SOL     OW53957   4.753   4.691   0.713  0.5503  0.3340  0.3414
17268SOL    HW153958   4.661   4.670   0.728  0.7271  0.3705  1.6732
17268SOL    HW253959   4.778   4.640   0.637 -0.4428 -0.0773  0.2817
17269SOL     OW53960   8.658   1.727   9.549  0.4539  0.4554  0.0261
17269SOL    HW153961   8.624   1.646   9.588  0.6976  0.3337 -0.0137
17269SOL    HW253962   8.621   1.728   9.461  1.2517 -0.1208 -0.3229
17270SOL     OW53963   2.109   2.502   6.649 -0.1138  0.3601  0.4690
17270SOL    HW153964   2.052   2.428   6.672 -0.6610  0.5689 -0.1952
17270SOL    HW253965   2.192   2.461   6.625 -0.7610 -0.1459 -1.0220
17271SOL     OW53966   1.323   7.486   7.451 -0.6168 -0.1296  0.4480
17271SOL    HW153967   1.295   7.397   7.472 -0.1964 -0.2088  0.6851
17271SOL    HW253968   1.350   7.523   7.535 -1.9421  0.6409  0.5573
17272SOL     OW53969   7.063   7.772   0.478 -0.7396 -0.6058 -0.1490
17272SOL    HW153970   7.062   7.868   0.479  2.2979 -0.4573  0.2142
17272SOL    HW253971   7.047   7.749   0.387  1.1244  0.4572 -0.8195
17273SOL     OW53972   9.131   2.588   1.374 -0.5009 -0.3771 -0.5914
17273SOL    HW153973   9.044   2.594   1.413  0.0841 -0.2132  0.7407
17273SOL    HW253974   9.170   2.509   1.412  0.8302  0.8780  0.8260
17274SOL     OW53975   4.035   5.745   4.387  0.0543  0.3183  0.0931
17274SOL    HW153976   4.071   5.690   4.318 -0.4444  0.6017 -0.4012
17274SOL    HW253977   4.096   5.735   4.460 -0.5141 -1.6183  0.3508
17275SOL     OW53978   6.369   0.508   4.108  0.1128 -0.1291 -0.4977
17275SOL    HW153979   6.291   0.468   4.069  0.1363 -0.5145 -0.1567
17275SOL    HW253980   6.442   0.472   4.058  0.0201  1.0293 -1.5010
17276SOL     OW53981   9.370   0.638   3.466  0.4117  0.1385  0.3496
17276SOL    HW153982   9.420   0.639   3.385  2.0214  0.8262  1.2969
17276SOL    HW253983   9.375   0.728   3.498 -0.5435 -0.0289  1.0212
17277SOL     OW53984   7.052   3.315   6.768 -0.0737  0.0736 -0.0637
17277SOL    HW153985   6.966   3.333   6.731 -0.8486 -0.3295  1.4883
17277SOL    HW253986   7.052   3.359   6.853  0.2308 -2.1013  1.1331
17278SOL     OW53987   2.922   8.435   8.823  0.2345  0.9499  0.5046
17278SOL    HW153988   2.973   8.382   8.761 -0.7076 -0.5789  0.9637
17278SOL    HW253989   2.988   8.477   8.878  1.0352 -0.2289  0.4872
17279SOL     OW53990   6.479   3.089   2.282  0.1015 -0.0732 -0.0329
17279SOL    HW153991   6.401   3.101   2.337 -0.7206 -3.2575 -0.3230
17279SOL    HW253992   6.543   3.151   2.317 -2.5986  2.9441 -0.0127
17280SOL     OW53993   7.830   6.254   4.858  0.4069  0.2698  0.2674
17280SOL    HW153994   7.790   6.190   4.917  1.2693 -0.6390 -0.1063
17280SOL    HW253995   7.912   6.278   4.901  0.5627  0.3621 -0.0759
17281SOL     OW53996   2.183   9.446   8.710  0.5397  0.4468  0.4967
17281SOL    HW153997   2.209   9.466   8.620  1.5831  1.7189  1.0501
17281SOL    HW253998   2.165   9.352   8.710  2.3994  0.0491 -0.6116
17282SOL     OW53999   3.268   4.932   3.846 -0.2669 -0.3505  0.1649
17282SOL    HW154000   3.199   4.975   3.795  0.2168 -0.2648 -0.4237
17282SOL    HW254001   3.348   4.947   3.795 -0.2091 -2.6783 -0.5194
17283SOL     OW54002   3.917   1.782   2.474  0.0991 -0.1929  0.4832
17283SOL    HW154003   3.907   1.688   2.486 -0.1717 -0.1624  0.5002
17283SOL    HW254004   3.979   1.808   2.542  0.5905 -0.4425  0.1379
17284SOL     OW54005   4.727   6.555   0.178 -0.4359 -0.3401  0.4276
17284SOL    HW154006   4.806   6.502   0.181  0.4486  0.8526 -0.5658
17284SOL    HW254007   4.756   6.643   0.202 -0.9940  0.5619 -1.9231
17285SOL     OW54008   9.070   0.116   2.973  0.9411 -0.3371 -0.8869
17285SOL    HW154009   9.010   0.133   2.900  1.0983  1.5709 -0.6183
17285SOL    HW254010   9.053   0.025   2.996 -0.6163 -0.3653 -1.9438
17286SOL     OW54011   9.335   7.821   6.831  0.0838  0.2392  0.2084
17286SOL    HW154012   9.371   7.897   6.785  1.4102 -1.5426 -1.9265
17286SOL    HW254013   9.411   7.768   6.853 -0.8135 -0.5705  1.4987
17287SOL     OW54014   7.713   9.106   1.661  0.3418 -0.1424  0.6042
17287SOL    HW154015   7.787   9.088   1.719  1.0777  0.1849 -0.2072
17287SOL    HW254016   7.645   9.043   1.687  0.1335  0.8490  2.7077
17288SOL     OW54017   9.514   2.166   8.626 -0.0526  0.0439 -0.1143
17288SOL    HW154018   9.523   2.170   8.531  0.1876  1.1104 -0.0537
17288SOL    HW254019   9.601   2.143   8.658  0.2783  1.2893 -0.0707
17289SOL     OW54020   6.735   0.757   3.665 -0.3623  0.0611 -0.4055
17289SOL    HW154021   6.723   0.851   3.655 -0.2502  0.2548  1.1190
17289SOL    HW254022   6.687   0.734   3.744 -0.3399 -1.1618 -0.7218
17290SOL     OW54023   2.379   2.274   7.387 -0.0151  0.2564  0.2182
17290SOL    HW154024   2.394   2.194   7.437  0.8194  0.4141  0.2225
17290SOL    HW254025   2.362   2.244   7.298  1.7707  0.1228 -0.1169
17291SOL     OW54026   0.983   8.519   8.077  0.0977  0.8916 -0.5854
17291SOL    HW154027   0.921   8.591   8.065 -1.4310 -0.1159  0.7186
17291SOL    HW254028   0.943   8.445   8.032  0.1321  0.1266  0.5883
17292SOL     OW54029   6.378   1.331   1.758 -0.1297  0.0884 -0.2484
17292SOL    HW154030   6.402   1.301   1.846 -0.7899 -3.0305 -1.0035
17292SOL    HW254031   6.453   1.308   1.703  0.2747  1.9980 -0.5506
17293SOL     OW54032   7.290   9.177   1.724  0.1334 -0.1218  0.3719
17293SOL    HW154033   7.317   9.180   1.632 -1.3277 -0.0467 -0.0741
17293SOL    HW254034   7.221   9.111   1.727 -1.2776  1.3098  0.9988
17294SOL     OW54035   8.614   6.585   3.255  0.5443 -0.1381  0.0193
17294SOL    HW154036   8.568   6.522   3.199 -0.2129 -0.7294  1.2677
17294SOL    HW254037   8.645   6.653   3.195 -0.0418 -0.8685 -1.1379
17295SOL     OW54038   1.303   4.002   3.939 -0.4805  0.4247  0.1139
17295SOL    HW154039   1.243   4.069   3.973  1.3250  1.3940  1.6252
17295SOL    HW254040   1.348   3.968   4.017 -0.1874 -1.4084 -0.7973
17296SOL     OW54041   4.610   3.168   6.809 -0.3794  0.2455  0.1959
17296SOL    HW154042   4.630   3.130   6.895  0.4911 -0.8760 -0.4812
17296SOL    HW254043   4.525   3.210   6.821 -0.7873 -0.8356  1.3284
17297SOL     OW54044   1.123   1.088   8.384  0.4509  0.8070  0.5169
17297SOL    HW154045   1.145   1.029   8.456 -0.7910  0.6688  0.8149
17297SOL    HW254046   1.040   1.128   8.411 -0.3892  0.2522 -1.1230
17298SOL     OW54047   9.216   6.833   4.916  0.8516  0.8606  0.4901
17298SOL    HW154048   9.134   6.856   4.873 -0.7922 -1.2093  2.3191
17298SOL    HW254049   9.278   6.819   4.844 -0.9022  0.5994 -1.0309
17299SOL     OW54050   6.774   6.460   9.348  0.7141  0.0920  0.2329
17299SOL    HW154051   6.803   6.368   9.343  2.2927  0.6213 -1.2600
17299SOL    HW254052   6.855   6.510   9.358 -0.0705  1.3761  0.3337
17300SOL     OW54053   0.941   6.640   2.513 -0.4889  0.3495 -0.4196
17300SOL    HW154054   1.013   6.672   2.568 -0.5515 -0.3763  0.1109
17300SOL    HW254055   0.936   6.546   2.535 -1.4540  0.3539 -0.6150
17301SOL     OW54056   2.939   0.262   0.739  0.1004  0.1852 -0.1720
17301SOL    HW154057   2.994   0.302   0.672  2.3825 -4.2984 -1.4249
17301SOL    HW254058   2.865   0.225   0.690 -0.3345  0.2354  0.4347
17302SOL     OW54059   6.832   1.425   4.609  0.2226  0.2889 -0.4643
17302SOL    HW154060   6.822   1.398   4.701 -1.3806  3.2469  0.3694
17302SOL    HW254061   6.797   1.351   4.559 -1.6759 -0.2390  1.4772
17303SOL     OW54062   8.733   8.067   4.842 -0.2625 -0.1376 -0.3181
17303SOL    HW154063   8.791   8.110   4.905 -0.9636  1.2809 -0.6051
17303SOL    HW254064   8.741   7.974   4.862  1.1715  0.1226  0.4428
17304SOL     OW54065   7.456   1.309   1.684  0.4394  0.4142  0.4578
17304SOL    HW154066   7.445   1.294   1.777 -1.9848 -0.6418  0.0677
17304SOL    HW254067   7.453   1.222   1.644  0.2753  0.9244 -0.7047
17305SOL     OW54068   2.027   8.187   9.546  0.2400 -0.1221  0.9128
17305SOL    HW154069   2.075   8.267   9.569 -0.4456  1.5397 -2.7389
17305SOL    HW254070   1.936   8.215   9.541 -0.0246 -1.1444 -0.2745
17306SOL     OW54071   1.826   6.190   1.679  0.5673  0.0915 -0.2466
17306SOL    HW154072   1.886   6.190   1.753  0.6949  0.9622 -0.3331
17306SOL    HW254073   1.875   6.147   1.609  0.7270 -0.0596 -0.0447
17307SOL     OW54074   0.789   5.150   9.504  0.2908  0.7266 -0.1984
17307SOL    HW154075   0.823   5.066   9.533 -0.8849 -0.6937 -2.6369
17307SOL    HW254076   0.860   5.188   9.452  0.5617  0.9025  0.2998
17308SOL     OW54077   7.018   1.012   6.291 -0.1761 -0.4278 -0.4528
17308SOL    HW154078   6.989   0.936   6.342 -0.2778 -1.7651 -2.3934
17308SOL    HW254079   6.939   1.066   6.281  0.0929  0.4760  1.6979
17309SOL     OW54080   3.729   8.294   1.162  0.3939  0.1497  0.2552
17309SOL    HW154081   3.703   8.289   1.070 -1.5553 -0.4909  0.7999
17309SOL    HW254082   3.757   8.206   1.185  1.8827  0.5378  0.0385
17310SOL     OW54083   5.356   5.290   8.759  0.4533 -0.0846  0.0449
17310SOL    HW154084   5.423   5.227   8.786  0.5721  1.0492  2.7978
17310SOL    HW254085   5.405   5.369   8.737  0.1873 -0.3196 -1.5048
17311SOL     OW54086   2.939   3.890   2.825  0.0363  0.4726 -0.0324
17311SOL    HW154087   2.994   3.844   2.889 -0.8735  0.5110  0.8064
17311SOL    HW254088   2.996   3.956   2.787  1.3285 -1.2044 -1.1265
17312SOL     OW54089   7.934   8.076   2.212 -0.2292  0.1837  0.0357
17312SOL    HW154090   7.990   8.034   2.147 -1.4146 -1.9648  0.2920
17312SOL    HW254091   7.870   8.126   2.160 -2.3989 -3.0844 -0.7102
17313SOL     OW54092   5.431   1.872   3.611  0.1314 -0.3375  0.1206
17313SOL    HW154093   5.480   1.813   3.552  0.3670 -0.8835  0.8509
17313SOL    HW254094   5.342   1.873   3.574  0.4072 -0.2388 -0.5617
17314SOL     OW54095   8.633   9.042   5.688  0.1921  0.1529  0.0510
17314SOL    HW154096   8.654   8.950   5.673 -2.7870 -0.6057 -0.0939
17314SOL    HW254097   8.619   9.079   5.601 -1.7753 -0.1563  0.1950
17315SOL     OW54098   5.661   8.427   2.753 -0.3827 -0.1045 -0.5528
17315SOL    HW154099   5.568   8.440   2.774 -0.5664  0.4012 -1.6540
17315SOL    HW254100   5.679   8.337   2.783 -1.4016 -0.4533 -0.9479
17316SOL     OW54101   9.161   2.834   3.019 -0.4730  0.0059  0.5630
17316SOL    HW154102   9.200   2.747   3.023 -1.6652 -0.5079  1.7643
17316SOL    HW254103   9.110   2.834   2.938 -0.1254 -0.2580  0.3402
17317SOL     OW54104   3.628   6.252   3.352 -0.7050  0.3369  0.5063
17317SOL    HW154105   3.714   6.291   3.370 -0.1999 -0.3831 -0.2833
17317SOL    HW254106   3.568   6.299   3.410  0.3201  0.4044  1.5621
17318SOL     OW54107   7.414   0.682   0.293 -0.0347  0.6041 -0.0622
17318SOL    HW154108   7.332   0.632   0.300  0.1058  0.1958 -1.0622
17318SOL    HW254109   7.464   0.636   0.226  1.4163  0.3319  1.1686
17319SOL     OW54110   4.135   5.900   9.613  0.2105 -0.4914 -0.2613
17319SOL    HW154111   4.066   5.837   9.593 -0.5927  0.6907 -1.2771
17319SOL    HW254112   4.094   5.986   9.604  1.5476  0.2210  0.1193
17320SOL     OW54113   3.518   0.512   5.503 -0.2504 -0.0670  0.0579
17320SOL    HW154114   3.613   0.516   5.493 -0.0723 -1.2092  1.0736
17320SOL    HW254115   3.502   0.430   5.550 -1.8269 -0.4789 -1.0774
17321SOL     OW54116   1.295   7.961   5.144 -0.0326 -0.2488 -0.3396
17321SOL    HW154117   1.337   8.035   5.101  0.6700 -0.4053  0.0576
17321SOL    HW254118   1.327   7.884   5.095  2.0115 -0.5674  1.3489
17322SOL     OW54119   6.316   4.127   0.208 -0.3935  0.4391 -0.2438
17322SOL    HW154120   6.366   4.131   0.289 -2.8324 -2.2617  1.6035
17322SOL    HW254121   6.321   4.035   0.182 -0.9705  0.9457 -2.3064
17323SOL     OW54122   2.507   1.095   4.653  0.6390  0.0318  0.9413
17323SOL    HW154123   2.588   1.049   4.630  0.2761 -0.5901  0.8708
17323SOL    HW254124   2.533   1.186   4.667  1.3245 -0.1397  0.7856
17324SOL     OW54125   2.908   8.216   8.632  0.0806  0.1181 -0.0596
17324SOL    HW154126   2.860   8.298   8.618  0.9557  0.5127 -0.8407
17324SOL    HW254127   2.909   8.173   8.547  2.6970  1.0187 -0.5761
17325SOL     OW54128   4.970   2.201   7.508  0.9132  0.2031  0.8277
17325SOL    HW154129   4.881   2.235   7.500  0.1928 -1.6977  0.1462
17325SOL    HW254130   4.999   2.230   7.594 -0.2862  1.0339  0.9760
17326SOL     OW54131   0.662   9.612   0.743  0.3889  0.1706 -0.0658
17326SOL    HW154132   0.580   9.648   0.776 -0.8900 -2.0825 -0.5582
17326SOL    HW254133   0.684   9.668   0.668  0.5304  2.1145  1.3428
17327SOL     OW54134   4.327   6.002   2.148 -0.3698  0.1794  0.5307
17327SOL    HW154135   4.234   5.999   2.126 -0.3683  1.4946  0.2931
17327SOL    HW254136   4.331   5.966   2.236 -0.8967 -1.2950 -0.0098
17328SOL     OW54137   7.657   4.270   0.435  0.0704 -0.3377  0.1510
17328SOL    HW154138   7.654   4.191   0.381 -0.3075 -1.2396  1.4652
17328SOL    HW254139   7.586   4.260   0.498 -0.7576  1.6158 -0.3732
17329SOL     OW54140   1.384   0.599   1.283  0.0073 -0.5736 -0.7530
17329SOL    HW154141   1.348   0.543   1.215 -4.2043  1.4215 -0.4602
17329SOL    HW254142   1.363   0.555   1.365  0.8850 -0.7069 -0.5805
17330SOL     OW54143   4.585   9.085   0.500  0.4044 -0.2367 -0.4173
17330SOL    HW154144   4.535   9.154   0.456  0.2955  0.5368  0.8823
17330SOL    HW254145   4.657   9.066   0.440 -0.2711  0.0990 -1.3730
17331SOL     OW54146   8.600   0.248   7.706 -0.1321  0.2531 -0.2090
17331SOL    HW154147   8.692   0.271   7.688 -0.4549  1.1935 -0.7005
17331SOL    HW254148   8.555   0.332   7.714 -0.3673 -0.0454  3.3816
17332SOL     OW54149   2.914   4.670   0.097  0.0339  0.2964 -0.3855
17332SOL    HW154150   2.838   4.721   0.069  0.1650  1.6132  1.4146
17332SOL    HW254151   2.880   4.583   0.114 -1.3191  1.0669  1.1863
17333SOL     OW54152   8.461   0.188   9.503 -0.5397 -0.1514  0.0337
17333SOL    HW154153   8.552   0.193   9.533 -0.0523  0.3111 -1.4145
17333SOL    HW254154   8.431   0.102   9.531  0.3731 -0.3419  0.4736
17334SOL     OW54155   2.385   8.516   8.461  0.0580  0.0473 -0.0629
17334SOL    HW154156   2.417   8.431   8.490 -0.0344  0.5229  1.5392
17334SOL    HW254157   2.317   8.539   8.525  0.7968  1.7673  0.1558
17335SOL     OW54158   2.632   1.889   1.452  0.2366  0.4757 -0.1193
17335SOL    HW154159   2.598   1.969   1.492  2.9544  1.8019 -0.2187
17335SOL    HW254160   2.556   1.849   1.409 -1.6783  1.7584  1.8752
17336SOL     OW54161   5.072   4.205   2.667 -0.6715 -0.2912 -0.1188
17336SOL    HW154162   5.072   4.124   2.717 -0.2950  0.3258  0.9025
17336SOL    HW254163   5.114   4.269   2.724  0.4746  0.2604 -1.5022
17337SOL     OW54164   7.614   1.295   2.659 -0.5848  0.0812  0.5302
17337SOL    HW154165   7.597   1.328   2.571  2.1279  1.1184  0.3255
17337SOL    HW254166   7.585   1.366   2.717 -0.5188  0.2245  0.3878
17338SOL     OW54167   1.539   7.795   6.711  0.1734 -0.4532 -0.3775
17338SOL    HW154168   1.532   7.890   6.709 -1.0145 -0.5073  0.0389
17338SOL    HW254169   1.624   7.777   6.751  0.0070  0.4382  0.4122
17339SOL     OW54170   5.660   2.728   5.865 -0.1832 -0.0286  0.4598
17339SOL    HW154171   5.753   2.751   5.859  0.3204 -1.7203  1.0935
17339SOL    HW254172   5.619   2.804   5.906  0.8207  0.9652 -0.3235
17340SOL     OW54173   9.370   1.591   1.092  0.3111  0.0824 -0.4377
17340SOL    HW154174   9.357   1.496   1.091 -0.2419  0.1331  0.6000
17340SOL    HW254175   9.453   1.604   1.137  2.0309 -0.0244 -3.3224
17341SOL     OW54176   9.038   5.130   1.109  0.2042  0.6199 -0.0065
17341SOL    HW154177   9.043   5.140   1.014 -2.9804 -0.6060 -0.4331
17341SOL    HW254178   8.987   5.206   1.138  1.9778  1.5198  0.9457
17342SOL     OW54179   1.804   2.356   2.554 -0.6747 -0.2304  0.6151
17342SOL    HW154180   1.803   2.352   2.459 -0.2936  0.5435  0.5682
17342SOL    HW254181   1.874   2.296   2.580  0.5416  0.9965  0.2981
17343SOL     OW54182   9.277   1.162   3.540 -0.0861 -0.2442 -0.4270
17343SOL    HW154183   9.350   1.166   3.602  0.1118  0.5512 -0.6989
17343SOL    HW254184   9.205   1.205   3.585 -0.2322 -0.5364 -0.3763
17344SOL     OW54185   0.180   3.460   0.693 -0.0023 -0.0995  0.3854
17344SOL    HW154186   0.105   3.495   0.742  1.2090  0.0496  2.2170
17344SOL    HW254187   0.186   3.369   0.721 -0.0512 -0.3655 -0.4665
17345SOL     OW54188   2.733   9.502   2.021  0.1058 -0.2704 -0.3522
17345SOL    HW154189   2.654   9.479   2.070  0.4309 -2.1095 -0.5969
17345SOL    HW254190   2.803   9.456   2.067  0.5963 -1.0185 -1.7745
17346SOL     OW54191   1.552   5.279   7.946 -0.4201 -0.2980 -0.0330
17346SOL    HW154192   1.466   5.245   7.971 -0.3693 -0.6243 -0.2896
17346SOL    HW254193   1.547   5.373   7.963 -0.4663 -0.4747  0.9670
17347SOL     OW54194   7.669   1.683   9.606  0.4796  0.0080 -0.7645
17347SOL    HW154195   7.694   1.591   9.600 -1.4446 -0.6075 -0.2742
17347SOL    HW254196   7.736   1.730   9.557  2.4877 -1.4474  0.4225
17348SOL     OW54197   1.968   3.051   6.922  0.3294 -0.0567 -0.0555
17348SOL    HW154198   1.940   3.019   6.836 -0.7934  0.6067  0.0410
17348SOL    HW254199   1.942   2.982   6.983  0.7529 -0.3440 -0.1961
17349SOL     OW54200   4.765   7.490   2.037 -0.4276  0.0904  0.1184
17349SOL    HW154201   4.803   7.510   1.951 -0.7227  2.2398  0.4308
17349SOL    HW254202   4.681   7.448   2.016  0.0463 -0.5244 -0.6111
17350SOL     OW54203   2.797   5.138   1.545  0.1425  0.3777  0.2000
17350SOL    HW154204   2.822   5.045   1.549  2.0512  0.8359 -0.0318
17350SOL    HW254205   2.720   5.144   1.601 -0.4859 -1.4741 -0.3585
17351SOL     OW54206   5.224   3.488   2.132  0.2490 -0.3626  0.0839
17351SOL    HW154207   5.231   3.518   2.223  0.6675  1.8671 -0.6108
17351SOL    HW254208   5.130   3.478   2.118  0.2593 -3.1373  1.4121
17352SOL     OW54209   0.696   3.264   2.224 -0.1147  0.5881  0.4143
17352SOL    HW154210   0.761   3.234   2.287 -0.3403  2.2899  1.5322
17352SOL    HW254211   0.642   3.188   2.206  1.3538 -0.5159  0.4831
17353SOL     OW54212   2.743   2.923   2.921 -0.7179  0.2397  0.1780
17353SOL    HW154213   2.783   3.009   2.937  0.7765 -0.5324  0.8093
17353SOL    HW254214   2.656   2.930   2.960 -0.6580  1.4980  0.1466
17354SOL     OW54215   8.611   6.075   7.515  0.1653 -0.0621 -0.1653
17354SOL    HW154216   8.700   6.074   7.550  0.8554  0.6392 -1.8388
17354SOL    HW254217   8.605   5.995   7.462 -0.8390 -1.0568  1.3517
17355SOL     OW54218   3.268   8.828   1.696  0.3896  0.5853  0.3674
17355SOL    HW154219   3.203   8.892   1.726 -0.1213 -0.4698  1.5887
17355SOL    HW254220   3.352   8.867   1.720  0.0410  0.3556  2.0602
17356SOL     OW54221   4.161   1.934   3.175  0.0718 -0.4462  0.2143
17356SOL    HW154222   4.081   1.956   3.128  0.3200  0.1734  0.0600
17356SOL    HW254223   4.153   1.980   3.259  0.4176 -0.0697  0.0513
17357SOL     OW54224   9.072   8.242   4.639  0.0846 -0.2138 -0.0042
17357SOL    HW154225   9.121   8.226   4.558  0.7961  0.9205  0.1812
17357SOL    HW254226   8.998   8.297   4.612  1.1277  1.4107  0.2997
17358SOL     OW54227   7.519   0.972   6.023  0.1713  0.0177 -0.9325
17358SOL    HW154228   7.507   1.039   5.956 -0.7104  0.1955 -0.6087
17358SOL    HW254229   7.460   0.901   5.997 -0.7599  0.4128  0.0697
17359SOL     OW54230   7.137   7.414   5.718 -0.1821 -0.1458 -0.0786
17359SOL    HW154231   7.200   7.404   5.646  0.3326 -1.6636  0.5450
17359SOL    HW254232   7.129   7.509   5.729 -0.7917  0.1671 -2.5616
17360SOL     OW54233   1.697   8.542   0.925 -0.3516 -0.1443 -0.2047
17360SOL    HW154234   1.754   8.472   0.896 -1.1704 -0.9447  0.0833
17360SOL    HW254235   1.630   8.548   0.856 -1.8372 -1.5010  1.0460
17361SOL     OW54236   5.955   4.026   1.357  0.1401 -0.0907  0.2375
17361SOL    HW154237   5.950   4.116   1.391  0.7845  0.1667 -0.3311
17361SOL    HW254238   5.897   3.976   1.414 -2.6793  1.2408 -1.3016
17362SOL     OW54239   5.378   2.800   4.021 -0.7761 -0.0454 -0.4089
17362SOL    HW154240   5.360   2.773   3.931 -2.3008 -2.1420  0.4549
17362SOL    HW254241   5.312   2.868   4.039 -1.2735 -0.4986 -0.4962
17363SOL     OW54242   9.595   6.118   8.049 -0.2822 -0.0331  0.1337
17363SOL    HW154243   9.602   6.025   8.028 -2.0860 -0.1986  0.1410
17363SOL    HW254244   9.629   6.125   8.139 -2.2683 -1.1126  1.0236
17364SOL     OW54245   1.653   6.417   1.779  0.0914  0.3689 -0.0841
17364SOL    HW154246   1.730   6.474   1.781 -0.7350  1.5219  1.5857
17364SOL    HW254247   1.680   6.342   1.726  2.0570  1.1448 -0.2743
17365SOL     OW54248   3.039   5.207   0.466 -0.3143 -0.1341 -0.0490
17365SOL    HW154249   3.050   5.302   0.460 -2.4916  0.2457  0.9244
17365SOL    HW254250   3.126   5.171   0.448  0.9186  2.0998  1.0533
17366SOL     OW54251   7.587   5.414   0.897 -0.5526  0.2431  0.0554
17366SOL    HW154252   7.541   5.495   0.919 -0.2395  0.7940 -1.2313
17366SOL    HW254253   7.662   5.412   0.956 -0.9297  0.5409  0.5509
17367SOL     OW54254   7.467   8.198   8.600 -0.4376  0.0271  0.1525
17367SOL    HW154255   7.490   8.228   8.512 -1.3050 -0.3399 -0.2127
17367SOL    HW254256   7.489   8.272   8.657  1.7484 -0.3566 -0.1273
17368SOL     OW54257   0.876   0.551   8.279 -0.5614 -0.5963  0.0908
17368SOL    HW154258   0.823   0.629   8.262  1.3456  1.2014  1.7741
17368SOL    HW254259   0.823   0.499   8.339 -1.8307 -0.6060 -0.9799
17369SOL     OW54260   6.997   1.514   7.151 -0.6942  0.3521  0.3884
17369SOL    HW154261   6.922   1.562   7.188 -1.5160  0.3305 -1.1795
17369SOL    HW254262   7.024   1.566   7.076  0.8066  0.2831  0.8543
17370SOL     OW54263   4.846   0.935   8.341  0.5795 -0.3706  0.1584
17370SOL    HW154264   4.888   0.975   8.265 -2.2811 -2.6535 -2.9453
17370SOL    HW254265   4.907   0.867   8.368  1.8547  0.7686  0.2247
17371SOL     OW54266   5.639   1.180   6.852 -0.2070 -0.2337  0.3566
17371SOL    HW154267   5.720   1.167   6.803 -0.9917  0.8835 -1.3083
17371SOL    HW254268   5.609   1.267   6.826 -1.2565 -0.0552  1.9970
17372SOL     OW54269   3.721   5.658   4.052  0.0713  0.0573 -0.4196
17372SOL    HW154270   3.759   5.574   4.076  0.0008  0.1135 -0.1060
17372SOL    HW254271   3.784   5.696   3.990  0.3604  0.0000 -0.1670
17373SOL     OW54272   9.269   1.814   7.138  0.0914 -0.1743  0.4932
17373SOL    HW154273   9.199   1.759   7.171  0.8798 -0.3140  2.0358
17373SOL    HW254274   9.349   1.766   7.158  0.6691  0.2270 -0.7481
17374SOL     OW54275   0.825   2.044   4.762 -0.0102 -0.1607  0.3724
17374SOL    HW154276   0.794   2.111   4.823  1.1933  0.2447  0.5697
17374SOL    HW254277   0.835   2.089   4.679 -1.0926 -0.5778  0.0070
17375SOL     OW54278   8.336   5.472   3.496  0.3480  0.4668  0.1537
17375SOL    HW154279   8.419   5.505   3.530 -1.0726  1.6611  2.7488
17375SOL    HW254280   8.359   5.387   3.457  2.9297  1.2558 -0.2642
17376SOL     OW54281   5.735   8.777   4.840  0.1360 -0.1206 -0.3571
17376SOL    HW154282   5.689   8.780   4.923 -1.3442  0.5023 -1.1567
17376SOL    HW254283   5.698   8.702   4.794  1.3886 -0.8470 -0.2380
17377SOL     OW54284   3.158   2.597   6.962  0.0373 -0.1199  0.3676
17377SOL    HW154285   3.206   2.517   6.984 -0.5402  0.1929  3.1872
17377SOL    HW254286   3.199   2.665   7.017 -2.2095  0.5900  1.2942
17378SOL     OW54287   4.882   3.361   2.449 -0.5143  0.2474  0.4484
17378SOL    HW154288   4.863   3.280   2.401  0.3416  1.2612 -1.6991
17378SOL    HW254289   4.797   3.386   2.487 -1.0346 -1.0554  0.2011
17379SOL     OW54290   9.013   6.634   5.902  0.7194 -0.0798 -0.4650
17379SOL    HW154291   8.981   6.632   5.812 -2.3366  0.1170  0.4827
17379SOL    HW254292   9.038   6.544   5.920 -1.2767 -0.7513 -0.7496
17380SOL     OW54293   5.134   5.444   4.557 -0.6592  0.4217 -0.0626
17380SOL    HW154294   5.068   5.421   4.492 -0.5351 -0.8183  0.2126
17380SOL    HW254295   5.215   5.451   4.508 -0.7923  0.7882 -0.2316
17381SOL     OW54296   4.866   1.803   3.767 -0.4420  0.5926  0.3808
17381SOL    HW154297   4.962   1.806   3.772 -0.4272  0.3651  0.2319
17381SOL    HW254298   4.844   1.868   3.700 -0.5852  2.9041  2.5150
17382SOL     OW54299   1.909   7.560   2.028 -0.3098 -0.2392  0.3097
17382SOL    HW154300   1.893   7.537   2.120  0.8923 -0.9348  0.3646
17382SOL    HW254301   1.977   7.627   2.032 -1.5505  1.0959 -0.0114
17383SOL     OW54302   2.632   5.153   3.679 -0.4318  0.3181 -0.3668
17383SOL    HW154303   2.612   5.135   3.771  2.1925  1.3190  0.4681
17383SOL    HW254304   2.612   5.070   3.634  2.0620 -1.6218  1.8010
17384SOL     OW54305   2.777   9.372   7.101  0.0654 -0.4108 -0.4312
17384SOL    HW154306   2.865   9.361   7.067  0.4639 -0.8042  0.6723
17384SOL    HW254307   2.720   9.367   7.024  1.0404  0.5086 -1.2360
17385SOL     OW54308   3.073   9.090   6.172  0.0289 -0.2521 -0.1134
17385SOL    HW154309   3.065   9.183   6.149  1.9827  1.2543  4.2175
17385SOL    HW254310   3.087   9.046   6.088  0.7883  3.5591 -2.2320
17386SOL     OW54311   8.890   0.950   7.411 -0.0191  0.0031  0.2528
17386SOL    HW154312   8.844   0.880   7.366  0.3161  0.1963 -0.4049
17386SOL    HW254313   8.979   0.917   7.422 -0.2842 -0.3397  1.4517
17387SOL     OW54314   4.369   2.327   5.215  0.2192  0.2471 -0.3406
17387SOL    HW154315   4.424   2.249   5.216 -1.3409 -1.0781 -3.4292
17387SOL    HW254316   4.430   2.400   5.224  1.7978 -1.2375  1.9955
17388SOL     OW54317   4.090   4.735   2.448  0.1155 -0.4400 -0.1765
17388SOL    HW154318   4.064   4.709   2.360  1.9252  1.2213 -1.2955
17388SOL    HW254319   4.072   4.659   2.503 -0.3616 -1.7917 -2.1175
17389SOL     OW54320   7.627   5.668   1.625  0.4071  0.3994  0.2335
17389SOL    HW154321   7.531   5.666   1.618  0.3751  1.1717  0.3402
17389SOL    HW254322   7.651   5.753   1.589  1.1382 -0.1666 -0.6522
17390SOL     OW54323   8.852   0.078   7.811  0.1925 -0.0337 -0.7368
17390SOL    HW154324   8.833   0.010   7.747  0.0793  0.2047 -0.9579
17390SOL    HW254325   8.852   0.159   7.761  1.3483  0.0269 -0.6739
17391SOL     OW54326   4.030   1.038   7.377  0.2443 -0.0228 -0.0000
17391SOL    HW154327   4.082   1.064   7.453 -2.2080 -1.5971  2.4272
17391SOL    HW254328   4.088   0.980   7.328  1.5444  0.0550  1.3536
17392SOL     OW54329   1.960   8.986   8.866  0.0409  0.5003  0.0857
17392SOL    HW154330   1.955   9.070   8.821  0.0134  1.1060  1.2037
17392SOL    HW254331   2.002   9.005   8.950 -0.7806 -0.4410  0.7323
17393SOL     OW54332   0.839   8.260   4.233  0.3282 -0.0720 -0.2104
17393SOL    HW154333   0.858   8.333   4.174 -0.4115 -0.8990 -1.5468
17393SOL    HW254334   0.885   8.281   4.314  0.3724  1.7090 -0.6669
17394SOL     OW54335   2.688   0.891   9.276 -0.3429 -0.0028  0.1397
17394SOL    HW154336   2.707   0.853   9.190  1.9291 -0.8502  0.9606
17394SOL    HW254337   2.666   0.816   9.331  1.6380  0.0990  1.1353
17395SOL     OW54338   8.234   5.278   8.896  0.6165  0.1487  0.6593
17395SOL    HW154339   8.232   5.293   8.990  0.7903 -0.2996  0.7361
17395SOL    HW254340   8.271   5.358   8.859 -0.3736  0.7244  0.8856
17396SOL     OW54341   5.750   2.855   7.015  0.4998  0.4386 -0.1743
17396SOL    HW154342   5.716   2.816   7.095  1.5517  0.5086  0.3240
17396SOL    HW254343   5.841   2.824   7.010  1.0224  1.9328 -0.3373
17397SOL     OW54344   5.427   9.352   9.055 -0.3394  0.0794  0.0520
17397SOL    HW154345   5.382   9.273   9.084  0.0497  0.1258  0.8323
17397SOL    HW254346   5.393   9.370   8.968  0.3751 -1.5872 -0.6073
17398SOL     OW54347   9.611   0.325   5.244  0.2363  0.1012 -0.4601
17398SOL    HW154348   9.558   0.402   5.264  1.0313  0.4923  0.2074
17398SOL    HW254349   9.631   0.333   5.151 -1.2512 -0.3009 -0.8395
17399SOL     OW54350   4.748   8.959   1.769 -0.4949 -0.0938 -0.2372
17399SOL    HW154351   4.768   8.889   1.831  2.8829  1.5226  0.7399
17399SOL    HW254352   4.708   8.914   1.695 -1.3828 -2.5752  1.5905
17400SOL     OW54353   2.676   2.188   7.032  0.2226 -0.3169  0.5182
17400SOL    HW154354   2.631   2.189   6.947  0.4107 -0.4892  0.4166
17400SOL    HW254355   2.724   2.106   7.033 -0.2329 -0.5791  1.0369
17401SOL     OW54356   3.515   3.434   3.751 -0.1748  0.3524  0.2825
17401SOL    HW154357   3.607   3.443   3.778 -0.1599 -1.5851  1.1096
17401SOL    HW254358   3.465   3.458   3.829 -0.3652  1.0958 -0.0662
17402SOL     OW54359   4.050   3.869   9.215 -0.1994  0.1945 -0.0810
17402SOL    HW154360   4.103   3.947   9.204  0.2742  0.2329  2.0316
17402SOL    HW254361   3.960   3.901   9.218  0.0531  0.8462  1.8490
17403SOL     OW54362   4.609   2.959   7.919 -0.8053  0.1869 -0.0880
17403SOL    HW154363   4.687   2.978   7.867  1.0308 -0.2901  2.2676
17403SOL    HW254364   4.594   3.039   7.969 -0.9930 -0.1700  0.4380
17404SOL     OW54365   5.030   6.187   1.626 -0.1367 -0.0682 -0.7178
17404SOL    HW154366   5.003   6.156   1.713  3.2985  2.0250  1.3013
17404SOL    HW254367   5.009   6.280   1.626 -0.5204 -0.1292 -2.3869
17405SOL     OW54368   5.943   2.735   0.547 -0.4355  0.1322  0.7221
17405SOL    HW154369   5.951   2.777   0.462 -0.9921  0.7678  0.9713
17405SOL    HW254370   5.914   2.805   0.606  4.9220  1.2439  2.6872
17406SOL     OW54371   1.391   2.796   0.835 -0.3620 -0.4067  1.1758
17406SOL    HW154372   1.336   2.831   0.904  0.6593 -0.7954  2.2211
17406SOL    HW254373   1.355   2.709   0.816  0.1676 -0.8716  2.2193
17407SOL     OW54374   5.422   7.626   3.016  0.2423 -0.4837 -0.2272
17407SOL    HW154375   5.364   7.559   3.052  0.6537  0.0492  1.5397
17407SOL    HW254376   5.493   7.633   3.080 -0.4031  2.4358  0.3153
17408SOL     OW54377   2.894   5.150   8.334  0.0513 -0.5445 -0.3423
17408SOL    HW154378   2.836   5.214   8.292 -1.2032 -1.0089  0.6099
17408SOL    HW254379   2.964   5.136   8.270 -1.2672 -0.5021 -1.8638
17409SOL     OW54380   4.393   1.558   0.686  0.3746  0.1033  0.1814
17409SOL    HW154381   4.424   1.510   0.763 -0.5703  0.3414  0.7258
17409SOL    HW254382   4.298   1.557   0.694  0.2517 -0.0949 -1.1368
17410SOL     OW54383   0.060   3.575   1.937  0.1074 -0.2986 -0.0068
17410SOL    HW154384  -0.020   3.620   1.962 -0.7144 -1.6231 -0.1887
17410SOL    HW254385   0.031   3.502   1.882  1.5929  0.5718 -2.0920
17411SOL     OW54386   4.448   3.575   0.999  0.2384 -0.1952 -0.3937
17411SOL    HW154387   4.533   3.609   0.972 -0.4363  1.7293 -0.2534
17411SOL    HW254388   4.418   3.636   1.067 -1.2216 -0.8640 -0.4053
17412SOL     OW54389   8.299   9.159   5.564 -0.6416 -0.4751  0.4981
17412SOL    HW154390   8.315   9.087   5.503  0.6322  0.7819 -0.7223
17412SOL    HW254391   8.257   9.227   5.511  0.0396  0.4563  1.1132
17413SOL     OW54392   2.841   4.751   6.668  0.2024 -0.4847 -0.5331
17413SOL    HW154393   2.851   4.828   6.613  3.0036 -0.2016  0.2278
17413SOL    HW254394   2.859   4.782   6.756 -1.8143 -1.4187  0.2551
17414SOL     OW54395   3.915   4.056   0.896 -0.1345 -0.0973 -0.4530
17414SOL    HW154396   3.921   4.031   0.988 -1.4072  3.0320  0.6133
17414SOL    HW254397   3.821   4.059   0.877  0.0368  1.1056 -1.2596
17415SOL     OW54398   0.305   4.433   9.226 -0.1466  0.3471 -0.5239
17415SOL    HW154399   0.278   4.367   9.289  0.7158  0.4256 -0.0484
17415SOL    HW254400   0.399   4.444   9.241  0.0162  0.6020 -1.6111
17416SOL     OW54401   1.890   6.689   3.289 -0.7465  0.5737 -0.3732
17416SOL    HW154402   1.919   6.689   3.197 -2.4938 -0.2903 -0.9782
17416SOL    HW254403   1.886   6.597   3.313 -0.5674  0.7883  0.5067
17417SOL     OW54404   5.372   4.293   5.641 -0.7183 -0.0146 -0.4516
17417SOL    HW154405   5.419   4.221   5.683  1.1762  1.2691 -0.2850
17417SOL    HW254406   5.367   4.268   5.549 -1.7087 -1.1647 -0.1244
17418SOL     OW54407   6.218   1.166   7.139 -0.0891 -0.4689 -0.2081
17418SOL    HW154408   6.169   1.147   7.059 -0.1009 -2.4967  0.2095
17418SOL    HW254409   6.234   1.260   7.136 -0.8904 -0.3421 -2.1239
17419SOL     OW54410   2.042   6.574   1.108 -0.4998  0.5008 -0.2525
17419SOL    HW154411   1.967   6.517   1.123 -2.4589  2.7035 -1.1576
17419SOL    HW254412   2.033   6.644   1.173  2.4860 -0.6303  1.6109
17420SOL     OW54413   0.784   0.566   4.609  0.1393  0.0032 -0.0291
17420SOL    HW154414   0.855   0.502   4.607  0.5624  0.4584  0.1602
17420SOL    HW254415   0.775   0.589   4.702  0.6452  0.9151 -0.1855
17421SOL     OW54416   2.003   5.583   1.293  0.0123 -0.1570 -0.1966
17421SOL    HW154417   1.999   5.527   1.216  0.0810 -0.4935  0.0401
17421SOL    HW254418   2.021   5.670   1.259  0.5025 -0.3848 -0.5262
17422SOL     OW54419   9.069   5.271   8.048  0.2888  0.1530 -0.3919
17422SOL    HW154420   9.131   5.338   8.021  0.2193  1.0899  1.5658
17422SOL    HW254421   9.108   5.233   8.127 -1.5197  0.6772  0.8084
17423SOL     OW54422   4.666   9.081   3.716 -0.8768  0.3429 -0.0709
17423SOL    HW154423   4.706   8.995   3.731 -1.5139 -0.0249 -0.4404
17423SOL    HW254424   4.741   9.141   3.708 -0.4451 -0.0423  0.9224
17424SOL     OW54425   1.406   0.847   1.448  0.5423  0.5826 -0.3228
17424SOL    HW154426   1.432   0.810   1.533 -1.8409 -0.3209  0.0753
17424SOL    HW254427   1.435   0.782   1.384  1.5493  0.8430 -0.1549
17425SOL     OW54428   6.449   9.280   4.605  0.3752  0.3087  0.0538
17425SOL    HW154429   6.539   9.304   4.580  1.0965 -1.8157  0.4258
17425SOL    HW254430   6.460   9.215   4.674 -1.4702 -0.3405 -0.2198
17426SOL     OW54431   5.368   6.035   4.258 -0.1895  0.0192 -0.3093
17426SOL    HW154432   5.375   6.032   4.354  0.1176 -1.2170 -0.3570
17426SOL    HW254433   5.427   6.106   4.233 -0.6848  0.7229  0.4424
17427SOL     OW54434   4.136   0.132   8.274  0.3980  0.8429 -0.6565
17427SOL    HW154435   4.052   0.167   8.303  0.1326 -0.0639 -0.3003
17427SOL    HW254436   4.114   0.074   8.202  0.8095  1.2120 -1.0864
17428SOL     OW54437   6.451   1.459   4.400  0.0199  0.0799 -0.5733
17428SOL    HW154438   6.524   1.520   4.403  0.5787 -0.5026 -1.7320
17428SOL    HW254439   6.453   1.415   4.485 -0.0989  1.3082  0.0904
17429SOL     OW54440   5.126   2.245   9.409 -0.2529 -0.4288  0.1833
17429SOL    HW154441   5.060   2.192   9.364 -0.6383 -0.7131  1.0740
17429SOL    HW254442   5.200   2.185   9.420  0.0147 -0.2241 -0.4696
17430SOL     OW54443   4.778   8.246   4.730  0.8584 -0.1862 -0.0375
17430SOL    HW154444   4.751   8.336   4.749 -0.4419 -0.6219  0.3251
17430SOL    HW254445   4.798   8.209   4.816  0.0548 -0.6361 -0.0393
17431SOL     OW54446   3.117   3.334   8.989 -0.4078  0.1982  0.2983
17431SOL    HW154447   3.192   3.359   9.043 -0.5286 -0.0341  0.5754
17431SOL    HW254448   3.050   3.306   9.052 -0.1310 -1.2475 -0.0186
17432SOL     OW54449   5.497   8.559   0.887 -0.0774  0.0825 -0.6567
17432SOL    HW154450   5.503   8.521   0.975  1.2112  0.6720 -0.4680
17432SOL    HW254451   5.441   8.635   0.898 -0.8086 -0.4494 -0.5811
17433SOL     OW54452   5.751   4.478   5.441  0.7300 -0.4134 -0.1979
17433SOL    HW154453   5.795   4.455   5.523 -0.0186 -0.2567  0.2574
17433SOL    HW254454   5.772   4.570   5.427  0.3567 -0.2694  0.1525
17434SOL     OW54455   7.577   6.562   5.832 -0.4152 -0.1668  0.3412
17434SOL    HW154456   7.623   6.508   5.769 -1.7923 -0.3088 -0.5873
17434SOL    HW254457   7.486   6.531   5.830 -0.9264  1.1706  0.8733
17435SOL     OW54458   6.797   2.239   5.898  0.0381  0.0270  0.1938
17435SOL    HW154459   6.806   2.226   5.992  0.3572 -1.8743 -0.0528
17435SOL    HW254460   6.737   2.171   5.870  1.2817 -0.5570 -1.2079
17436SOL     OW54461   8.624   5.704   5.931 -0.4495 -0.2289 -0.2235
17436SOL    HW154462   8.593   5.616   5.911  0.7010 -0.5629 -0.6678
17436SOL    HW254463   8.703   5.690   5.984  0.0028  0.5060 -0.6836
17437SOL     OW54464   1.863   3.432   0.508 -0.8438 -0.2616  0.0247
17437SOL    HW154465   1.933   3.476   0.458  0.3944 -0.2639  1.6954
17437SOL    HW254466   1.789   3.493   0.504  0.1632  1.0365  0.5289
17438SOL     OW54467   0.735   1.344   6.413  0.0824 -0.2953 -0.2165
17438SOL    HW154468   0.797   1.284   6.371 -0.2830 -0.2732 -0.8057
17438SOL    HW254469   0.702   1.295   6.489 -1.6404 -1.6456 -1.7393
17439SOL     OW54470   6.552   1.079   7.374 -0.2496  0.6987  0.0390
17439SOL    HW154471   6.463   1.062   7.407  1.1007 -2.2189  2.6976
17439SOL    HW254472   6.608   1.072   7.452  2.6207 -0.7107 -1.9778
17440SOL     OW54473   1.198   7.695   7.805  0.1500 -0.3263  0.0732
17440SOL    HW154474   1.163   7.773   7.762  0.0206  0.1026  0.9542
17440SOL    HW254475   1.140   7.625   7.777 -1.5387  0.3949  1.6102
17441SOL     OW54476   2.140   1.637   4.391 -0.4091  0.5030  0.4777
17441SOL    HW154477   2.047   1.637   4.412 -0.4309  0.2278  0.3873
17441SOL    HW254478   2.176   1.564   4.443 -0.5012 -0.3399 -0.6077
17442SOL     OW54479   7.835   7.040   2.986  0.4650  0.1863  0.2947
17442SOL    HW154480   7.929   7.036   2.998  0.7950  2.4056 -0.8843
17442SOL    HW254481   7.819   7.127   2.949 -2.0727 -0.0270  0.6521
17443SOL     OW54482   8.285   8.580   9.588  0.0922 -0.3326 -0.0406
17443SOL    HW154483   8.307   8.662   9.544  0.0452 -0.4586 -0.3026
17443SOL    HW254484   8.217   8.603   9.651 -0.7757 -0.3754 -0.9387
17444SOL     OW54485   8.354   6.203   0.980  0.4529  0.4720  0.1430
17444SOL    HW154486   8.340   6.124   1.032  0.5169 -0.1076 -0.6944
17444SOL    HW254487   8.282   6.203   0.917  1.2118  0.3203 -0.7541
17445SOL     OW54488   4.279   3.214   3.188 -0.6523  0.0286 -0.1212
17445SOL    HW154489   4.370   3.227   3.214 -0.5945 -2.1624  1.0626
17445SOL    HW254490   4.283   3.198   3.094  0.0241  1.0409 -0.2828
17446SOL     OW54491   7.669   2.295   8.306 -0.8635  0.2772 -0.1615
17446SOL    HW154492   7.643   2.292   8.214 -0.7811  1.7753 -0.2603
17446SOL    HW254493   7.604   2.352   8.347 -1.2259 -0.8147  0.8491
17447SOL     OW54494   3.953   1.146   7.857 -0.4307  0.0617 -0.1680
17447SOL    HW154495   4.028   1.160   7.914 -0.0751 -1.2897 -0.2656
17447SOL    HW254496   3.990   1.113   7.775 -0.9561  1.6407 -1.0942
17448SOL     OW54497   0.707   4.605   6.899 -0.1366  0.8235  0.1479
17448SOL    HW154498   0.789   4.627   6.942  0.1636  0.2717 -0.1413
17448SOL    HW254499   0.662   4.690   6.888  0.0812  1.0462  0.9194
17449SOL     OW54500   5.994   2.535   9.252 -0.1164 -0.5605  0.8654
17449SOL    HW154501   5.917   2.589   9.263  0.1466 -0.4248  2.2603
17449SOL    HW254502   6.067   2.597   9.245  0.0271 -0.7020  1.0655
17450SOL     OW54503   2.045   2.640   5.226 -0.7201 -0.0444 -1.1221
17450SOL    HW154504   1.976   2.579   5.198 -0.7420 -1.5572  1.7457
17450SOL    HW254505   2.122   2.584   5.239  0.0163  1.0048 -0.9113
17451SOL     OW54506   1.866   0.031   2.901 -0.0044  0.0073 -0.0726
17451SOL    HW154507   1.823  -0.025   2.837  2.3564 -0.7749 -1.0893
17451SOL    HW254508   1.858   0.120   2.865 -0.1335 -0.2118 -0.5859
17452SOL     OW54509   6.956   1.237   7.159  0.3649  0.1671 -0.3451
17452SOL    HW154510   6.980   1.329   7.148  1.0611  0.0724  0.2283
17452SOL    HW254511   6.883   1.238   7.220 -0.8588  0.4393 -1.7722
17453SOL     OW54512   5.153   2.583   8.136 -0.1559 -0.3868 -0.1898
17453SOL    HW154513   5.090   2.522   8.097 -0.3086 -0.5314  0.2686
17453SOL    HW254514   5.121   2.596   8.226  0.0857  0.0773 -0.1673
17454SOL     OW54515   3.450   6.497   4.555  0.5054  0.3077 -1.0693
17454SOL    HW154516   3.437   6.415   4.506  0.0593 -0.6977  0.6566
17454SOL    HW254517   3.520   6.477   4.617 -0.8219  0.6008  0.6078
17455SOL     OW54518   4.062   6.318   0.337 -0.0856  0.5651  0.3584
17455SOL    HW154519   4.133   6.260   0.363 -1.4959 -2.2223 -1.5478
17455SOL    HW254520   4.105   6.386   0.284  1.3819  0.2523  1.0984
17456SOL     OW54521   5.571   6.760   5.006 -0.1380 -0.5109 -0.1640
17456SOL    HW154522   5.566   6.785   4.914 -0.0189  0.0659 -0.0189
17456SOL    HW254523   5.481   6.771   5.039 -0.2625 -1.0891 -0.3013
17457SOL     OW54524   2.470   8.529   9.118 -0.0928 -0.3250 -0.0242
17457SOL    HW154525   2.450   8.456   9.060  3.3492 -0.8074 -0.7671
17457SOL    HW254526   2.557   8.509   9.153 -0.3534  1.9395  2.1989
17458SOL     OW54527   2.918   7.888   6.554 -0.0886 -0.3327  0.2104
17458SOL    HW154528   3.011   7.866   6.549 -0.4516 -1.8320 -0.4762
17458SOL    HW254529   2.915   7.970   6.604  1.5766 -0.3379  0.3630
17459SOL     OW54530   3.667   3.931   1.587 -0.0181  0.4218 -0.2257
17459SOL    HW154531   3.591   3.935   1.530  0.1882  2.0711 -0.4326
17459SOL    HW254532   3.742   3.923   1.528  0.1426  1.4465 -0.1897
17460SOL     OW54533   9.252   4.362   1.669  0.2877  0.0544 -0.6548
17460SOL    HW154534   9.263   4.454   1.644  1.8748  0.1606  0.2985
17460SOL    HW254535   9.255   4.314   1.586 -0.5531  0.8590 -1.1596
17461SOL     OW54536   6.284   5.770   6.893 -0.3950 -0.5706  0.1668
17461SOL    HW154537   6.245   5.755   6.807 -1.2513  0.2359  0.3882
17461SOL    HW254538   6.352   5.704   6.901  1.6492  1.0500 -2.3151
17462SOL     OW54539   1.614   7.243   8.960 -0.2473 -0.3858  0.2449
17462SOL    HW154540   1.525   7.209   8.966 -0.5481  0.5210  1.3103
17462SOL    HW254541   1.607   7.319   8.901 -0.0096 -0.8153 -0.3442
17463SOL     OW54542   9.267   3.528   6.401 -0.0817  0.2250  0.0648
17463SOL    HW154543   9.293   3.548   6.491 -0.2197  1.2912 -0.1154
17463SOL    HW254544   9.285   3.609   6.353  0.9487 -0.6515 -1.0859
17464SOL     OW54545   2.043   1.016   1.465 -0.3883  0.0144  0.3312
17464SOL    HW154546   2.023   0.981   1.378 -2.1392  0.0298  0.6890
17464SOL    HW254547   1.973   0.981   1.521 -0.6829  1.9433  1.2360
17465SOL     OW54548   0.512   6.471   4.994 -0.8218 -0.3704  0.0164
17465SOL    HW154549   0.536   6.556   4.956 -0.7941 -1.5692 -2.9546
17465SOL    HW254550   0.464   6.492   5.074  0.6825  2.3603  0.3129
17466SOL     OW54551   4.790   5.324   3.923  0.0771  0.8827 -0.8885
17466SOL    HW154552   4.716   5.365   3.967  0.6279  0.3591  0.5947
17466SOL    HW254553   4.807   5.379   3.847  0.2900  2.9657  0.5918
17467SOL     OW54554   8.129   5.662   2.388  0.1631 -1.3246  0.7709
17467SOL    HW154555   8.224   5.649   2.383  0.1841 -1.0734  0.5043
17467SOL    HW254556   8.094   5.606   2.319  0.2408 -0.1349 -0.2602
17468SOL     OW54557   8.315   5.021   4.234  0.1140 -0.1140 -0.0824
17468SOL    HW154558   8.399   5.063   4.214  0.5314 -0.5044  0.8179
17468SOL    HW254559   8.312   5.017   4.329 -0.0557 -1.8610 -0.1361
17469SOL     OW54560   4.884   0.107   9.618  0.7152  0.3838 -0.5455
17469SOL    HW154561   4.913   0.025   9.578  5.7745  2.1503 -1.1963
17469SOL    HW254562   4.896   0.093   9.712 -1.0534 -0.3815 -0.3963
17470SOL     OW54563   3.247   5.974   6.296  0.3402  0.1958 -0.2070
17470SOL    HW154564   3.201   6.031   6.235 -1.3985 -1.3790 -0.4341
17470SOL    HW254565   3.304   6.033   6.345  0.6935  1.7089 -2.3079
17471SOL     OW54566   0.567   7.437   9.491 -0.2944  0.5441  0.1118
17471SOL    HW154567   0.661   7.418   9.494 -0.5183 -0.6014  0.3416
17471SOL    HW254568   0.549   7.485   9.572 -0.1088 -0.2429  0.6265
17472SOL     OW54569   6.712   5.919   5.834  0.4571 -0.1225  0.2823
17472SOL    HW154570   6.690   5.826   5.832  0.8564 -0.2132 -0.4904
17472SOL    HW254571   6.805   5.923   5.812 -0.4774  0.6594 -4.7947
17473SOL     OW54572   6.839   8.771   2.852 -0.2887  0.6322  0.2527
17473SOL    HW154573   6.879   8.858   2.857 -0.4888  0.7385  0.0332
17473SOL    HW254574   6.744   8.789   2.851 -0.3329  0.4054  0.3460
17474SOL     OW54575   0.415   6.791   9.617  0.3919  0.4939  0.1598
17474SOL    HW154576   0.465   6.755   9.544 -1.0685 -1.5058  0.0631
17474SOL    HW254577   0.392   6.879   9.589  0.5006  0.0345 -1.4876
17475SOL     OW54578   6.966   1.820   6.175  0.1162  0.3085  0.0003
17475SOL    HW154579   6.990   1.863   6.257  1.9845  1.5008 -1.0971
17475SOL    HW254580   6.968   1.890   6.109 -1.7265 -0.5350 -1.0388
17476SOL     OW54581   2.866   1.100   9.056 -0.6101  0.2651  0.3382
17476SOL    HW154582   2.814   1.027   9.089 -0.7556 -0.1054 -0.6938
17476SOL    HW254583   2.861   1.093   8.961  0.7468  0.6305  0.2173
17477SOL     OW54584   8.763   0.443   9.424 -0.0952  0.2095 -0.2070
17477SOL    HW154585   8.798   0.431   9.512  0.1527  0.1864 -0.3070
17477SOL    HW254586   8.767   0.538   9.409  0.1497  0.1843 -0.3081
17478SOL     OW54587   1.953   0.808   2.707 -0.6327 -0.1431  0.1687
17478SOL    HW154588   2.011   0.882   2.697 -0.7084 -0.1771 -0.5837
17478SOL    HW254589   2.000   0.734   2.668 -0.3284 -0.6202  1.3907
17479SOL     OW54590   1.398   4.245   6.725 -0.6558  0.2068  0.1749
17479SOL    HW154591   1.467   4.220   6.664 -0.5441 -0.6622  0.6359
17479SOL    HW254592   1.329   4.180   6.710 -0.1441 -0.7869  1.7731
17480SOL     OW54593   5.425   3.912   4.697 -0.3131 -0.6202  0.5473
17480SOL    HW154594   5.419   3.941   4.606 -1.2691 -0.2172  0.7148
17480SOL    HW254595   5.493   3.845   4.698  2.0292  1.6080  0.1159
17481SOL     OW54596   4.754   1.309   0.678  0.1204 -0.9092  0.4157
17481SOL    HW154597   4.804   1.292   0.758  1.0543  1.4108  0.3902
17481SOL    HW254598   4.728   1.401   0.685 -2.6209 -1.5405 -0.4584
17482SOL     OW54599   6.981   6.360   8.283 -0.0521 -0.3211  0.3595
17482SOL    HW154600   7.075   6.376   8.278 -0.4399  1.9520 -1.1595
17482SOL    HW254601   6.962   6.302   8.209  0.0287  0.0824  0.0161
17483SOL     OW54602   0.757   1.825   0.962 -0.3224 -0.2850 -0.1690
17483SOL    HW154603   0.695   1.833   0.890  0.2706 -0.6951 -0.7342
17483SOL    HW254604   0.704   1.843   1.041 -0.8255  0.8215 -0.7368
17484SOL     OW54605   0.830   4.385   6.815 -0.3703  0.2871  0.4279
17484SOL    HW154606   0.785   4.314   6.860 -1.2002 -0.8694 -2.0391
17484SOL    HW254607   0.775   4.462   6.830 -2.2337 -0.6949 -0.8873
17485SOL     OW54608   6.258   8.576   5.885 -0.0575 -0.2121 -0.0894
17485SOL    HW154609   6.275   8.671   5.887 -1.7041  0.1053  1.4732
17485SOL    HW254610   6.163   8.569   5.898 -0.0694 -2.0626 -1.0078
17486SOL     OW54611   3.167   9.079   2.403 -0.0271  0.1453 -0.3256
17486SOL    HW154612   3.187   9.159   2.450  1.3774  0.3752 -1.2435
17486SOL    HW254613   3.216   9.086   2.321 -2.1106 -0.3868 -1.6952
17487SOL     OW54614   4.601   1.454   7.572  0.8429  0.3958 -0.5055
17487SOL    HW154615   4.612   1.549   7.577 -1.0958  0.7296 -1.4930
17487SOL    HW254616   4.674   1.418   7.622  1.1414  2.4273  0.5960
17488SOL     OW54617   9.610   7.335   6.995  0.2534 -0.0687  0.3161
17488SOL    HW154618   9.657   7.405   7.040  0.1270 -0.3666  0.9266
17488SOL    HW254619   9.571   7.378   6.918  0.3481  0.4867  0.5690
17489SOL     OW54620   1.003   8.325   2.230 -0.0451  0.3782  0.1156
17489SOL    HW154621   1.070   8.263   2.200  0.7347  1.2338  0.0518
17489SOL    HW254622   0.921   8.290   2.194  0.5034 -0.1170 -0.6877
17490SOL     OW54623   6.610   6.272   1.825  0.1775  0.1446  0.1021
17490SOL    HW154624   6.631   6.365   1.815  0.0069  0.0539 -1.2558
17490SOL    HW254625   6.604   6.239   1.736 -1.0617 -0.8829  0.5338
17491SOL     OW54626   0.469   4.460   6.805 -0.1881  0.3200  0.6255
17491SOL    HW154627   0.501   4.414   6.727  0.2682  0.9253  0.4495
17491SOL    HW254628   0.540   4.520   6.829 -0.9005  1.1842  0.6424
17492SOL     OW54629   7.928   7.321   7.929 -0.2364  0.1911 -0.4507
17492SOL    HW154630   7.922   7.401   7.980 -0.8760  0.2598 -0.6277
17492SOL    HW254631   7.881   7.340   7.848  1.0134  0.1838 -1.1984
17493SOL     OW54632   4.035   5.744   0.642  0.1779 -0.1870 -0.1525
17493SOL    HW154633   4.050   5.660   0.600  1.2926 -1.0126  1.7566
17493SOL    HW254634   3.966   5.786   0.590 -1.4702 -2.8802 -0.3035
17494SOL     OW54635   4.750   1.865   5.078  0.3831 -0.1414  0.3105
17494SOL    HW154636   4.811   1.816   5.133  0.7073 -1.5059 -1.1990
17494SOL    HW254637   4.664   1.834   5.104  0.6097 -2.1787 -1.1324
17495SOL     OW54638   4.055   2.730   7.276 -0.1006 -0.4861 -0.5642
17495SOL    HW154639   4.097   2.737   7.190  1.3102 -0.1426  0.1242
17495SOL    HW254640   3.962   2.742   7.258  0.1396 -0.6726 -2.0722
17496SOL     OW54641   7.234   1.840   6.523  0.5447  0.0201  0.5641
17496SOL    HW154642   7.267   1.765   6.473  1.4323 -0.3630  1.6833
17496SOL    HW254643   7.285   1.914   6.490 -0.3880  0.1702 -0.6006
17497SOL     OW54644   6.519   2.270   8.697 -0.4652 -0.0083  0.3736
17497SOL    HW154645   6.483   2.185   8.721  0.1593 -0.4113 -0.0945
17497SOL    HW254646   6.612   2.265   8.719 -0.1821  0.1284 -0.7301
17498SOL     OW54647   5.908   5.696   0.947  0.6218 -0.3043  0.0882
17498SOL    HW154648   5.940   5.639   1.017  0.9966 -0.0459  0.1321
17498SOL    HW254649   5.896   5.781   0.989  1.3384 -0.0192 -0.2678
17499SOL     OW54650   2.205   2.763   0.483  0.3659 -0.3135 -0.1478
17499SOL    HW154651   2.135   2.698   0.486  0.1627 -0.1027 -0.2223
17499SOL    HW254652   2.205   2.802   0.571 -1.7003  1.8378 -0.9830
17500SOL     OW54653   0.511   5.487   2.261 -0.8629 -0.3830  0.1002
17500SOL    HW154654   0.554   5.402   2.268 -0.2024 -0.0881 -0.2672
17500SOL    HW254655   0.581   5.548   2.237 -1.2809  0.3105  0.5798
17501SOL     OW54656   0.884   0.374   8.928  0.0822  0.2181  0.1440
17501SOL    HW154657   0.845   0.419   9.003 -2.6303 -0.1180 -0.9664
17501SOL    HW254658   0.832   0.294   8.918  2.1941 -1.1703 -0.4342
17502SOL     OW54659   3.715   1.746   9.056  0.1409  0.5451 -0.3632
17502SOL    HW154660   3.667   1.664   9.049 -2.5828  1.8892  0.9751
17502SOL    HW254661   3.744   1.749   9.147  2.7662 -0.1603 -1.1062
17503SOL     OW54662   5.866   4.571   0.837  0.0492  0.4800 -0.1880
17503SOL    HW154663   5.827   4.639   0.892  0.9349  0.7594  0.1247
17503SOL    HW254664   5.961   4.585   0.845  0.5167 -2.9223  2.7287
17504SOL     OW54665   8.234   0.426   1.347  0.1168  0.5600 -0.2527
17504SOL    HW154666   8.242   0.414   1.252  0.8433  2.3244 -0.4495
17504SOL    HW254667   8.209   0.517   1.358 -0.1136  0.3469  1.2660
17505SOL     OW54668   1.506   3.675   0.921  0.1070 -0.3891  0.1018
17505SOL    HW154669   1.595   3.643   0.909  0.2607 -0.5431  1.5328
17505SOL    HW254670   1.515   3.770   0.930  0.0311 -0.3187 -0.4814
17506SOL     OW54671   9.417   8.264   6.026  0.1171  0.5844 -0.3122
17506SOL    HW154672   9.511   8.265   6.004  0.2079  0.9498  0.0780
17506SOL    HW254673   9.399   8.172   6.048  0.4199  0.5392 -0.2410
17507SOL     OW54674   3.904   0.645   4.201 -0.4704 -0.5820 -0.5444
17507SOL    HW154675   3.820   0.601   4.211 -0.1511 -1.0643  0.0216
17507SOL    HW254676   3.966   0.576   4.179 -0.5346 -0.0079 -2.8697
17508SOL     OW54677   2.477   1.547   8.398 -0.0792 -0.2807 -0.5466
17508SOL    HW154678   2.410   1.478   8.398  1.1230 -1.5285  1.0881
17508SOL    HW254679   2.429   1.627   8.419 -1.4070 -0.6917 -1.8227
17509SOL     OW54680   6.331   5.418   4.724 -0.4028  0.1845 -0.1549
17509SOL    HW154681   6.259   5.465   4.683 -0.3724 -0.0444 -0.4654
17509SOL    HW254682   6.383   5.384   4.651  0.2404  0.6808  0.0575
17510SOL     OW54683   1.371   7.422   8.599  0.1385 -0.0644  0.1205
17510SOL    HW154684   1.386   7.486   8.668  0.5999 -1.2593  1.1738
17510SOL    HW254685   1.331   7.472   8.528  1.1377  1.5122  0.6252
17511SOL     OW54686   6.095   0.549   7.835 -0.4173 -0.0366  0.4168
17511SOL    HW154687   6.145   0.532   7.755 -0.8684 -1.3216  0.3885
17511SOL    HW254688   6.067   0.640   7.826  0.9056  0.3521 -0.1141
17512SOL     OW54689   6.788   9.198   3.258  0.4233 -0.2136  0.1003
17512SOL    HW154690   6.798   9.283   3.215 -0.0840 -0.3116 -0.2170
17512SOL    HW254691   6.694   9.183   3.260  0.4397 -0.1973  1.2842
17513SOL     OW54692   4.537   1.027   6.067 -0.2507  0.1726 -0.7489
17513SOL    HW154693   4.441   1.028   6.068 -0.2441  0.4668 -0.4299
17513SOL    HW254694   4.562   1.118   6.078  0.0843 -0.1374  1.4328
17514SOL     OW54695   7.931   7.661   0.956  0.4197 -0.0590  0.0547
17514SOL    HW154696   7.926   7.684   0.863 -1.3216  1.2365  0.4236
17514SOL    HW254697   7.849   7.617   0.974  0.8270 -0.4761  0.9588
17515SOL     OW54698   4.537   3.443   5.632  0.4840  0.3573 -0.5231
17515SOL    HW154699   4.451   3.463   5.668 -0.7424 -1.2788 -2.3409
17515SOL    HW254700   4.552   3.351   5.654  2.4451  0.9569  0.9443
17516SOL     OW54701   4.956   2.990   4.180  0.2404  0.0841 -0.6996
17516SOL    HW154702   5.018   3.011   4.249 -1.4490  0.2878  0.8241
17516SOL    HW254703   4.897   2.926   4.220 -0.6148 -0.0071 -2.0468
17517SOL     OW54704   1.332   3.001   8.797 -0.2449  0.4457  0.0223
17517SOL    HW154705   1.319   3.036   8.709  0.9086  0.0684 -0.3141
17517SOL    HW254706   1.254   2.947   8.813 -1.2922  1.8673 -0.0662
17518SOL     OW54707   5.167   9.072   4.116  0.0325  0.1294 -0.1821
17518SOL    HW154708   5.181   9.079   4.210 -1.4716  1.9811 -0.0258
17518SOL    HW254709   5.160   8.978   4.099  0.1387 -0.2206  1.5689
17519SOL     OW54710   6.938   1.314   2.544 -0.4988  0.1368  0.2252
17519SOL    HW154711   6.852   1.273   2.542 -0.2032 -0.5022  0.3409
17519SOL    HW254712   6.968   1.312   2.453  0.0865 -1.1659  0.4211
17520SOL     OW54713   0.373   3.683   1.513 -0.0692  0.0683 -0.4713
17520SOL    HW154714   0.325   3.639   1.583 -1.1729  1.1136 -0.5360
17520SOL    HW254715   0.336   3.771   1.511 -0.5011 -0.1148 -2.7848
17521SOL     OW54716   3.005   4.253   9.202  0.6967 -0.7884 -0.4701
17521SOL    HW154717   2.913   4.254   9.177  0.8947 -0.6110 -1.2146
17521SOL    HW254718   3.053   4.269   9.120  1.4345 -2.1158 -0.3408
17522SOL     OW54719   7.084   0.574   3.908 -0.3128  0.4182  0.3824
17522SOL    HW154720   7.108   0.481   3.907  0.7359  0.6723 -1.1970
17522SOL    HW254721   7.001   0.576   3.955  1.1970 -0.8808  3.4673
17523SOL     OW54722   4.243   9.144   9.346  0.1925  0.2416  0.1248
17523SOL    HW154723   4.243   9.224   9.398  0.5407  0.2797  0.0675
17523SOL    HW254724   4.152   9.115   9.347 -0.1623  1.2801 -0.8450
17524SOL     OW54725   5.141   5.963   7.547  0.5293 -0.1040  0.0459
17524SOL    HW154726   5.152   5.929   7.636  0.1932  1.1082  0.5841
17524SOL    HW254727   5.088   6.042   7.559  1.4840  0.7447 -1.0998
17525SOL     OW54728   0.156   4.276   0.367  0.1560  0.0513 -0.3255
17525SOL    HW154729   0.135   4.210   0.434  0.4035  1.1284  0.8575
17525SOL    HW254730   0.242   4.251   0.335  0.0753 -0.4355 -0.1747
17526SOL     OW54731   2.340   5.102   1.988  0.3027  0.7373 -0.5153
17526SOL    HW154732   2.276   5.059   2.045 -0.3245  1.6063 -0.5458
17526SOL    HW254733   2.287   5.149   1.924  0.9919  0.7189 -1.1132
17527SOL     OW54734   6.369   3.154   8.693 -0.2881  0.3621  0.5972
17527SOL    HW154735   6.361   3.202   8.611 -2.6391 -1.0739 -0.1121
17527SOL    HW254736   6.353   3.063   8.669  3.4827 -0.8486  1.9750
17528SOL     OW54737   9.011   6.254   8.575  0.2776  0.1503  0.2202
17528SOL    HW154738   9.041   6.169   8.608 -2.4422 -1.2144 -0.5415
17528SOL    HW254739   9.070   6.274   8.502  1.3315 -0.7456  0.7943
17529SOL     OW54740   0.259   4.686   1.689  0.9684  0.1122  0.3169
17529SOL    HW154741   0.276   4.712   1.779  1.7341  0.0895  0.1905
17529SOL    HW254742   0.193   4.747   1.658  2.4976  1.7537  0.1271
17530SOL     OW54743   7.157   7.905   3.120  0.3352 -0.6332  0.1072
17530SOL    HW154744   7.100   7.980   3.138  1.3465 -0.0432  0.9535
17530SOL    HW254745   7.242   7.929   3.158  1.0106 -1.7137 -0.6514
17531SOL     OW54746   6.789   3.694   6.097 -0.3344 -0.0012 -0.0930
17531SOL    HW154747   6.823   3.744   6.172 -1.2120 -1.1514  1.1328
17531SOL    HW254748   6.820   3.741   6.020 -1.1685  2.4780  0.9888
17532SOL     OW54749   5.213   8.298   0.391  0.3594  0.0256  0.3394
17532SOL    HW154750   5.297   8.252   0.395 -0.1173 -0.8698  0.3237
17532SOL    HW254751   5.183   8.303   0.481 -0.3204 -1.1163  0.2038
17533SOL     OW54752   8.161   7.793   2.784  0.1211  0.5613 -0.6203
17533SOL    HW154753   8.253   7.766   2.782  0.0000  0.0628  0.1524
17533SOL    HW254754   8.113   7.713   2.808 -0.5299  0.7745 -1.1700
17534SOL     OW54755   6.260   8.549   7.808 -0.2729  0.0811 -0.2677
17534SOL    HW154756   6.221   8.617   7.862 -0.6316 -1.0451  0.9295
17534SOL    HW254757   6.209   8.470   7.827  1.2335 -0.9369 -0.2643
17535SOL     OW54758   2.784   8.078   0.239 -0.5496  0.6217 -0.3060
17535SOL    HW154759   2.727   8.104   0.312 -1.1360  0.8369 -0.8353
17535SOL    HW254760   2.869   8.064   0.280 -0.9876  0.2619  0.4985
17536SOL     OW54761   8.324   7.388   1.789  0.4318  0.4236 -0.8657
17536SOL    HW154762   8.313   7.483   1.801  0.4579  0.4837 -1.3069
17536SOL    HW254763   8.397   7.380   1.728  1.6565  0.0725  0.5801
17537SOL     OW54764   2.662   3.512   8.136 -0.0298  0.7898  0.5082
17537SOL    HW154765   2.746   3.515   8.089  0.9914  0.4739  2.2389
17537SOL    HW254766   2.671   3.576   8.206 -1.7703  1.7105 -0.0492
17538SOL     OW54767   8.374   5.103   1.062  0.1302 -0.1436  0.2050
17538SOL    HW154768   8.366   5.176   1.001  0.8620 -0.8364 -0.7522
17538SOL    HW254769   8.337   5.136   1.144 -0.8401  0.8272 -0.5872
17539SOL     OW54770   7.368   8.243   8.950 -0.2593 -0.4823 -0.7860
17539SOL    HW154771   7.305   8.180   8.914  1.0982 -1.1228 -2.1822
17539SOL    HW254772   7.439   8.188   8.985 -0.6135  0.2037  1.1559
17540SOL     OW54773   4.906   4.934   4.308  0.6384  0.7061 -0.1456
17540SOL    HW154774   4.955   5.003   4.353 -1.1330  1.3086  1.0047
17540SOL    HW254775   4.916   4.857   4.364 -0.1085  0.9730  0.3766
17541SOL     OW54776   7.227   1.856   5.228  0.5733  0.1384  0.8847
17541SOL    HW154777   7.258   1.920   5.292  0.3670 -0.8079  1.9568
17541SOL    HW254778   7.246   1.771   5.267 -0.2083 -0.4611  0.0078
17542SOL     OW54779   2.545   5.931   9.537 -0.3702  0.6834  0.0072
17542SOL    HW154780   2.635   5.899   9.539 -0.6435 -0.1952 -0.9814
17542SOL    HW254781   2.553   6.026   9.530  0.4598  0.7566  1.5176
17543SOL     OW54782   2.624   6.398   4.815  0.0708 -0.5672 -0.5218
17543SOL    HW154783   2.696   6.456   4.792 -0.6306  0.2553 -0.6858
17543SOL    HW254784   2.666   6.323   4.857  0.9465  0.4920  0.5824
17544SOL     OW54785   3.394   5.387   3.190 -0.3050 -0.4115  0.4551
17544SOL    HW154786   3.299   5.383   3.199 -0.2080  0.2726  2.1680
17544SOL    HW254787   3.415   5.480   3.200  0.5795 -0.6176  0.6017
17545SOL     OW54788   7.742   5.506   6.095  0.0386 -0.3017  0.4116
17545SOL    HW154789   7.723   5.580   6.152  1.5627  0.6222 -0.1903
17545SOL    HW254790   7.658   5.464   6.080 -0.8398  1.1906  0.9532
17546SOL     OW54791   3.856   5.745   5.719 -0.3717  0.7415 -0.1217
17546SOL    HW154792   3.817   5.678   5.776  1.2724 -1.3856 -1.3411
17546SOL    HW254793   3.790   5.761   5.652 -0.0299 -1.3125 -1.0263
17547SOL     OW54794   2.681   3.702   1.966  0.0317 -0.1488  0.1784
17547SOL    HW154795   2.684   3.657   2.050 -0.3960  0.1012  0.3313
17547SOL    HW254796   2.695   3.794   1.988  1.5408 -0.2640 -0.1966
17548SOL     OW54797   3.442   1.198   4.458 -0.1300  0.6811  0.1359
17548SOL    HW154798   3.462   1.106   4.477  0.0863  1.0974  2.1394
17548SOL    HW254799   3.383   1.225   4.528 -1.0056  1.8103 -0.9924
17549SOL     OW54800   8.863   7.557   6.819 -0.6162  0.3336 -0.0743
17549SOL    HW154801   8.775   7.580   6.848 -0.2852 -0.1044  1.3589
17549SOL    HW254802   8.850   7.508   6.738 -1.8967 -1.8999  1.4016
17550SOL     OW54803   9.228   1.549   3.334  0.2092 -0.1249 -0.7208
17550SOL    HW154804   9.248   1.457   3.314  1.6079 -0.2300  0.9294
17550SOL    HW254805   9.279   1.599   3.271  1.3362 -0.4879 -0.1308
17551SOL     OW54806   3.891   2.383   6.714  0.1443 -0.2171  0.2865
17551SOL    HW154807   3.974   2.396   6.759 -0.4900  0.0291  1.4107
17551SOL    HW254808   3.834   2.451   6.748 -0.7789 -0.9029  0.1566
17552SOL     OW54809   1.917   9.549   5.342  0.0840  0.7784  0.0364
17552SOL    HW154810   1.899   9.474   5.398  1.7358 -0.1578 -0.5855
17552SOL    HW254811   1.891   9.625   5.393  0.2653 -0.1128  1.5042
17553SOL     OW54812   6.686   6.498   2.636 -0.3920  0.1125  0.1594
17553SOL    HW154813   6.653   6.415   2.672  0.5552 -0.4119 -0.1355
17553SOL    HW254814   6.767   6.513   2.684 -1.1202  1.4794  1.0111
17554SOL     OW54815   8.827   2.808   5.182 -0.1523 -0.2863 -0.1081
17554SOL    HW154816   8.744   2.840   5.146  0.1933  0.3089 -0.3803
17554SOL    HW254817   8.886   2.883   5.177  0.1902 -0.4859  0.7837
17555SOL     OW54818   4.708   7.339   6.376 -0.0951 -0.4022  0.8770
17555SOL    HW154819   4.699   7.398   6.450  0.1938 -0.2003  0.7516
17555SOL    HW254820   4.618   7.315   6.354 -0.2056 -0.1317  1.0259
17556SOL     OW54821   1.364   2.714   6.131  0.2076  0.2437  0.3793
17556SOL    HW154822   1.363   2.664   6.049 -3.0282  1.1141 -0.2815
17556SOL    HW254823   1.433   2.778   6.119 -0.1997  0.3585 -1.7248
17557SOL     OW54824   4.353   2.523   8.167  0.3926  0.3275  0.2922
17557SOL    HW154825   4.350   2.432   8.138  1.0804  0.4501 -0.2016
17557SOL    HW254826   4.432   2.559   8.126  0.0047  1.2143  0.2826
17558SOL     OW54827   6.613   5.973   0.570 -0.4409  0.6187  0.5352
17558SOL    HW154828   6.686   6.012   0.618 -0.1205 -0.8504  1.3082
17558SOL    HW254829   6.536   5.989   0.626 -0.2112 -0.3395  1.1464
17559SOL     OW54830   6.092   5.047   6.431  1.3393 -0.1327  0.3912
17559SOL    HW154831   6.021   4.982   6.437  1.9725 -0.8146  0.7865
17559SOL    HW254832   6.093   5.073   6.339  0.9983 -0.6059  0.2480
17560SOL     OW54833   5.581   6.077   3.852 -0.1950 -0.8143  0.3297
17560SOL    HW154834   5.500   6.037   3.884 -1.0207  1.3805  1.1445
17560SOL    HW254835   5.589   6.045   3.762 -1.1848 -2.1799  0.6898
17561SOL     OW54836   4.551   7.340   7.035  0.6901 -0.5507 -0.1774
17561SOL    HW154837   4.537   7.433   7.014 -1.0754 -0.7628 -0.0913
17561SOL    HW254838   4.565   7.339   7.130  1.7378 -0.2928 -0.3133
17562SOL     OW54839   7.959   1.885   3.310  0.2673 -0.3859 -0.5085
17562SOL    HW154840   7.894   1.854   3.247 -0.9859  1.4312 -0.1620
17562SOL    HW254841   8.014   1.945   3.261 -0.9087  1.2844  0.1482
17563SOL     OW54842   7.958   4.787   1.932  0.2745 -0.3121 -0.0404
17563SOL    HW154843   8.024   4.718   1.941  0.3175 -0.5416 -1.7492
17563SOL    HW254844   8.006   4.868   1.946  1.2427 -0.3989 -2.3995
17564SOL     OW54845   4.747   2.814   0.876 -0.1641 -0.6417 -0.5089
17564SOL    HW154846   4.666   2.864   0.865 -0.0279  0.3783  2.2475
17564SOL    HW254847   4.718   2.727   0.904 -0.3836 -0.0789  1.1484
17565SOL     OW54848   3.054   7.355   3.642  0.2548 -0.0664 -0.3503
17565SOL    HW154849   3.049   7.259   3.645  1.7310 -0.1542 -0.1580
17565SOL    HW254850   2.966   7.383   3.667  0.1986 -1.3623  1.0916
17566SOL     OW54851   2.788   8.730   0.681 -0.3743  0.3150 -0.1496
17566SOL    HW154852   2.786   8.819   0.645  1.8565  1.0570  1.3534
17566SOL    HW254853   2.873   8.695   0.655 -0.1906 -0.4341  1.3390
17567SOL     OW54854   5.581   4.766   3.668 -1.1150  0.4232 -0.8243
17567SOL    HW154855   5.612   4.712   3.741 -2.3949  0.0832 -0.4981
17567SOL    HW254856   5.626   4.850   3.680  0.1048 -0.2239 -0.7365
17568SOL     OW54857   5.659   8.707   2.755 -0.1555  0.1086  0.3451
17568SOL    HW154858   5.594   8.723   2.686 -1.0443  0.4514  1.2476
17568SOL    HW254859   5.663   8.611   2.763 -0.3650  0.0809  0.1172
17569SOL     OW54860   3.206   5.827   4.477 -0.3116  0.3945 -0.4406
17569SOL    HW154861   3.249   5.912   4.474 -0.9760  0.8518  1.4390
17569SOL    HW254862   3.264   5.773   4.531 -0.0350 -0.2844 -1.3843
17570SOL     OW54863   2.469   8.689   6.701 -0.5982 -0.1522  0.2465
17570SOL    HW154864   2.374   8.691   6.688 -0.6127  1.8191  0.3822
17570SOL    HW254865   2.480   8.688   6.796 -0.4847 -0.0319  0.2352
17571SOL     OW54866   5.536   1.743   6.821  0.0103  0.0896 -0.0589
17571SOL    HW154867   5.450   1.776   6.794  0.2384  0.9098  0.1976
17571SOL    HW254868   5.596   1.773   6.752  0.2257  0.2203  0.1848
17572SOL     OW54869   1.056   1.497   1.665  0.4319 -0.5883 -0.0073
17572SOL    HW154870   1.026   1.431   1.602 -1.4840 -0.0964  0.3261
17572SOL    HW254871   1.148   1.511   1.643  0.3712 -1.9800 -1.3083
17573SOL     OW54872   6.742   5.115   4.652 -0.2983 -0.0937 -0.7482
17573SOL    HW154873   6.786   5.048   4.601 -2.0254  0.0781 -2.5648
17573SOL    HW254874   6.662   5.134   4.604 -0.5395  2.2985  0.4169
17574SOL     OW54875   8.886   7.494   8.359  0.1987 -0.0160 -0.0194
17574SOL    HW154876   8.939   7.520   8.284  1.1165  1.3445  1.0468
17574SOL    HW254877   8.883   7.399   8.355 -1.1410  0.0254 -2.6648
17575SOL     OW54878   8.975   8.720   2.643 -0.4791 -0.6785 -0.6324
17575SOL    HW154879   8.962   8.719   2.548  0.5402 -4.0012 -0.8603
17575SOL    HW254880   8.946   8.634   2.672  1.4450 -0.6232  1.7500
17576SOL     OW54881   7.886   5.635   1.251  0.6705  0.3254 -0.2088
17576SOL    HW154882   7.887   5.700   1.182 -0.7330  1.0501  0.4314
17576SOL    HW254883   7.862   5.683   1.330 -1.9727 -1.1846  0.0031
17577SOL     OW54884   4.786   7.080   8.121  0.7090 -0.1026 -0.3286
17577SOL    HW154885   4.696   7.101   8.145  0.0726 -1.5342 -1.3287
17577SOL    HW254886   4.832   7.164   8.126 -0.4008  0.4551  1.3099
17578SOL     OW54887   5.523   5.503   5.015 -0.1592 -0.4829 -0.0915
17578SOL    HW154888   5.567   5.573   4.967  1.3514 -0.3401  1.4318
17578SOL    HW254889   5.502   5.542   5.100 -0.1229 -1.6101  0.4476
17579SOL     OW54890   7.084   1.978   5.041 -0.7867  0.2779  0.0162
17579SOL    HW154891   7.139   1.930   5.103 -1.5072 -0.6185 -0.0254
17579SOL    HW254892   6.998   1.937   5.049 -1.1070  0.7472 -0.9325
17580SOL     OW54893   7.484   9.555   6.699 -0.4108  0.3565 -0.1878
17580SOL    HW154894   7.422   9.621   6.729 -0.3419  0.1926  0.3173
17580SOL    HW254895   7.560   9.605   6.670 -0.4380  0.5069  0.0019
17581SOL     OW54896   7.205   5.524   1.354 -0.4398 -0.8110 -0.5457
17581SOL    HW154897   7.119   5.564   1.363 -0.8816 -1.1437 -2.6593
17581SOL    HW254898   7.193   5.433   1.380 -0.5365 -0.6666 -0.0856
17582SOL     OW54899   0.893   7.129   7.012 -0.1172  0.0791 -0.0326
17582SOL    HW154900   0.856   7.173   6.935 -1.1440 -1.4643 -0.4669
17582SOL    HW254901   0.987   7.142   7.004 -0.1899 -0.2115 -1.6603
17583SOL     OW54902   0.610   8.737   4.247  0.3354 -0.1601 -0.2684
17583SOL    HW154903   0.528   8.689   4.234  0.4282  0.1205 -2.1930
17583SOL    HW254904   0.640   8.710   4.334 -1.7407 -0.3356  0.4532
17584SOL     OW54905   2.892   8.745   7.554  0.1142  0.0648  0.2353
17584SOL    HW154906   2.885   8.652   7.574  0.5212 -0.0868 -0.3333
17584SOL    HW254907   2.986   8.762   7.547 -0.0050  0.0070 -2.0281
17585SOL     OW54908   3.423   1.394   4.888  0.2968 -0.0239 -0.2167
17585SOL    HW154909   3.410   1.333   4.815 -0.6419 -0.4380  0.2874
17585SOL    HW254910   3.388   1.349   4.964  2.1749 -0.0100  0.7061
17586SOL     OW54911   2.246   0.752   2.541 -0.1735  0.3937 -0.1111
17586SOL    HW154912   2.239   0.676   2.483 -1.0045  0.2690  0.1457
17586SOL    HW254913   2.208   0.824   2.492 -2.4807 -0.0657  0.8835
17587SOL     OW54914   6.816   9.627   9.455  0.1222  0.5006  0.2548
17587SOL    HW154915   6.860   9.559   9.508  0.9833  1.6859  1.1177
17587SOL    HW254916   6.790   9.581   9.375 -1.2233 -1.3701  1.6492
17588SOL     OW54917   7.529   8.223   2.702  0.0738 -0.7086  0.4435
17588SOL    HW154918   7.478   8.270   2.636 -1.6539 -1.7073  0.9893
17588SOL    HW254919   7.554   8.290   2.766 -1.2145 -0.2740  0.5293
17589SOL     OW54920   1.306   1.661   1.181 -0.4909  0.5026  0.1969
17589SOL    HW154921   1.345   1.578   1.207 -0.8865  0.4108  0.5034
17589SOL    HW254922   1.281   1.648   1.089 -1.4729 -0.0730  0.5297
17590SOL     OW54923   0.428   9.047   4.989  0.6613  0.3310 -0.3283
17590SOL    HW154924   0.444   9.091   4.905  2.0961  0.2972 -0.0967
17590SOL    HW254925   0.477   9.098   5.053  0.6013 -0.3639  0.2873
17591SOL     OW54926   3.399   6.892   5.100  0.0511  0.2206  0.1295
17591SOL    HW154927   3.469   6.863   5.158  0.8630 -0.3261 -1.0810
17591SOL    HW254928   3.325   6.911   5.159  0.4240 -1.5317  1.2291
17592SOL     OW54929   5.864   2.236   8.270  0.0715 -0.0946  0.0955
17592SOL    HW154930   5.883   2.326   8.246  1.5018 -0.8031 -1.6852
17592SOL    HW254931   5.852   2.191   8.187 -4.0404 -0.9653  0.9344
17593SOL     OW54932   2.308   9.267   6.638  0.0556  0.3487  0.7758
17593SOL    HW154933   2.333   9.177   6.661 -0.3874 -0.1465 -0.5962
17593SOL    HW254934   2.250   9.294   6.709  0.3614 -0.3619  1.3198
17594SOL     OW54935   0.711   3.218   5.380 -0.0273 -0.1642 -0.1666
17594SOL    HW154936   0.634   3.220   5.323 -0.6192  0.9949  0.6170
17594SOL    HW254937   0.676   3.230   5.468  0.8849 -1.6944  0.4536
17595SOL     OW54938   6.043   7.377   8.585  0.1832 -0.4379  0.3143
17595SOL    HW154939   6.006   7.427   8.512 -0.5247 -1.6902 -0.2006
17595SOL    HW254940   6.134   7.406   8.589 -0.1754  0.8155 -0.0294
17596SOL     OW54941   0.595   1.808   2.848  0.6493 -1.2081 -0.2096
17596SOL    HW154942   0.557   1.807   2.760  0.7172 -1.6731 -0.2351
17596SOL    HW254943   0.679   1.854   2.837 -0.4898  1.1362  0.1085
17597SOL     OW54944   2.706   3.817   7.408  0.2486 -0.4563 -0.3091
17597SOL    HW154945   2.668   3.781   7.328  2.0726  0.2126 -1.5337
17597SOL    HW254946   2.746   3.899   7.381  0.8703 -0.1896  1.3093
17598SOL     OW54947   3.382   8.171   4.766 -0.5280 -0.0614 -0.0963
17598SOL    HW154948   3.468   8.170   4.808 -0.0973  1.7574 -0.8559
17598SOL    HW254949   3.398   8.146   4.675 -0.1165  3.6834 -1.2272
17599SOL     OW54950   8.840   8.968   0.028  0.3689 -0.4096 -0.7974
17599SOL    HW154951   8.760   8.994  -0.017  0.5013  0.6111 -0.4514
17599SOL    HW254952   8.903   8.953  -0.043  0.5450  1.0819 -0.9828
17600SOL     OW54953   1.570   6.606   9.062  0.1892  0.2840 -0.6527
17600SOL    HW154954   1.498   6.598   8.999  0.2483 -0.2114 -0.6571
17600SOL    HW254955   1.613   6.521   9.062  1.5407  0.9276 -1.5549
17601SOL     OW54956   3.109   7.495   8.599 -0.3756 -0.2438  0.0302
17601SOL    HW154957   3.016   7.508   8.618 -0.0529  1.2029  0.8188
17601SOL    HW254958   3.120   7.526   8.509 -0.5010  0.5780  0.2809
17602SOL     OW54959   6.751   2.918   6.512  0.2001 -0.1187  0.1454
17602SOL    HW154960   6.828   2.941   6.564 -0.5686  0.2966  1.1221
17602SOL    HW254961   6.755   2.977   6.436 -0.2946  1.4658  1.2766
17603SOL     OW54962   4.628   8.289   5.602  0.3762 -0.5735  0.0013
17603SOL    HW154963   4.605   8.340   5.524 -1.4283 -3.2801 -1.4108
17603SOL    HW254964   4.581   8.332   5.674  0.5150  0.8525 -0.7197
17604SOL     OW54965   7.153   4.426   2.378  0.6925 -0.0369  0.1298
17604SOL    HW154966   7.187   4.375   2.303 -0.9598 -0.5531 -0.3162
17604SOL    HW254967   7.144   4.515   2.344 -0.8569 -0.4324 -0.6175
17605SOL     OW54968   3.936   3.540   8.229 -0.4911 -0.2486  0.3743
17605SOL    HW154969   3.883   3.488   8.290  1.0739 -1.0885  1.0886
17605SOL    HW254970   3.923   3.497   8.144 -0.2911 -0.9695  0.7031
17606SOL     OW54971   2.736   6.540   1.927  0.5966  0.1235 -0.1842
17606SOL    HW154972   2.800   6.587   1.874  1.3283 -0.1409  0.4392
17606SOL    HW254973   2.784   6.515   2.006 -0.4414  0.4351  0.5681
17607SOL     OW54974   8.087   9.567   8.793  0.2827 -0.4188  0.2205
17607SOL    HW154975   8.050   9.625   8.726 -1.8189 -1.3753  0.4763
17607SOL    HW254976   8.168   9.534   8.755  0.6459  1.3180 -0.6259
17608SOL     OW54977   1.840   8.251   1.692 -0.5868 -0.0539  0.5348
17608SOL    HW154978   1.905   8.249   1.622 -0.8314 -1.7618  0.3032
17608SOL    HW254979   1.885   8.213   1.768 -1.1814 -0.9485  0.4619
17609SOL     OW54980   7.762   4.340   4.708  0.4617  0.1680 -0.2767
17609SOL    HW154981   7.689   4.374   4.759  2.2086  1.9210  1.2522
17609SOL    HW254982   7.736   4.352   4.616 -1.1685  0.6651  0.2272
17610SOL     OW54983   7.637   6.787   5.093 -0.3009  0.3278  0.4325
17610SOL    HW154984   7.664   6.741   5.013 -0.2993  1.2222 -0.0924
17610SOL    HW254985   7.639   6.720   5.161  2.1765  0.1049  0.2189
17611SOL     OW54986   3.834   4.057   7.789 -0.0097  0.3217 -0.3520
17611SOL    HW154987   3.746   4.020   7.783  0.9482 -2.3209  0.6579
17611SOL    HW254988   3.868   4.053   7.700 -1.3668  2.8231 -1.0764
17612SOL     OW54989   4.914   7.995   6.020 -0.5017 -0.4152  0.0142
17612SOL    HW154990   4.913   7.946   6.102  1.1107  0.8354  0.8291
17612SOL    HW254991   4.939   7.930   5.954  0.1894 -1.0084  0.8336
17613SOL     OW54992   7.933   5.416   2.735  0.2365  0.2407  0.0574
17613SOL    HW154993   7.918   5.395   2.643  1.4830  1.7791 -0.5535
17613SOL    HW254994   7.845   5.430   2.770 -0.2558 -0.2245 -0.9271
17614SOL     OW54995   0.122   9.252   0.885  0.2999  0.8202 -0.3099
17614SOL    HW154996   0.126   9.161   0.853 -1.4475  0.6375 -0.1194
17614SOL    HW254997   0.213   9.278   0.895  0.8624 -0.3658 -1.9263
17615SOL     OW54998   5.811   4.240   5.647  0.2631  0.0727  0.3001
17615SOL    HW154999   5.767   4.225   5.564  1.1275  0.9567 -0.3385
17615SOL    HW255000   5.829   4.153   5.681  0.8518 -0.3191 -0.9640
17616SOL     OW55001   7.894   8.816   2.277  0.1455  0.8124  0.4603
17616SOL    HW155002   7.815   8.860   2.246  1.0750  1.0955 -1.6975
17616SOL    HW255003   7.930   8.875   2.344 -0.0467  2.0397 -0.4958
17617SOL     OW55004   0.481   0.108   7.790 -0.0062 -0.1324 -0.1340
17617SOL    HW155005   0.489   0.021   7.751 -1.0069 -0.2212 -0.1575
17617SOL    HW255006   0.444   0.163   7.721  1.4609  0.5519 -0.4200
17618SOL     OW55007   6.853   4.198   9.391 -0.0584  0.1706 -0.0735
17618SOL    HW155008   6.797   4.195   9.313  0.5592  3.1980 -0.7484
17618SOL    HW255009   6.942   4.188   9.356  0.1809  0.9913  0.2784
17619SOL     OW55010   6.090   7.736   5.601 -0.0820  0.4396  0.0130
17619SOL    HW155011   6.053   7.814   5.643 -0.8287  0.5458 -0.8177
17619SOL    HW255012   6.015   7.681   5.582  0.1911  0.5198 -1.4314
17620SOL     OW55013   1.015   2.389   8.925 -0.1740  0.1376 -0.4324
17620SOL    HW155014   1.084   2.328   8.899 -0.3586 -0.6646  0.8818
17620SOL    HW255015   0.949   2.381   8.856  0.4606 -0.0539 -1.0276
17621SOL     OW55016   8.370   5.981   3.894 -0.4503 -0.0911  0.5709
17621SOL    HW155017   8.327   5.906   3.853 -0.1012 -0.5881  1.0790
17621SOL    HW255018   8.328   6.058   3.856 -0.5571 -0.5433 -0.2360
17622SOL     OW55019   3.377   5.644   5.874  0.1978 -0.3162  0.7927
17622SOL    HW155020   3.395   5.550   5.874  0.8230 -0.2043  0.0459
17622SOL    HW255021   3.460   5.685   5.899  0.2211  0.0765  0.0949
17623SOL     OW55022   6.892   8.431   2.218  0.1507 -0.3108  0.0048
17623SOL    HW155023   6.881   8.364   2.150  0.6715  0.6062 -1.0172
17623SOL    HW255024   6.986   8.442   2.227  0.1151  1.4193 -1.0625
17624SOL     OW55025   6.226   2.154   1.490 -0.1027 -0.8307  0.0647
17624SOL    HW155026   6.137   2.177   1.518  0.0562  1.3606 -1.0065
17624SOL    HW255027   6.278   2.157   1.570 -0.4743  0.8443  0.2740
17625SOL     OW55028   6.214   6.774   5.483  0.1115 -0.7872  0.2925
17625SOL    HW155029   6.124   6.771   5.450 -0.3297  0.4866  1.3219
17625SOL    HW255030   6.239   6.682   5.492 -1.3849 -1.1774  0.7490
17626SOL     OW55031   2.633   7.118   0.221 -0.1590 -0.2830 -0.4536
17626SOL    HW155032   2.703   7.181   0.240 -0.9187  0.9425 -1.4945
17626SOL    HW255033   2.618   7.127   0.126 -1.4645 -0.7939 -0.3211
17627SOL     OW55034   9.251   9.316   5.873 -0.2675  0.0734 -0.2280
17627SOL    HW155035   9.279   9.323   5.965 -0.5021 -1.0461 -0.0494
17627SOL    HW255036   9.309   9.249   5.836  0.2334  0.9645 -1.0711
17628SOL     OW55037   0.338   8.858   3.532 -0.3479  0.1568  0.1695
17628SOL    HW155038   0.265   8.881   3.590  1.0137 -3.2356  3.6624
17628SOL    HW255039   0.311   8.775   3.492  1.0222 -0.5034  0.5575
17629SOL     OW55040   4.650   8.974   8.128 -0.4544  0.5999 -0.1713
17629SOL    HW155041   4.705   9.042   8.167  0.9585 -1.1073  0.9355
17629SOL    HW255042   4.666   8.983   8.034  0.5804  1.0875  0.0352
17630SOL     OW55043   2.406   0.280   4.440  0.2023 -0.2297 -0.2028
17630SOL    HW155044   2.440   0.191   4.443  1.8483  0.3583 -0.2475
17630SOL    HW255045   2.484   0.335   4.428 -0.7434  1.2296  0.0652
17631SOL     OW55046   8.424   3.454   4.260  0.1442  0.4043 -0.1092
17631SOL    HW155047   8.420   3.360   4.243 -1.6212  0.4444 -0.1336
17631SOL    HW255048   8.494   3.486   4.204  0.7252 -0.8754 -0.1546
17632SOL     OW55049   6.698   8.256   9.561  0.3839  0.4847  0.0593
17632SOL    HW155050   6.693   8.161   9.563 -2.2294  0.4956 -1.8104
17632SOL    HW255051   6.766   8.275   9.496 -0.9610 -0.1681 -1.5944
17633SOL     OW55052   5.865   5.243   6.982 -0.0676  0.4665 -0.0558
17633SOL    HW155053   5.909   5.287   6.909 -0.5545 -1.7474 -1.7983
17633SOL    HW255054   5.830   5.315   7.035 -0.2627  2.1969 -2.3536
17634SOL     OW55055   6.722   2.455   0.163 -0.0848 -0.2315  0.2392
17634SOL    HW155056   6.778   2.434   0.237  1.2760  0.3227 -0.5801
17634SOL    HW255057   6.658   2.518   0.198  0.4439 -0.0865  0.9668
17635SOL     OW55058   6.084   2.068   7.294  0.1156 -0.1762 -0.0681
17635SOL    HW155059   6.161   2.048   7.348  0.5660  1.6903  0.0455
17635SOL    HW255060   6.040   1.983   7.283  1.4866 -1.0668  0.9318
17636SOL     OW55061   8.371   1.965   5.064  0.1335  0.0733  0.2529
17636SOL    HW155062   8.286   1.924   5.078  0.1933 -0.2764 -0.3768
17636SOL    HW255063   8.382   1.967   4.969 -0.5868  3.0136  0.1330
17637SOL     OW55064   0.176   1.222   0.051  0.1879  0.3952  0.4975
17637SOL    HW155065   0.081   1.221   0.042  0.2452  0.2678 -0.0993
17637SOL    HW255066   0.209   1.229  -0.038  0.7377  0.6658  0.7163
17638SOL     OW55067   5.371   6.914   6.748 -0.0736 -0.6319 -0.3461
17638SOL    HW155068   5.316   6.887   6.821  1.6801 -1.2960  0.7959
17638SOL    HW255069   5.318   6.978   6.700 -1.2571 -0.1355  1.5151
17639SOL     OW55070   5.539   3.859   1.119 -0.0440  0.3402 -0.0441
17639SOL    HW155071   5.447   3.877   1.097  0.2486  0.0853 -1.5970
17639SOL    HW255072   5.549   3.893   1.208 -1.5400  0.7218  0.0165
17640SOL     OW55073   8.114   4.976   6.351 -0.0517 -0.4037  0.2619
17640SOL    HW155074   8.192   4.993   6.298 -0.3651  1.0683  0.2335
17640SOL    HW255075   8.045   4.959   6.287 -0.2174  0.4200  0.2144
17641SOL     OW55076   5.791   4.984   3.679 -0.1502 -0.8121  0.2551
17641SOL    HW155077   5.861   5.025   3.628 -0.3614  0.3908  0.9009
17641SOL    HW255078   5.837   4.924   3.738  0.1125 -2.0805 -1.1574
17642SOL     OW55079   3.805   0.932   7.867  0.1213 -0.5944 -0.0218
17642SOL    HW155080   3.861   0.869   7.912  0.5057 -2.0489 -2.3673
17642SOL    HW255081   3.859   1.011   7.859  1.1887 -1.3642 -0.6348
17643SOL     OW55082   3.169   0.014   4.944  0.3335  0.0866 -0.1733
17643SOL    HW155083   3.219  -0.067   4.943  0.8356  0.3824  0.4607
17643SOL    HW255084   3.154   0.033   5.037 -2.9811 -1.2169 -0.2955
17644SOL     OW55085   7.624   8.635   7.176 -0.0426  0.0562  0.1339
17644SOL    HW155086   7.542   8.608   7.134  0.4498  1.1094 -1.6371
17644SOL    HW255087   7.688   8.569   7.149  0.1169  0.3424 -0.2028
17645SOL     OW55088   7.633   1.711   8.886  0.2045  0.0615 -0.2846
17645SOL    HW155089   7.712   1.731   8.936 -1.1883  1.7036  1.3785
17645SOL    HW255090   7.579   1.789   8.893 -1.6069 -1.0184 -1.3486
17646SOL     OW55091   4.377   1.982   3.572  0.0639  0.4232 -0.7152
17646SOL    HW155092   4.356   2.029   3.491  0.5483  1.0306 -0.4958
17646SOL    HW255093   4.421   2.047   3.626 -0.1995  0.0032  0.0160
17647SOL     OW55094   0.266   2.213   2.650  0.1292 -0.1190 -0.1402
17647SOL    HW155095   0.225   2.156   2.584 -0.8648 -0.2369  0.5572
17647SOL    HW255096   0.317   2.154   2.705  0.8898 -0.0320 -0.7347
17648SOL     OW55097   6.173   4.893   9.298 -0.1719 -0.1106  0.4547
17648SOL    HW155098   6.124   4.931   9.371 -0.7908 -0.0802  0.0256
17648SOL    HW255099   6.169   4.959   9.229  0.6682 -0.0140  0.4887
17649SOL     OW55100   0.952   3.122   5.468  0.7828 -0.1295  0.0322
17649SOL    HW155101   0.869   3.154   5.434  1.1805  1.1731  0.2287
17649SOL    HW255102   0.948   3.137   5.562  0.4540 -1.9398  0.3324
17650SOL     OW55103   5.334   6.200   2.454  0.0686  0.0596  0.0567
17650SOL    HW155104   5.346   6.203   2.359  0.3656 -1.3928  0.0286
17650SOL    HW255105   5.413   6.159   2.487  0.1485  0.9337  0.9892
17651SOL     OW55106   9.457   8.945   1.413 -0.5202  0.2465 -0.6395
17651SOL    HW155107   9.440   8.987   1.329  0.7075  0.4086 -0.8282
17651SOL    HW255108   9.551   8.956   1.426 -0.6577  0.0002  0.6392
17652SOL     OW55109   2.998   2.762   4.020 -0.0559  0.1191 -0.2690
17652SOL    HW155110   2.990   2.716   4.103 -0.8675  1.5633  0.4811
17652SOL    HW255111   3.092   2.779   4.011 -0.0291  0.5173  0.6726
17653SOL     OW55112   1.350   0.094   4.276  0.1685  0.0207 -0.1151
17653SOL    HW155113   1.279   0.113   4.339  0.9529 -0.4663  0.9391
17653SOL    HW255114   1.377   0.181   4.245 -0.6382  0.2335 -0.2710
17654SOL     OW55115   5.476   4.110   6.345 -0.4554 -0.1279 -1.2565
17654SOL    HW155116   5.386   4.135   6.369  0.0940  0.1878  0.6297
17654SOL    HW255117   5.467   4.025   6.303 -1.5538 -0.5356 -0.2465
17655SOL     OW55118   0.037   4.729   1.477 -0.0944  0.1291 -0.2745
17655SOL    HW155119  -0.005   4.697   1.398 -0.0639 -0.0153 -0.2323
17655SOL    HW255120   0.122   4.762   1.448  0.6721 -1.5505 -0.0465
17656SOL     OW55121   2.567   7.108   4.600  0.0792  0.1637 -0.2685
17656SOL    HW155122   2.630   7.125   4.531 -0.1459  0.7424 -0.3400
17656SOL    HW255123   2.618   7.114   4.681  0.2668 -0.1350 -0.3662
17657SOL     OW55124   6.971   7.161   5.543  0.1587  0.1002 -0.1950
17657SOL    HW155125   7.048   7.165   5.486  0.5007 -0.2311  0.2387
17657SOL    HW255126   6.922   7.084   5.513 -0.3629  0.6972 -0.9125
17658SOL     OW55127   7.919   1.628   5.767  0.7602 -0.2093 -0.0145
17658SOL    HW155128   7.915   1.704   5.709 -1.0789 -0.5825 -0.4329
17658SOL    HW255129   7.918   1.553   5.708 -0.4841 -0.5807  0.4590
17659SOL     OW55130   4.244   1.659   4.396 -0.2141 -0.6268 -0.1659
17659SOL    HW155131   4.235   1.728   4.330  0.7374 -1.9903 -1.7839
17659SOL    HW255132   4.155   1.626   4.409 -0.4001 -0.3690 -0.7722
17660SOL     OW55133   0.428   6.187   4.285  0.3023  0.0295 -0.0238
17660SOL    HW155134   0.397   6.276   4.270 -1.6086 -0.0752  2.5828
17660SOL    HW255135   0.404   6.139   4.206 -2.2118  1.0256  0.0497
17661SOL     OW55136   1.194   3.842   3.748 -0.0345  0.0967 -0.1049
17661SOL    HW155137   1.238   3.889   3.818 -1.0199 -0.1413  0.7086
17661SOL    HW255138   1.199   3.750   3.774 -0.0582 -0.0313 -0.5483
17662SOL     OW55139   7.276   7.367   0.680  0.1867 -0.0911 -0.2891
17662SOL    HW155140   7.289   7.456   0.648  0.6766 -0.3109 -0.7232
17662SOL    HW255141   7.289   7.374   0.775 -0.9171  0.4953 -0.1704
17663SOL     OW55142   0.202   2.445   2.216  0.2354 -0.2939  0.1198
17663SOL    HW155143   0.114   2.427   2.184  0.1904 -1.5822  0.9030
17663SOL    HW255144   0.257   2.439   2.138 -0.5102  2.0523 -0.6706
17664SOL     OW55145   2.621   1.793   5.831  0.8478 -0.1085 -0.1079
17664SOL    HW155146   2.541   1.741   5.826  0.8633 -0.0425 -1.5793
17664SOL    HW255147   2.691   1.728   5.842  0.6963 -0.2619 -0.0485
17665SOL     OW55148   5.657   8.129   1.694  0.5756 -0.0809 -0.3187
17665SOL    HW155149   5.705   8.210   1.710 -2.0045  1.3165  0.9098
17665SOL    HW255150   5.672   8.076   1.773 -1.2734  1.1188  0.8885
17666SOL     OW55151   1.053   4.434   3.954 -0.1120  0.5002 -0.5605
17666SOL    HW155152   0.967   4.393   3.944 -0.0573  0.1457  0.3437
17666SOL    HW255153   1.067   4.480   3.871 -0.6483 -0.4206 -1.1764
17667SOL     OW55154   1.610   9.073   7.712 -0.0434  0.0883  0.0822
17667SOL    HW155155   1.664   9.036   7.643  0.1807 -0.5286  0.5834
17667SOL    HW255156   1.642   9.162   7.724 -0.5026  0.4171 -1.0455
17668SOL     OW55157   7.203   1.130   7.056  0.2547  0.0494 -0.0045
17668SOL    HW155158   7.120   1.148   7.099  0.1757 -0.3271  0.0058
17668SOL    HW255159   7.179   1.088   6.974  0.4299  0.0741 -0.0698
17669SOL     OW55160   0.499   9.073   8.774 -0.7037 -0.1166 -0.4821
17669SOL    HW155161   0.477   9.093   8.865  2.3436  2.7077 -0.1445
17669SOL    HW255162   0.432   9.117   8.723  0.3565  2.8468  0.4651
17670SOL     OW55163   5.207   1.744   5.355  0.0424 -0.2074  0.0410
17670SOL    HW155164   5.290   1.742   5.307 -0.5241 -0.4502 -0.9631
17670SOL    HW255165   5.216   1.817   5.416  1.4081 -0.9399  0.7473
17671SOL     OW55166   4.696   4.664   7.718  0.4043 -0.2096  0.4604
17671SOL    HW155167   4.669   4.697   7.803 -0.9063  1.8192 -0.6835
17671SOL    HW255168   4.790   4.680   7.715  0.3883  0.0950  1.3479
17672SOL     OW55169   6.912   3.791   4.021  0.0343  0.2470  0.7348
17672SOL    HW155170   6.952   3.861   3.970 -1.3251  1.6973  1.5957
17672SOL    HW255171   6.987   3.739   4.053  1.0552  1.1956 -0.0406
17673SOL     OW55172   0.867   0.432   7.432 -0.2060  0.5787  0.0926
17673SOL    HW155173   0.896   0.368   7.367 -1.6249  1.8783 -1.9565
17673SOL    HW255174   0.947   0.476   7.461  0.3684  1.0232 -2.0085
17674SOL     OW55175   4.783   6.460   2.098  0.2825  0.3184 -0.0493
17674SOL    HW155176   4.699   6.478   2.056  0.5608  0.5113 -0.5347
17674SOL    HW255177   4.819   6.386   2.049 -1.0611 -2.0092  2.2137
17675SOL     OW55178   0.335   7.565   1.864 -0.4027 -0.4228 -0.2173
17675SOL    HW155179   0.406   7.578   1.926  1.0133  2.4426 -2.2151
17675SOL    HW255180   0.284   7.646   1.869 -0.8487 -0.5442 -1.9841
17676SOL     OW55181   1.859   5.643   0.199  0.3313 -0.1619  0.9880
17676SOL    HW155182   1.772   5.605   0.212 -0.5238  0.5865 -1.8579
17676SOL    HW255183   1.919   5.576   0.233 -1.3007 -0.9691  2.4391
17677SOL     OW55184   9.045   6.923   7.984 -0.2493 -0.0278 -0.5269
17677SOL    HW155185   9.107   6.987   8.019 -0.2970 -0.6691  0.8048
17677SOL    HW255186   8.962   6.944   8.028 -1.2726  1.3966 -2.9516
17678SOL     OW55187   4.555   2.118   5.230  0.4944 -0.0125 -0.4069
17678SOL    HW155188   4.508   2.056   5.175 -3.0899  1.9855  0.0925
17678SOL    HW255189   4.609   2.169   5.170  0.3253 -0.9372 -1.3602
17679SOL     OW55190   3.541   0.891   1.438 -0.1435  0.0600  0.0221
17679SOL    HW155191   3.561   0.901   1.531 -0.3323 -0.5537  0.1355
17679SOL    HW255192   3.571   0.972   1.398 -0.4424  0.5038  0.6806
17680SOL     OW55193   9.058   0.129   1.510 -0.2888 -0.1169 -0.2208
17680SOL    HW155194   9.137   0.077   1.525 -0.9918 -1.8969 -2.1784
17680SOL    HW255195   9.002   0.109   1.585 -0.3969 -1.9543 -0.7505
17681SOL     OW55196   6.173   7.988   4.018 -0.1429 -0.5966 -0.6683
17681SOL    HW155197   6.167   8.047   3.943  1.5079  2.1643  1.1891
17681SOL    HW255198   6.129   8.035   4.089  1.0193 -1.7143  0.8612
17682SOL     OW55199   5.861   9.552   2.668  0.1081  0.2039  0.5587
17682SOL    HW155200   5.776   9.516   2.695  1.0879 -1.8683  1.0738
17682SOL    HW255201   5.913   9.476   2.644  1.5738  1.4931 -0.5604
17683SOL     OW55202   0.101   0.052   5.111 -0.0118  0.5050 -0.9064
17683SOL    HW155203   0.076  -0.002   5.186  2.4017  0.3500 -0.1103
17683SOL    HW255204   0.105  -0.009   5.038 -0.9996  0.3727 -0.8545
17684SOL     OW55205   2.465   1.168   6.866  0.0308  0.4368  0.0126
17684SOL    HW155206   2.457   1.077   6.895  0.8448  0.5105  0.5162
17684SOL    HW255207   2.480   1.217   6.947  1.2967  0.7924 -0.4132
17685SOL     OW55208   7.595   2.680   0.917 -0.0893 -0.0714  0.3171
17685SOL    HW155209   7.652   2.614   0.956  0.1876  0.8087  1.4661
17685SOL    HW255210   7.518   2.682   0.975 -1.3407 -1.2633 -1.2209
17686SOL     OW55211   2.096   3.816   0.435  0.1161 -0.4145  0.1077
17686SOL    HW155212   2.185   3.810   0.399 -0.2034 -0.0816 -0.7564
17686SOL    HW255213   2.055   3.734   0.408 -0.7052  0.6019 -1.9473
17687SOL     OW55214   2.521   6.612   2.537 -0.0744  0.7930  0.2693
17687SOL    HW155215   2.556   6.652   2.457  0.6547  1.4541  0.9004
17687SOL    HW255216   2.520   6.684   2.600  0.5343 -0.0071  1.2063
17688SOL     OW55217   6.815   9.084   2.933 -0.5251 -0.3685 -0.3043
17688SOL    HW155218   6.873   9.081   2.857  0.8073 -1.0084  0.6900
17688SOL    HW255219   6.833   9.169   2.973 -0.5525 -0.4088 -0.2063
17689SOL     OW55220   1.087   1.525   5.576  0.7430  0.0619 -0.0187
17689SOL    HW155221   1.097   1.618   5.597  0.3655 -0.4118  2.5070
17689SOL    HW255222   1.059   1.484   5.658  0.7858 -2.2794 -1.0900
17690SOL     OW55223   7.162   4.232   7.205 -0.0440  0.0414  0.4325
17690SOL    HW155224   7.126   4.320   7.212 -1.9985 -0.7798  1.4934
17690SOL    HW255225   7.257   4.244   7.207 -0.2801  2.0567  1.4872
17691SOL     OW55226   7.791   8.585   1.723 -0.1917 -0.0697  0.2568
17691SOL    HW155227   7.856   8.609   1.789 -0.7544 -2.1559  1.6826
17691SOL    HW255228   7.820   8.499   1.691 -1.7030 -0.6082  0.2253
17692SOL     OW55229   2.008   8.127   4.948 -0.3161 -0.1483 -0.2560
17692SOL    HW155230   1.994   8.034   4.933 -1.3158  0.2527 -2.1316
17692SOL    HW255231   2.099   8.134   4.975 -0.3836 -1.7104  0.4452
17693SOL     OW55232   3.605   4.932   8.932 -0.2131 -0.6455  0.0433
17693SOL    HW155233   3.538   4.881   8.978 -2.4319  2.0734  0.0666
17693SOL    HW255234   3.644   4.987   9.001 -0.4060  0.2355 -0.5312
17694SOL     OW55235   3.360   6.215   2.232  0.0286 -0.3897 -0.2635
17694SOL    HW155236   3.373   6.143   2.293 -0.0758  0.0725  0.3142
17694SOL    HW255237   3.413   6.287   2.268 -0.5201  0.0769 -0.3756
17695SOL     OW55238   3.271   2.012   3.589  0.2711  0.4689 -0.3270
17695SOL    HW155239   3.342   1.965   3.546 -0.6862 -0.5272 -0.8482
17695SOL    HW255240   3.193   1.991   3.538 -0.7639 -0.1331  1.4218
17696SOL     OW55241   7.475   5.294   0.693 -0.0461  0.2719  0.0464
17696SOL    HW155242   7.505   5.353   0.762  1.8285  0.7903 -1.1479
17696SOL    HW255243   7.479   5.207   0.733 -2.6656  0.7844  1.7671
17697SOL     OW55244   4.350   6.959   4.652  0.2174 -0.1832 -0.3745
17697SOL    HW155245   4.278   6.952   4.589  1.1061  2.0961 -1.7871
17697SOL    HW255246   4.428   6.939   4.601  0.9153  1.2285  0.0909
17698SOL     OW55247   8.377   8.415   1.341 -0.0609 -0.1709  0.0593
17698SOL    HW155248   8.293   8.404   1.385  0.2050 -0.5382  0.4858
17698SOL    HW255249   8.432   8.461   1.405  0.5337 -1.2834  0.3767
17699SOL     OW55250   0.642   3.699   9.077 -0.0069 -0.4446  0.5704
17699SOL    HW155251   0.665   3.615   9.037 -0.8525 -0.4927  0.1637
17699SOL    HW255252   0.693   3.763   9.028 -1.0440 -0.4990 -0.6376
17700SOL     OW55253   1.268   7.589   9.112  0.4441  0.1229  0.6259
17700SOL    HW155254   1.249   7.652   9.182  0.7138  0.5365  0.3310
17700SOL    HW255255   1.364   7.579   9.115  0.5414  0.7242 -0.1730
17701SOL     OW55256   2.734   7.621   4.830 -0.4666 -0.1145  0.3634
17701SOL    HW155257   2.768   7.667   4.907  1.1560 -0.3547 -0.1814
17701SOL    HW255258   2.694   7.689   4.777 -0.3573  0.2622  0.7618
17702SOL     OW55259   5.069   3.131   9.118 -0.0491 -0.3371  0.3226
17702SOL    HW155260   5.096   3.107   9.029 -0.4180  0.0662  0.1016
17702SOL    HW255261   5.082   3.226   9.123 -0.1875 -0.3327  0.6474
17703SOL     OW55262   9.266   8.080   8.184  0.0492  0.0418 -0.9878
17703SOL    HW155263   9.240   8.035   8.264  1.1532  2.1729  0.6961
17703SOL    HW255264   9.361   8.074   8.182 -0.0141 -1.0398 -2.8657
17704SOL     OW55265   1.037   5.137   0.263 -0.6706 -0.3497 -0.1566
17704SOL    HW155266   1.030   5.185   0.180  0.3877 -1.8108 -1.1496
17704SOL    HW255267   0.949   5.100   0.276 -1.0773  0.5714 -0.1577
17705SOL     OW55268   8.797   1.355   2.080 -0.4965 -0.1651 -0.5445
17705SOL    HW155269   8.755   1.376   2.163 -1.4062  1.5845 -1.3939
17705SOL    HW255270   8.743   1.286   2.042 -0.5229 -0.4279 -0.0377
17706SOL     OW55271   4.908   4.229   2.453  0.4699 -0.0133  0.6101
17706SOL    HW155272   4.888   4.139   2.424  0.5229  0.6579 -1.6832
17706SOL    HW255273   4.986   4.220   2.507  0.9081 -1.2742 -0.1918
17707SOL     OW55274   0.351   6.188   9.302  0.2429 -0.1204 -0.2756
17707SOL    HW155275   0.374   6.115   9.244  0.8815 -0.5971  0.5711
17707SOL    HW255276   0.363   6.154   9.390 -1.8327  0.2403  0.1946
17708SOL     OW55277   5.521   2.488   4.331  0.1507 -0.1307  0.5850
17708SOL    HW155278   5.563   2.550   4.271 -1.6742  1.9941  1.3721
17708SOL    HW255279   5.458   2.442   4.276  0.2752 -0.0205  0.3469
17709SOL     OW55280   7.617   4.489   8.851  0.0156 -0.1069  0.8813
17709SOL    HW155281   7.585   4.483   8.761  0.3689  0.6474  0.6987
17709SOL    HW255282   7.616   4.398   8.883  4.7275 -1.2848 -1.5488
17710SOL     OW55283   4.995   8.502   0.795  0.3278 -0.6201  0.5752
17710SOL    HW155284   4.951   8.573   0.749  1.3012 -0.2386  0.2098
17710SOL    HW255285   4.949   8.497   0.880  0.1247  0.3138  0.5347
17711SOL     OW55286   7.464   8.579   4.655 -0.1790  0.1694 -0.0213
17711SOL    HW155287   7.512   8.566   4.737 -0.6181  2.0149  0.5811
17711SOL    HW255288   7.524   8.548   4.587 -0.5105 -3.1786  1.0180
17712SOL     OW55289   0.473   6.149   1.000 -0.0392 -0.0423 -0.3870
17712SOL    HW155290   0.450   6.236   0.969  1.4301  0.1506 -0.9754
17712SOL    HW255291   0.447   6.090   0.929 -0.7217 -0.0622 -0.1281
17713SOL     OW55292   0.826   0.698   9.543 -0.1821  0.3823 -0.6102
17713SOL    HW155293   0.857   0.668   9.628 -0.5529  1.7801  0.0490
17713SOL    HW255294   0.731   0.685   9.545 -0.1450  0.0264 -0.9814
17714SOL     OW55295   1.123   7.925   0.996  0.3338  0.2901 -0.8423
17714SOL    HW155296   1.159   8.001   0.949 -0.2890  0.5340 -0.9251
17714SOL    HW255297   1.192   7.858   0.988  1.0463  0.9566 -0.4529
17715SOL     OW55298   8.783   8.623   8.861  0.5189 -0.0229 -0.5319
17715SOL    HW155299   8.852   8.562   8.886  0.7657  0.7716  0.7925
17715SOL    HW255300   8.734   8.638   8.942 -0.3642  0.4977 -1.1499
17716SOL     OW55301   5.388   7.654   0.831  0.0068  0.6802 -0.2850
17716SOL    HW155302   5.427   7.604   0.759  1.1608  1.5342 -0.2799
17716SOL    HW255303   5.320   7.597   0.866  1.1018 -0.7660 -0.4468
17717SOL     OW55304   6.925   3.954   4.435  0.2858  0.1197 -0.1457
17717SOL    HW155305   6.869   3.922   4.506 -1.3896  0.1481 -1.3876
17717SOL    HW255306   6.976   3.877   4.409 -3.9325 -2.0395 -3.3312
17718SOL     OW55307   0.163   8.668   9.154 -0.2030  0.0777  0.2084
17718SOL    HW155308   0.184   8.761   9.161  0.8734  0.1336 -2.4606
17718SOL    HW255309   0.141   8.655   9.061  0.7012 -2.5020  0.2566
17719SOL     OW55310   8.170   0.251   4.842  0.4944  0.0393 -0.2162
17719SOL    HW155311   8.236   0.311   4.808 -0.4884  1.2643 -0.0188
17719SOL    HW255312   8.135   0.295   4.920 -0.3607 -0.6990 -0.1632
17720SOL     OW55313   7.950   9.141   8.588 -0.0342  0.0963 -0.0292
17720SOL    HW155314   7.943   9.051   8.558 -1.3713 -0.1508  0.9403
17720SOL    HW255315   7.995   9.135   8.673 -0.4995  0.2947  0.2337
17721SOL     OW55316   7.580   1.763   6.231 -0.3741  0.6807  0.2659
17721SOL    HW155317   7.598   1.797   6.319  1.2497 -1.2664  0.7605
17721SOL    HW255318   7.661   1.777   6.183 -1.1683  1.4970 -0.8833
17722SOL     OW55319   9.238   1.876   2.502 -0.0165  0.3314  0.5314
17722SOL    HW155320   9.331   1.874   2.477 -0.1044  0.4001  0.1971
17722SOL    HW255321   9.209   1.785   2.494  0.0729  0.2712  0.8438
17723SOL     OW55322   8.901   1.508   1.817  0.4658  0.4145  0.8150
17723SOL    HW155323   8.869   1.575   1.877  1.0682  1.3169  0.1557
17723SOL    HW255324   8.825   1.452   1.800  0.1525  0.4652  1.9617
17724SOL     OW55325   7.584   3.259   8.127  0.0984 -0.3721 -0.3062
17724SOL    HW155326   7.642   3.263   8.203  1.2912 -0.7723 -1.1748
17724SOL    HW255327   7.573   3.350   8.100 -2.8859  0.2075  2.1333
17725SOL     OW55328   9.397   6.643   3.599  0.3164  0.5544 -0.0684
17725SOL    HW155329   9.388   6.596   3.516 -1.8351 -1.1673  1.0430
17725SOL    HW255330   9.370   6.732   3.579 -0.0006  0.2122 -1.2497
17726SOL     OW55331   6.053   7.636   0.283 -0.0995  0.2513  0.0028
17726SOL    HW155332   6.112   7.590   0.343  1.7411  1.0240 -1.1208
17726SOL    HW255333   6.111   7.671   0.215 -1.6223  2.8202 -0.0787
17727SOL     OW55334   8.830   6.876   8.748  0.1445 -0.3153  0.2467
17727SOL    HW155335   8.805   6.845   8.835  0.3938  0.4989  0.6199
17727SOL    HW255336   8.926   6.879   8.750  0.1198  2.2587  0.9032
17728SOL     OW55337   0.594   7.907   1.968 -0.1016 -0.0554 -0.5851
17728SOL    HW155338   0.640   7.987   1.941  0.7756 -0.5870 -0.6918
17728SOL    HW255339   0.632   7.838   1.914  0.3677 -0.8238  0.6917
17729SOL     OW55340   0.030   6.900   0.629  0.3864 -0.0755  0.4990
17729SOL    HW155341   0.056   6.901   0.721 -0.0323  0.3426  0.6163
17729SOL    HW255342   0.103   6.856   0.584  0.0019 -1.4754  1.1944
17730SOL     OW55343   1.894   9.523   0.484  0.0995 -0.6750 -0.0678
17730SOL    HW155344   1.826   9.559   0.542 -1.0653 -0.4204 -1.5232
17730SOL    HW255345   1.958   9.484   0.543 -0.2149  0.9774  1.4579
17731SOL     OW55346   2.322   6.035   2.585  0.4435 -0.8687  0.0333
17731SOL    HW155347   2.413   6.050   2.608  0.1747 -0.6620  1.0057
17731SOL    HW255348   2.275   6.109   2.624  0.0385 -0.0609 -1.8512
17732SOL     OW55349   7.950   8.967   2.530  0.8718  0.2215 -0.1874
17732SOL    HW155350   8.035   8.967   2.575  1.9194  0.1819 -2.0401
17732SOL    HW255351   7.944   9.054   2.491 -0.4547  0.5865  0.7987
17733SOL     OW55352   3.343   6.933   6.898 -0.2017 -0.1037  0.0463
17733SOL    HW155353   3.321   6.850   6.855  1.3906 -1.4080  1.5897
17733SOL    HW255354   3.278   6.941   6.969  0.7131 -1.0278  1.0358
17734SOL     OW55355   1.570   7.059   7.927  0.0962  0.1739 -0.1830
17734SOL    HW155356   1.634   7.086   7.861 -0.0439  1.6763  0.2631
17734SOL    HW255357   1.621   7.015   7.994  0.3273 -0.7774 -0.9699
17735SOL     OW55358   3.628   3.655   5.815  0.3327  0.0248  0.0530
17735SOL    HW155359   3.559   3.721   5.815  2.5284  2.4878 -0.6198
17735SOL    HW255360   3.691   3.686   5.750  1.0537 -3.3146 -1.0630
17736SOL     OW55361   8.639   2.159   1.730  0.3350 -0.5278 -0.4924
17736SOL    HW155362   8.685   2.129   1.809  0.1409  0.1190 -0.1334
17736SOL    HW255363   8.709   2.194   1.674  0.0952  3.2608  1.2672
17737SOL     OW55364   4.928   6.186   7.195 -0.0820 -0.3332  0.3460
17737SOL    HW155365   4.843   6.146   7.176  0.5519 -1.1880 -0.8239
17737SOL    HW255366   4.918   6.277   7.169 -1.0296 -0.1135  1.4317
17738SOL     OW55367   6.682   2.925   0.079  0.3234 -0.0892  0.5655
17738SOL    HW155368   6.703   3.003   0.027  0.3624 -0.4806 -0.0123
17738SOL    HW255369   6.767   2.886   0.098  0.3622  0.4608  1.5783
17739SOL     OW55370   5.615   4.218   9.260 -0.4506 -0.0459 -0.0007
17739SOL    HW155371   5.548   4.151   9.248  0.1208 -0.5147 -0.6736
17739SOL    HW255372   5.635   4.216   9.353  0.3567 -1.6077 -0.1826
17740SOL     OW55373   2.007   5.030   5.552  0.0627 -0.4579  1.0356
17740SOL    HW155374   2.096   5.047   5.581  1.4964 -0.8412 -2.5452
17740SOL    HW255375   1.998   4.935   5.556  0.4323 -0.5511 -0.0470
17741SOL     OW55376   2.822   7.067   5.813  0.4158 -0.3782  0.4549
17741SOL    HW155377   2.885   7.136   5.792  0.0721  0.0161  0.6938
17741SOL    HW255378   2.854   6.990   5.767  1.4196 -0.3466  1.0956
17742SOL     OW55379   9.276   1.348   4.309  0.2537  0.3013 -0.3799
17742SOL    HW155380   9.250   1.411   4.376 -1.0301 -0.1014 -0.4674
17742SOL    HW255381   9.338   1.395   4.254  1.0616  0.7540  0.8757
17743SOL     OW55382   0.310   0.939   7.224 -0.5491 -0.2048  0.7123
17743SOL    HW155383   0.299   0.942   7.319 -0.6685  2.0378  0.6940
17743SOL    HW255384   0.223   0.958   7.189 -0.4516 -0.7598  0.1601
17744SOL     OW55385   5.432   2.516   3.994  0.2507 -0.1890  0.7243
17744SOL    HW155386   5.356   2.571   4.014 -0.0761  0.7301 -2.4091
17744SOL    HW255387   5.508   2.568   4.020 -0.1409  0.1350  1.2123
17745SOL     OW55388   7.473   6.959   6.598  0.7173 -0.0195  0.0574
17745SOL    HW155389   7.410   6.938   6.529 -0.4292 -0.0614  1.0844
17745SOL    HW255390   7.431   7.028   6.649  0.4636 -1.5932  2.1105
17746SOL     OW55391   2.327   8.046   0.340 -0.4811  0.2045 -0.2066
17746SOL    HW155392   2.241   8.066   0.303  0.3565  4.8992 -0.1452
17746SOL    HW255393   2.337   8.108   0.413  1.7307 -2.4203  1.9643
17747SOL     OW55394   5.221   6.962   8.977 -0.0608 -0.6215 -0.3792
17747SOL    HW155395   5.134   6.947   9.013 -0.5338  2.2812 -0.0802
17747SOL    HW255396   5.205   6.984   8.885  0.0818  1.7359  0.0979
17748SOL     OW55397   8.351   3.363   2.231  0.3914  0.2920 -0.1544
17748SOL    HW155398   8.444   3.347   2.215  0.7463 -0.0050  1.9374
17748SOL    HW255399   8.349   3.428   2.301 -0.9508 -0.3765  0.4701
17749SOL     OW55400   5.807   5.930   0.178 -0.3718 -0.1693  0.1695
17749SOL    HW155401   5.861   5.856   0.150 -0.1138 -1.2121  3.1573
17749SOL    HW255402   5.730   5.925   0.122 -0.1574 -2.4293 -0.0240
17750SOL     OW55403   0.460   1.490   8.319  0.1713 -0.0694  0.0364
17750SOL    HW155404   0.470   1.501   8.414  2.9781 -2.6384  0.1974
17750SOL    HW255405   0.365   1.482   8.306 -0.2468 -0.5212  2.7847
17751SOL     OW55406   0.908   9.356   9.324 -0.1835  0.1655  0.3749
17751SOL    HW155407   0.901   9.382   9.232 -1.1412  1.0157  0.6682
17751SOL    HW255408   0.958   9.427   9.365  1.0282 -0.6483  0.3611
17752SOL     OW55409   7.686   5.287   7.682  0.1796  0.1958 -0.4967
17752SOL    HW155410   7.675   5.381   7.669 -0.1687  0.2878  0.4406
17752SOL    HW255411   7.610   5.261   7.733  0.1305 -0.6520 -0.9851
17753SOL     OW55412   4.840   1.401   0.230  0.3051  0.3238 -0.1513
17753SOL    HW155413   4.844   1.458   0.154 -1.5811  0.4234 -0.2423
17753SOL    HW255414   4.839   1.460   0.305 -0.2491  0.3632 -0.1825
17754SOL     OW55415   8.919   2.941   4.317  0.1591 -0.1266  0.5238
17754SOL    HW155416   8.891   2.937   4.225  1.4644  2.7111 -0.1088
17754SOL    HW255417   8.937   2.850   4.340  1.1836 -0.8111 -2.4977
17755SOL     OW55418   0.927   3.710   3.852 -0.2354 -0.7527 -0.3210
17755SOL    HW155419   0.948   3.758   3.772  1.4846 -0.8132  0.0461
17755SOL    HW255420   0.888   3.776   3.910 -0.6377 -0.5000 -0.8742
17756SOL     OW55421   3.259   8.356   1.465 -0.0128 -0.4043 -0.2879
17756SOL    HW155422   3.242   8.357   1.559 -1.8239  0.8655 -0.5884
17756SOL    HW255423   3.323   8.426   1.451 -0.0108 -0.3625 -0.0630
17757SOL     OW55424   7.510   4.639   1.275  1.0159 -0.1658  0.1700
17757SOL    HW155425   7.542   4.713   1.326 -0.1900 -0.0383  0.7731
17757SOL    HW255426   7.537   4.562   1.324  0.9681 -0.0781  0.3338
17758SOL     OW55427   4.114   0.475   8.241  0.1255 -0.5077  0.4457
17758SOL    HW155428   4.146   0.560   8.269  0.5299 -0.7655  0.7873
17758SOL    HW255429   4.101   0.426   8.323  0.8615 -1.1117  0.2123
17759SOL     OW55430   0.701   5.333   2.114 -0.0824  0.1276  0.0479
17759SOL    HW155431   0.674   5.274   2.044  1.5199 -1.0682  0.3670
17759SOL    HW255432   0.752   5.401   2.069 -0.2751  0.1791 -0.0956
17760SOL     OW55433   2.552   6.971   5.764 -0.6205  0.5220  0.6116
17760SOL    HW155434   2.617   7.035   5.790 -1.8859  3.0063 -1.8569
17760SOL    HW255435   2.603   6.893   5.740  1.3465  1.8987  0.0839
17761SOL     OW55436   1.407   6.614   8.261  0.6081  0.2745  0.4556
17761SOL    HW155437   1.391   6.698   8.304  1.1689  1.9189 -2.2714
17761SOL    HW255438   1.325   6.566   8.271  0.1516  1.2772  1.8068
17762SOL     OW55439   5.287   7.951   7.162  0.1376  0.5952  0.1997
17762SOL    HW155440   5.359   7.981   7.107  1.1780 -1.2404  0.4805
17762SOL    HW255441   5.227   7.908   7.102 -0.9856  2.4454 -0.0918
17763SOL     OW55442   4.375   5.705   6.490 -0.0030  0.0193 -0.0192
17763SOL    HW155443   4.452   5.705   6.432  0.0675 -0.3556  0.0702
17763SOL    HW255444   4.388   5.628   6.546  0.4318  0.9194  1.1620
17764SOL     OW55445   4.308   0.810   3.573  0.0144  0.1135  0.0541
17764SOL    HW155446   4.313   0.716   3.591  0.9535  0.2411  0.5058
17764SOL    HW255447   4.377   0.849   3.626  1.3586  0.7756 -2.0376
17765SOL     OW55448   0.768   0.955   5.926  0.6495  0.6236  0.0669
17765SOL    HW155449   0.766   0.873   5.976  1.4381 -1.2750 -2.7903
17765SOL    HW255450   0.679   0.990   5.934 -0.3335 -1.6356 -0.2951
17766SOL     OW55451   4.050   5.223   6.520  0.3160  0.1948  0.3006
17766SOL    HW155452   3.991   5.299   6.520 -0.8239 -0.6667 -0.0726
17766SOL    HW255453   4.134   5.258   6.489 -0.5161  1.0752 -1.0643
17767SOL     OW55454   5.528   4.380   1.363 -0.0952  0.5516  0.3884
17767SOL    HW155455   5.521   4.451   1.300 -1.4693  0.2052  0.1274
17767SOL    HW255456   5.438   4.363   1.391  0.2542 -0.7670  0.7912
17768SOL     OW55457   3.036   5.564   6.119 -0.4282 -0.5621 -0.6722
17768SOL    HW155458   3.027   5.554   6.214 -0.9540 -3.6098 -0.9518
17768SOL    HW255459   3.103   5.632   6.108 -0.9057  0.4245  1.8321
17769SOL     OW55460   8.460   5.947   8.900  0.7133 -0.7134  0.1535
17769SOL    HW155461   8.517   5.973   8.973 -1.4639  0.9288  1.4066
17769SOL    HW255462   8.480   6.010   8.831  1.0289 -0.7006  0.2516
17770SOL     OW55463   2.622   6.416   3.861 -0.1212 -0.4297 -0.0589
17770SOL    HW155464   2.566   6.440   3.935 -3.1694 -0.4175 -2.2161
17770SOL    HW255465   2.621   6.492   3.804  1.7528 -0.6252 -0.4116
17771SOL     OW55466   7.703   7.508   1.763 -0.2435 -0.0780 -0.2327
17771SOL    HW155467   7.793   7.527   1.738  0.0829 -0.7230  0.3962
17771SOL    HW255468   7.701   7.526   1.858 -0.9911  0.6936 -0.3842
17772SOL     OW55469   0.854   3.970   0.419 -0.0636  0.3563 -0.4890
17772SOL    HW155470   0.888   3.881   0.420  0.6892  0.6390  0.0623
17772SOL    HW255471   0.798   3.974   0.342 -1.5536 -1.1123  0.4600
17773SOL     OW55472   5.854   2.129   3.434  0.2611 -0.0273 -0.1211
17773SOL    HW155473   5.769   2.123   3.390 -0.3553  0.3083  0.9868
17773SOL    HW255474   5.841   2.082   3.517  1.4647 -0.8592 -0.3868
17774SOL     OW55475   6.414   6.965   6.280  0.7092  0.0038  0.3396
17774SOL    HW155476   6.376   7.012   6.205  0.2723  0.8550  1.0796
17774SOL    HW255477   6.343   6.956   6.342  0.2688 -3.3453 -0.4961
17775SOL     OW55478   0.323   5.330   4.057  0.4428 -0.0628 -0.3790
17775SOL    HW155479   0.389   5.272   4.019 -1.0692 -1.0959 -1.5599
17775SOL    HW255480   0.259   5.270   4.096  0.5963  0.9285  1.5059
17776SOL     OW55481   9.421   3.577   4.741  0.1875 -0.3057 -0.4157
17776SOL    HW155482   9.348   3.628   4.774  0.4277 -0.3470  0.1958
17776SOL    HW255483   9.466   3.635   4.680 -1.2542 -0.8109 -2.0273
17777SOL     OW55484   0.318   3.455   8.527 -0.3720  0.3981 -0.0143
17777SOL    HW155485   0.264   3.462   8.449  0.5176  1.1114 -0.5926
17777SOL    HW255486   0.356   3.542   8.537  0.5684 -0.0504  0.4325
17778SOL     OW55487   2.067   1.320   8.937 -0.8674  0.5983  0.4491
17778SOL    HW155488   2.082   1.236   8.979  2.2485  1.1269  0.6856
17778SOL    HW255489   1.975   1.318   8.910 -1.1223 -2.4967  1.1723
17779SOL     OW55490   2.900   2.207   1.515  0.5721 -0.1162  0.2369
17779SOL    HW155491   2.880   2.141   1.581 -3.7396  1.1657  0.4905
17779SOL    HW255492   2.870   2.290   1.553  0.3798  1.0586 -2.2712
17780SOL     OW55493   7.418   2.548   2.199 -0.9509 -0.5914 -0.1024
17780SOL    HW155494   7.344   2.488   2.183 -0.3148 -1.4741  0.1689
17780SOL    HW255495   7.495   2.497   2.175 -0.4508  0.4733 -0.7942
17781SOL     OW55496   5.959   3.059   5.843 -0.0616 -0.2196 -0.3772
17781SOL    HW155497   5.965   3.149   5.811 -0.4010 -0.7640 -2.0760
17781SOL    HW255498   5.981   3.005   5.767  1.2010 -1.5775  0.8791
17782SOL     OW55499   9.505   3.665   8.227  0.3649 -0.1384  0.0911
17782SOL    HW155500   9.469   3.599   8.285 -0.1314  0.5291  0.5559
17782SOL    HW255501   9.527   3.617   8.147 -0.8645 -0.6938  0.0646
17783SOL     OW55502   1.479   8.350   6.034 -0.1811 -0.4692 -0.3439
17783SOL    HW155503   1.392   8.324   6.005 -0.4670  0.8575 -0.7267
17783SOL    HW255504   1.496   8.433   5.989  0.3669  0.4133  1.4034
17784SOL     OW55505   0.510   1.584   5.777 -0.5153 -0.3162  0.0630
17784SOL    HW155506   0.502   1.637   5.857 -3.0317  0.7513 -0.8056
17784SOL    HW255507   0.563   1.638   5.718 -0.7439  0.0022  0.1469
17785SOL     OW55508   5.548   8.398   4.851  0.4093 -0.7883 -0.1753
17785SOL    HW155509   5.454   8.417   4.847  0.2048 -1.9498 -2.5418
17785SOL    HW255510   5.563   8.370   4.942 -1.4200 -0.1921  0.3609
17786SOL     OW55511   3.059   9.179   9.158 -0.5182  0.2652  0.0505
17786SOL    HW155512   3.026   9.160   9.070 -1.0507 -0.5400  0.4094
17786SOL    HW255513   3.020   9.263   9.180 -0.5011  0.4028 -0.4246
17787SOL     OW55514   4.647   8.562   5.483 -0.0941 -0.2187 -0.0622
17787SOL    HW155515   4.656   8.516   5.566  1.1617 -0.3673 -0.2556
17787SOL    HW255516   4.602   8.643   5.504  0.5585 -0.0751  0.8447
17788SOL     OW55517   8.945   1.088   1.722 -0.1810 -0.3857 -0.4139
17788SOL    HW155518   9.024   1.141   1.721 -0.4881  0.2434  2.4332
17788SOL    HW255519   8.884   1.134   1.664  0.7594  0.3579 -0.8303
17789SOL     OW55520   6.342   8.347   3.210  0.4375 -1.0854  0.2624
17789SOL    HW155521   6.350   8.301   3.126  1.1729 -0.4457 -0.0301
17789SOL    HW255522   6.291   8.424   3.189 -1.4239 -2.0889  0.8982
17790SOL     OW55523   0.061   7.890   5.837 -0.2716  0.1814  0.5589
17790SOL    HW155524   0.022   7.805   5.814  0.3477 -0.7032  2.5273
17790SOL    HW255525   0.022   7.952   5.775 -2.0255 -1.2497  0.1292
17791SOL     OW55526   9.192   1.923   7.465 -0.0364  0.0334 -0.0168
17791SOL    HW155527   9.151   1.990   7.521 -0.4766  0.3672 -0.7275
17791SOL    HW255528   9.239   1.973   7.399  1.4586 -0.3459  0.7144
17792SOL     OW55529   1.127   1.857   2.827 -0.1012 -0.0496 -0.0723
17792SOL    HW155530   1.215   1.821   2.822  0.0794  0.1803  1.1265
17792SOL    HW255531   1.139   1.952   2.818 -0.1346  0.0431  0.7300
17793SOL     OW55532   8.096   1.419   2.312 -0.5165 -0.0378 -0.1393
17793SOL    HW155533   8.006   1.388   2.325 -0.1542 -0.8130  0.6651
17793SOL    HW255534   8.093   1.511   2.339 -0.5497 -0.7178  2.5263
17794SOL     OW55535   0.609   3.123   2.577 -0.0487 -0.8244 -0.1812
17794SOL    HW155536   0.571   3.187   2.637  0.5520  0.5610 -1.1943
17794SOL    HW255537   0.614   3.042   2.627 -0.8221 -0.0748  1.1689
17795SOL     OW55538   4.007   1.581   0.878 -0.3073  0.1567 -0.2149
17795SOL    HW155539   4.030   1.669   0.910  0.7198  0.2065 -1.0141
17795SOL    HW255540   4.047   1.577   0.791  0.9698 -1.6533  0.4004
17796SOL     OW55541   1.151   4.797   7.169  0.2819  0.2940 -0.2801
17796SOL    HW155542   1.185   4.844   7.246 -1.0398  0.0526  0.4844
17796SOL    HW255543   1.084   4.855   7.134  0.8079  0.3562 -1.2173
17797SOL     OW55544   7.882   3.631   4.233  0.2157 -0.5062  0.0900
17797SOL    HW155545   7.857   3.622   4.141 -1.0815 -0.1032  0.3815
17797SOL    HW255546   7.978   3.625   4.233  0.3734  1.3713 -1.5079
17798SOL     OW55547   6.469   0.796   0.141 -0.3872 -0.6259 -0.2161
17798SOL    HW155548   6.531   0.742   0.094 -1.2069 -0.7241 -1.2148
17798SOL    HW255549   6.463   0.756   0.228  0.1924 -1.1933 -0.4315
17799SOL     OW55550   0.666   2.413   3.562  0.7247  0.1684 -0.6522
17799SOL    HW155551   0.684   2.505   3.544 -0.9777  0.3397 -1.6932
17799SOL    HW255552   0.599   2.388   3.498  0.5534 -1.5715  0.1382
17800SOL     OW55553   3.324   7.516   7.435 -0.0680  0.0252 -0.1915
17800SOL    HW155554   3.267   7.592   7.445 -0.2828 -0.1588 -0.0187
17800SOL    HW255555   3.268   7.441   7.455  0.7744 -0.0416  2.2455
17801SOL     OW55556   4.161   6.640   6.561 -0.0926 -0.0713 -0.6843
17801SOL    HW155557   4.082   6.679   6.522  0.4782  1.1888 -0.6155
17801SOL    HW255558   4.224   6.637   6.490  0.4571  0.8258 -0.2487
17802SOL     OW55559   7.448   0.801   5.109 -0.7861  0.1120  0.7415
17802SOL    HW155560   7.444   0.880   5.163  1.2657  0.6790  0.1575
17802SOL    HW255561   7.411   0.827   5.025 -2.2398 -0.2402  1.2424
17803SOL     OW55562   5.364   4.956   5.270  0.1992 -0.5852 -0.1853
17803SOL    HW155563   5.336   4.876   5.225  1.2518 -0.7038 -0.6720
17803SOL    HW255564   5.455   4.939   5.294 -0.4239 -0.6514  2.3416
17804SOL     OW55565   9.621   4.956   4.416  0.3562 -0.2311 -0.5162
17804SOL    HW155566   9.599   4.905   4.338 -1.8108  1.6428 -1.2247
17804SOL    HW255567   9.540   5.001   4.439  2.0176  2.5279  0.3369
17805SOL     OW55568   1.947   0.104   7.055 -0.3800  0.3815  0.3645
17805SOL    HW155569   1.949   0.092   6.960 -1.6081  0.9832  0.2400
17805SOL    HW255570   2.029   0.066   7.085  0.7052  1.4522 -1.0760
17806SOL     OW55571   7.885   6.803   7.116 -0.0940  0.2050 -0.0329
17806SOL    HW155572   7.899   6.846   7.200  0.3238  0.7773 -0.3860
17806SOL    HW255573   7.885   6.709   7.137  1.8580  0.2397  0.3890
17807SOL     OW55574   6.464   4.318   6.400 -0.1830  0.5594 -0.3840
17807SOL    HW155575   6.496   4.278   6.320  2.2657  0.6670  0.4572
17807SOL    HW255576   6.483   4.411   6.390 -0.2110  0.6257  0.1478
17808SOL     OW55577   2.177   7.575   0.288 -0.8388  0.2183 -0.6121
17808SOL    HW155578   2.264   7.541   0.307 -1.0019  0.1916  0.1034
17808SOL    HW255579   2.169   7.569   0.193 -0.3979 -0.6010 -0.6037
17809SOL     OW55580   6.765   2.096   0.219  0.0985  0.2920  0.3716
17809SOL    HW155581   6.714   2.141   0.287  0.1683 -0.5343  0.9828
17809SOL    HW255582   6.851   2.137   0.223  0.2320 -0.0484  1.0917
17810SOL     OW55583   4.120   3.112   5.079 -0.4263  0.1843 -0.2385
17810SOL    HW155584   4.199   3.160   5.103  0.5827 -1.4301 -0.2163
17810SOL    HW255585   4.061   3.123   5.153 -0.1230  1.1377 -0.1243
17811SOL     OW55586   1.905   9.320   7.502  0.2069  0.6261 -0.1344
17811SOL    HW155587   1.848   9.332   7.578  0.0249  0.7346 -0.2867
17811SOL    HW255588   1.973   9.387   7.512 -1.5768  2.8354 -1.7110
17812SOL     OW55589   9.538   6.635   2.698  0.2818 -0.1940  0.1117
17812SOL    HW155590   9.607   6.701   2.695  1.6787 -1.4742  1.9442
17812SOL    HW255591   9.567   6.567   2.638  0.7852 -0.8216  1.0260
17813SOL     OW55592   3.729   9.086   3.892 -0.2792 -0.1530  0.1005
17813SOL    HW155593   3.657   9.128   3.844 -0.0512  0.2036  0.0649
17813SOL    HW255594   3.687   9.019   3.946 -0.8773  1.2700  1.4759
17814SOL     OW55595   5.070   1.838   5.798  0.2868  0.2390  0.9279
17814SOL    HW155596   5.013   1.911   5.822 -0.3932  0.1585 -0.3280
17814SOL    HW255597   5.044   1.767   5.857 -1.3368  0.0424  0.0549
17815SOL     OW55598   5.520   8.255   6.581 -0.3289 -0.3982  0.3420
17815SOL    HW155599   5.557   8.238   6.668 -1.6546 -0.5206  0.9047
17815SOL    HW255600   5.431   8.221   6.586 -0.9981  1.1459 -0.5148
17816SOL     OW55601   4.767   7.272   6.120 -0.1619 -0.6022 -0.2346
17816SOL    HW155602   4.733   7.328   6.190 -2.0424 -1.8295 -0.0998
17816SOL    HW255603   4.797   7.193   6.165 -1.9989 -1.6827 -0.7914
17817SOL     OW55604   8.375   1.215   6.398 -0.2129 -0.2758  0.2711
17817SOL    HW155605   8.433   1.263   6.457  0.1377  0.1728 -0.4248
17817SOL    HW255606   8.319   1.164   6.456 -0.6987  1.0775  1.0349
17818SOL     OW55607   1.939   9.594   5.066  0.3375  0.2665 -0.0520
17818SOL    HW155608   1.923   9.569   5.157  1.4484 -1.7214 -0.3318
17818SOL    HW255609   2.029   9.628   5.066  0.5986 -0.3847 -0.4773
17819SOL     OW55610   9.263   1.663   7.464 -0.4209 -0.1513  0.3246
17819SOL    HW155611   9.248   1.757   7.467 -0.9239 -0.2308  0.3655
17819SOL    HW255612   9.175   1.624   7.468 -0.2719 -0.6039 -0.5719
17820SOL     OW55613   6.847   5.537   2.728 -0.1852 -0.3048  0.0194
17820SOL    HW155614   6.800   5.476   2.784  0.3357 -2.1264 -1.4578
17820SOL    HW255615   6.935   5.541   2.766 -0.1218 -0.7348 -0.0869
17821SOL     OW55616   5.431   0.244   1.708  0.4451 -0.1064 -0.3214
17821SOL    HW155617   5.510   0.296   1.693  0.4002 -0.8023 -3.9216
17821SOL    HW255618   5.448   0.160   1.666 -1.8228 -0.6634 -0.2930
17822SOL     OW55619   1.168   7.903   5.713 -0.3887  0.1163 -0.3662
17822SOL    HW155620   1.178   7.995   5.737  2.0139  0.3495 -1.9347
17822SOL    HW255621   1.182   7.901   5.618 -0.1628 -1.8921 -0.3346
17823SOL     OW55622   1.180   0.544   7.689 -0.0210  0.2816  0.3196
17823SOL    HW155623   1.102   0.600   7.693 -0.7532 -0.7429  0.9218
17823SOL    HW255624   1.214   0.544   7.778  0.2054  0.0952  0.2339
17824SOL     OW55625   8.539   8.387   7.154  0.3243 -0.5108  0.5838
17824SOL    HW155626   8.550   8.381   7.249 -0.9403 -0.3213  0.7515
17824SOL    HW255627   8.454   8.430   7.142  0.4226 -0.6236 -0.6358
17825SOL     OW55628   6.273   1.552   1.489 -0.0827  0.0890 -0.4957
17825SOL    HW155629   6.299   1.636   1.526 -1.3315 -0.3019  1.3805
17825SOL    HW255630   6.285   1.563   1.394  0.6415  2.0518 -0.2204
17826SOL     OW55631   9.516   6.439   1.419 -0.7395 -0.0709  0.1944
17826SOL    HW155632   9.591   6.498   1.427 -0.3514 -0.4444 -0.5751
17826SOL    HW255633   9.529   6.375   1.488 -0.0960 -0.3991 -0.2215
17827SOL     OW55634   6.659   7.627   7.815  0.8167 -0.6079 -0.3423
17827SOL    HW155635   6.727   7.693   7.821 -0.8399  1.0840  2.0375
17827SOL    HW255636   6.587   7.670   7.769  0.4891 -1.5134 -0.7033
17828SOL     OW55637   8.669   9.596   2.235  0.0604  0.8265 -0.1630
17828SOL    HW155638   8.630   9.652   2.302 -0.4271 -1.7380  1.8430
17828SOL    HW255639   8.613   9.519   2.233  1.1100  0.0617 -2.3000
17829SOL     OW55640   7.075   8.720   6.447  0.4025 -0.1568 -0.3506
17829SOL    HW155641   7.056   8.626   6.445  1.1190 -0.3439  0.8251
17829SOL    HW255642   7.088   8.744   6.355  3.1757 -1.8551 -0.5044
17830SOL     OW55643   8.150   8.623   2.443 -0.0784  0.1169 -0.1028
17830SOL    HW155644   8.233   8.626   2.396 -0.2287 -0.8423 -0.4402
17830SOL    HW255645   8.134   8.530   2.458 -1.0196  0.3018  0.0782
17831SOL     OW55646   2.270   1.177   3.918 -0.0215 -0.4112 -0.1848
17831SOL    HW155647   2.234   1.106   3.971  0.7737 -0.4235  0.3699
17831SOL    HW255648   2.273   1.142   3.829  0.4968 -1.1395  0.1078
17832SOL     OW55649   8.809   2.272   3.177  0.4754  0.1982 -0.3337
17832SOL    HW155650   8.873   2.205   3.152  0.0641 -0.2784 -0.1325
17832SOL    HW255651   8.861   2.351   3.189  1.0834 -0.2637  0.1739
17833SOL     OW55652   6.514   4.197   6.159  0.4887  0.1770 -0.8488
17833SOL    HW155653   6.510   4.101   6.158  0.9827  0.1578 -1.3863
17833SOL    HW255654   6.445   4.225   6.100 -0.1337  0.1748 -0.1319
17834SOL     OW55655   7.354   3.415   0.750 -0.3816 -0.6313  0.2068
17834SOL    HW155656   7.431   3.399   0.696 -0.7267 -0.8739 -0.2210
17834SOL    HW255657   7.340   3.332   0.796 -0.8353 -0.8365 -0.2952
17835SOL     OW55658   4.009   7.339   9.028  0.5784  0.2953  0.5440
17835SOL    HW155659   4.089   7.380   8.995  1.9010 -2.3594  0.1168
17835SOL    HW255660   3.966   7.303   8.950 -0.9906  1.5381  0.7929
17836SOL     OW55661   4.881   4.025   9.340 -0.2025  0.1521  0.4495
17836SOL    HW155662   4.792   4.046   9.313 -0.1450  0.4610  0.4903
17836SOL    HW255663   4.937   4.081   9.286 -0.0564  0.2898  0.7388
17837SOL     OW55664   3.815   5.903   0.233 -0.2398 -0.4059  0.1873
17837SOL    HW155665   3.899   5.915   0.278 -0.1030  2.3614 -0.6135
17837SOL    HW255666   3.768   5.985   0.249 -2.6196 -1.7073  0.1868
17838SOL     OW55667   9.325   5.742   7.608 -0.1374 -0.6415 -0.2489
17838SOL    HW155668   9.380   5.715   7.682  0.2553  1.6326  0.3682
17838SOL    HW255669   9.386   5.746   7.534 -0.3231 -1.9301 -0.4936
17839SOL     OW55670   7.044   4.732   3.349 -0.1924  0.0213  0.4648
17839SOL    HW155671   7.009   4.702   3.433 -0.2098 -2.0599 -0.2401
17839SOL    HW255672   7.084   4.654   3.310  1.5051  1.3537 -0.6423
17840SOL     OW55673   4.616   3.028   9.220  0.3681 -0.1739  0.5315
17840SOL    HW155674   4.530   3.069   9.226  0.0390 -0.8471  0.5077
17840SOL    HW255675   4.653   3.061   9.138 -0.1545 -0.4218  0.1934
17841SOL     OW55676   8.600   3.101   5.562  0.2871 -0.6599 -0.0442
17841SOL    HW155677   8.534   3.116   5.494  1.0563  0.5089 -0.5638
17841SOL    HW255678   8.662   3.041   5.522  0.8453  0.1820 -0.4644
17842SOL     OW55679   4.861   8.721   4.376 -0.0038 -0.0982 -0.1170
17842SOL    HW155680   4.787   8.782   4.372  0.7469  0.7925 -1.3789
17842SOL    HW255681   4.822   8.634   4.370 -0.9352  0.3754 -1.6770
17843SOL     OW55682   5.672   2.680   4.722 -0.1252 -0.5923 -0.1766
17843SOL    HW155683   5.716   2.662   4.805  0.6579 -2.6115 -0.9556
17843SOL    HW255684   5.649   2.773   4.726  1.0304 -0.3380  1.7468
17844SOL     OW55685   3.353   1.518   2.108  0.4056 -0.1079  0.0862
17844SOL    HW155686   3.314   1.569   2.036 -0.5646  0.0667  0.7029
17844SOL    HW255687   3.385   1.585   2.169 -2.2938 -0.1065  1.6680
17845SOL     OW55688   4.171   5.601   1.380  0.1685 -0.2859 -0.7998
17845SOL    HW155689   4.209   5.689   1.389 -0.8993 -0.0255  2.1893
17845SOL    HW255690   4.103   5.612   1.314 -0.7142  1.4722  0.3249
17846SOL     OW55691   5.392   7.542   4.488  0.1881 -0.0666  0.1696
17846SOL    HW155692   5.386   7.635   4.506  1.2104 -0.0707  0.5886
17846SOL    HW255693   5.310   7.521   4.443  1.3791  1.7435 -3.1803
17847SOL     OW55694   5.256   3.266   2.316 -0.1596 -0.1851  0.0561
17847SOL    HW155695   5.303   3.309   2.245 -0.1491  0.4735  0.4533
17847SOL    HW255696   5.199   3.203   2.272 -1.0260  1.0346 -0.6419
17848SOL     OW55697   1.588   4.796   8.062  0.3411 -0.3355 -0.0801
17848SOL    HW155698   1.515   4.844   8.024 -0.4926 -0.1222  1.6748
17848SOL    HW255699   1.666   4.836   8.024 -0.4153 -0.0312 -1.3714
17849SOL     OW55700   7.087   0.850   1.586  0.3490  0.5198 -0.2241
17849SOL    HW155701   7.036   0.867   1.507  0.8545 -0.1952 -0.7217
17849SOL    HW255702   7.160   0.795   1.556 -0.2712 -1.0440  0.9982
17850SOL     OW55703   8.085   6.395   8.943 -0.0746 -0.3929  0.3828
17850SOL    HW155704   8.137   6.316   8.955 -0.1130 -0.5118 -0.1813
17850SOL    HW255705   7.999   6.363   8.916  0.4403 -0.1293 -1.7323
17851SOL     OW55706   7.977   4.008   2.086  1.0448  0.0060 -0.3773
17851SOL    HW155707   7.992   4.006   2.180  1.2747 -1.2411 -0.4191
17851SOL    HW255708   7.887   4.039   2.076  0.6499 -0.8967  0.3075
17852SOL     OW55709   8.328   0.877   5.392 -0.5315 -0.4437  0.3615
17852SOL    HW155710   8.408   0.840   5.431 -0.2630  0.3266  0.5682
17852SOL    HW255711   8.361   0.932   5.321 -0.6659  1.7716  1.9123
17853SOL     OW55712   1.699   2.874   0.499 -0.3429  0.1151 -0.5271
17853SOL    HW155713   1.697   2.780   0.482  0.7964  0.2455 -1.4929
17853SOL    HW255714   1.745   2.882   0.582 -0.4379 -0.1706 -0.4450
17854SOL     OW55715   8.806   5.926   8.486  0.3215 -0.0848 -0.4536
17854SOL    HW155716   8.891   5.940   8.529  0.5729  0.0624 -0.9926
17854SOL    HW255717   8.750   5.996   8.520  0.8938  0.8373 -1.3341
17855SOL     OW55718   4.489   0.139   2.805 -0.2533 -0.1760  0.1644
17855SOL    HW155719   4.541   0.209   2.846 -2.4191  0.5174  1.9052
17855SOL    HW255720   4.410   0.183   2.773 -1.3087 -1.7020  0.5803
17856SOL     OW55721   3.810   7.331   0.560  0.2193  0.1473  0.2827
17856SOL    HW155722   3.740   7.326   0.496  0.0038 -0.5188  0.5650
17856SOL    HW255723   3.887   7.360   0.510 -0.3250  1.2017  0.0398
17857SOL     OW55724   5.821   0.711   4.486 -0.2196  0.2367  1.0744
17857SOL    HW155725   5.852   0.730   4.574  1.0063  2.5219  0.2313
17857SOL    HW255726   5.736   0.754   4.480  0.7368  2.1937  0.4804
17858SOL     OW55727   8.679   3.002   2.731  0.4890 -0.4888  0.4080
17858SOL    HW155728   8.586   2.979   2.742  0.2951 -0.3563 -0.8847
17858SOL    HW255729   8.715   2.932   2.678  0.6011  0.5788 -0.9730
17859SOL     OW55730   1.622   7.148   3.118  0.2704  0.3460 -0.4714
17859SOL    HW155731   1.547   7.088   3.114 -0.2203  0.7898  1.1577
17859SOL    HW255732   1.694   7.094   3.153 -0.0344  0.5534  0.5103
17860SOL     OW55733   9.374   5.518   9.415  0.1983  0.8268  0.6235
17860SOL    HW155734   9.456   5.562   9.442  0.6895  0.2623  0.0749
17860SOL    HW255735   9.383   5.429   9.448 -1.2519  1.3518  2.6495
17861SOL     OW55736   3.912   6.566   3.985 -0.1913 -0.6997  0.1805
17861SOL    HW155737   3.997   6.531   4.013 -0.4574 -0.2835  1.5981
17861SOL    HW255738   3.849   6.526   4.045 -1.0325 -1.1507 -0.9759
17862SOL     OW55739   7.885   5.404   6.626  0.2281  0.0269 -0.0402
17862SOL    HW155740   7.818   5.367   6.568 -0.1697  0.7071 -0.0133
17862SOL    HW255741   7.954   5.433   6.566  1.0348 -1.6708 -0.0166
17863SOL     OW55742   4.357   1.957   2.288  0.0751 -0.5690 -0.8037
17863SOL    HW155743   4.284   1.962   2.350  0.0530 -0.4575 -0.8377
17863SOL    HW255744   4.355   1.867   2.255  0.4562 -0.8083 -0.1956
17864SOL     OW55745   2.420   0.172   0.538  0.0433  0.1222  0.2807
17864SOL    HW155746   2.372   0.165   0.456 -0.1357 -3.8020  0.5075
17864SOL    HW255747   2.353   0.174   0.606  0.2105  0.8219  0.4355
17865SOL     OW55748   1.228   5.847   2.748 -0.1258 -0.2996  0.2885
17865SOL    HW155749   1.212   5.938   2.774 -0.4569  0.0127 -0.9486
17865SOL    HW255750   1.144   5.803   2.764 -1.4678  0.6422 -3.2442
17866SOL     OW55751   1.081   1.760   1.779  0.0287  0.5348  0.9053
17866SOL    HW155752   1.070   1.668   1.756  0.1383  0.1166  2.3854
17866SOL    HW255753   1.152   1.759   1.844  0.9866  1.8336 -0.0645
17867SOL     OW55754   4.651   6.654   1.043 -0.0039 -0.8414  0.0367
17867SOL    HW155755   4.695   6.735   1.020  1.1844 -1.6771 -0.7767
17867SOL    HW255756   4.693   6.626   1.125  0.4043 -1.2071 -0.2911
17868SOL     OW55757   1.532   9.492   8.247  0.0139  0.6414 -0.0674
17868SOL    HW155758   1.553   9.404   8.215  0.8937  0.4222  1.0429
17868SOL    HW255759   1.436   9.495   8.248 -0.0285 -0.0583 -0.7516
17869SOL     OW55760   6.447   3.996   4.904  0.3837 -0.4618 -0.1127
17869SOL    HW155761   6.477   4.068   4.849 -0.2179 -1.0800 -1.2829
17869SOL    HW255762   6.518   3.932   4.901  1.5285  0.6043  2.0408
17870SOL     OW55763   8.821   9.557   6.954  0.3939 -0.5769  0.6341
17870SOL    HW155764   8.827   9.634   6.896  0.5044 -1.5148 -0.6343
17870SOL    HW255765   8.859   9.486   6.903 -1.1225 -1.8235  1.1723
17871SOL     OW55766   5.836   8.351   9.530  0.2572 -0.2301 -0.0563
17871SOL    HW155767   5.786   8.419   9.574  1.1613  0.1669  0.3785
17871SOL    HW255768   5.825   8.274   9.586 -0.8351 -0.4935 -0.5937
17872SOL     OW55769   3.961   6.038   0.692 -0.2067 -0.4723  0.4379
17872SOL    HW155770   3.877   5.992   0.693 -0.6534  0.1030 -2.4461
17872SOL    HW255771   3.941   6.125   0.725 -0.4415 -0.7501  1.0421
17873SOL     OW55772   7.773   0.750   7.953 -0.3048  0.6924 -0.1096
17873SOL    HW155773   7.853   0.769   8.001  0.5048  0.0068 -1.1473
17873SOL    HW255774   7.756   0.657   7.971 -0.8121  0.8081  0.0230
17874SOL     OW55775   2.761   0.854   2.089 -0.1018  0.4564 -0.0049
17874SOL    HW155776   2.811   0.907   2.150  0.1796  1.6426 -1.2097
17874SOL    HW255777   2.822   0.786   2.061 -0.1964 -0.0201  0.9278
17875SOL     OW55778   2.451   2.636   8.054 -0.1901 -0.1340  0.3936
17875SOL    HW155779   2.455   2.543   8.073  0.1709 -0.1448  0.2717
17875SOL    HW255780   2.367   2.665   8.090 -1.8380 -1.1378 -2.3627
17876SOL     OW55781   3.975   6.813   8.064 -0.3171 -0.3149  0.0347
17876SOL    HW155782   3.936   6.796   8.150  0.2491  0.1234  0.3881
17876SOL    HW255783   3.985   6.727   8.024 -0.9184 -0.4920  0.2588
17877SOL     OW55784   3.464   4.681   1.924  0.3009  0.2270 -0.0330
17877SOL    HW155785   3.507   4.605   1.883  1.3548 -0.6359  2.5037
17877SOL    HW255786   3.371   4.668   1.906  0.6883 -0.0335 -2.1718
17878SOL     OW55787   9.205   0.316   9.315  0.1111 -0.3814  0.6211
17878SOL    HW155788   9.119   0.356   9.299  0.1749  0.5175  2.3807
17878SOL    HW255789   9.187   0.221   9.316 -0.4999 -0.3149 -0.8960
17879SOL     OW55790   1.774   0.094   1.127  0.0803 -0.4125 -0.2894
17879SOL    HW155791   1.722   0.101   1.207  0.8981 -2.2159  0.4378
17879SOL    HW255792   1.735   0.022   1.078  0.7822 -0.6185 -0.5681
17880SOL     OW55793   5.117   1.479   8.684  0.6354 -0.7337 -0.2229
17880SOL    HW155794   5.146   1.513   8.769 -0.9033 -1.0068  0.4424
17880SOL    HW255795   5.196   1.439   8.647  0.9798 -2.1829  1.8738
17881SOL     OW55796   6.070   8.170   8.148  0.4128  0.0460 -0.1893
17881SOL    HW155797   6.124   8.229   8.201  0.5555 -0.3889  0.1548
17881SOL    HW255798   6.043   8.223   8.073 -1.3706  1.2910  1.2418
17882SOL     OW55799   2.570   7.979   5.497 -0.2612 -0.1918  0.2116
17882SOL    HW155800   2.613   7.894   5.495  1.7411  0.7295  1.1128
17882SOL    HW255801   2.642   8.042   5.497 -1.6815  1.5485 -1.0224
17883SOL     OW55802   1.718   1.930   6.680  0.3109  0.3663 -0.0704
17883SOL    HW155803   1.784   1.975   6.734 -0.1360  1.1114 -0.1384
17883SOL    HW255804   1.740   1.953   6.590 -0.7575  1.6163 -0.0285
17884SOL     OW55805   6.807   4.742   4.271 -0.0588 -0.5884  0.4612
17884SOL    HW155806   6.858   4.709   4.197 -0.7128  2.9594 -1.8521
17884SOL    HW255807   6.730   4.686   4.274  0.4543 -1.4352 -0.9352
17885SOL     OW55808   5.214   3.011   5.969 -0.3869  0.5005  0.1950
17885SOL    HW155809   5.159   3.088   5.981 -0.9370  0.3180 -0.9577
17885SOL    HW255810   5.152   2.939   5.959  0.1202 -0.0784  1.1106
17886SOL     OW55811   4.968   6.073   2.318  0.2126  0.1309 -0.1066
17886SOL    HW155812   4.882   6.061   2.278 -0.7923 -0.8221  2.1856
17886SOL    HW255813   4.964   6.160   2.359  1.0866  0.9232 -1.6162
17887SOL     OW55814   4.598   1.992   7.536 -0.3702 -0.2505 -0.2119
17887SOL    HW155815   4.530   1.991   7.469 -1.6151 -1.8056  0.9736
17887SOL    HW255816   4.574   2.064   7.594 -0.8831 -0.6479  0.0738
17888SOL     OW55817   8.957   1.978   6.709 -0.0488 -0.0369  0.5404
17888SOL    HW155818   9.009   2.059   6.705 -0.4891  0.2344  0.2992
17888SOL    HW255819   8.934   1.959   6.619  2.0487 -1.7633  0.2714
17889SOL     OW55820   1.221   5.179   4.461  0.1258  0.2738  0.0972
17889SOL    HW155821   1.199   5.270   4.442 -1.2035  0.2353  1.2792
17889SOL    HW255822   1.296   5.184   4.520 -0.7351  0.6855  1.1976
17890SOL     OW55823   5.038   4.422   1.730 -0.3828 -0.1496 -0.3884
17890SOL    HW155824   4.990   4.495   1.769  1.1026  2.1939 -2.6472
17890SOL    HW255825   5.097   4.393   1.799 -0.6650  1.1004  0.4091
17891SOL     OW55826   4.141   0.126   7.837 -0.4993 -0.0718 -0.3082
17891SOL    HW155827   4.073   0.107   7.772  0.3847 -0.7565 -1.0699
17891SOL    HW255828   4.223   0.109   7.791  0.1414 -1.8833  1.3593
17892SOL     OW55829   7.453   1.858   2.690 -0.7571  0.0637  0.4623
17892SOL    HW155830   7.362   1.832   2.677 -0.9062  0.6353  0.3412
17892SOL    HW255831   7.501   1.775   2.691 -0.9673 -0.1393 -1.7871
17893SOL     OW55832   4.152   1.398   3.856  0.2222  0.0859  0.3735
17893SOL    HW155833   4.163   1.422   3.947 -0.4974 -0.8584  0.7296
17893SOL    HW255834   4.063   1.363   3.850  0.8292 -1.4949 -0.2763
17894SOL     OW55835   0.612   2.887   1.356 -0.0518  0.2062 -0.4096
17894SOL    HW155836   0.655   2.964   1.317 -1.2352 -0.2420 -2.8054
17894SOL    HW255837   0.521   2.914   1.366 -0.2929 -0.5835 -0.4369
17895SOL     OW55838   5.993   6.237   5.473 -0.6060  0.1761  0.5871
17895SOL    HW155839   5.908   6.243   5.430  0.1319 -0.1043 -0.9874
17895SOL    HW255840   5.985   6.162   5.533 -1.5261  0.3080  0.6330
17896SOL     OW55841   1.929   2.808   2.482  0.2151 -0.1212 -0.3809
17896SOL    HW155842   1.870   2.864   2.532  0.1549  0.4504 -1.0790
17896SOL    HW255843   1.974   2.755   2.548  0.5203  0.9806  0.3274
17897SOL     OW55844   6.847   0.123   2.740  0.0596  0.8266 -0.5848
17897SOL    HW155845   6.915   0.064   2.770 -1.6944 -1.5570 -1.0011
17897SOL    HW255846   6.815   0.166   2.819 -0.3012 -0.7027  0.1367
17898SOL     OW55847   5.818   0.776   0.707  0.5532  0.3819 -0.0469
17898SOL    HW155848   5.900   0.734   0.735  0.1111  0.2636  1.1240
17898SOL    HW255849   5.787   0.823   0.785 -0.7246  0.0469 -0.3290
17899SOL     OW55850   8.378   2.092   3.818 -0.4871 -0.3362  0.0596
17899SOL    HW155851   8.423   2.011   3.843 -2.0913 -0.9268  1.1822
17899SOL    HW255852   8.285   2.071   3.823 -0.9519  1.6049  0.4687
17900SOL     OW55853   0.691   0.644   8.868  0.4721 -0.2680  0.6359
17900SOL    HW155854   0.622   0.694   8.824  1.9918  0.4301 -1.0562
17900SOL    HW255855   0.643   0.576   8.916 -1.4310  0.6801  0.2089
17901SOL     OW55856   2.041   8.659   6.381 -0.0216  0.2408  0.0215
17901SOL    HW155857   1.969   8.619   6.333 -0.4729  0.2824  0.6444
17901SOL    HW255858   2.023   8.753   6.378  0.5127  0.3312 -0.6089
17902SOL     OW55859   0.932   8.919   7.254 -0.3515 -0.3260  0.2672
17902SOL    HW155860   0.966   8.836   7.286 -0.9269 -0.4733  0.5033
17902SOL    HW255861   0.887   8.898   7.173 -2.8080 -0.7268  1.6286
17903SOL     OW55862   8.238   5.418   2.534 -0.1268  0.8291  0.5212
17903SOL    HW155863   8.262   5.335   2.576  0.8536 -0.2046 -1.9306
17903SOL    HW255864   8.146   5.407   2.511 -0.3824  0.9971  1.4155
17904SOL     OW55865   5.524   9.125   8.749 -0.4707  0.3088  0.5930
17904SOL    HW155866   5.590   9.076   8.700 -0.6417 -0.3932  1.0515
17904SOL    HW255867   5.508   9.203   8.696 -0.1791 -0.1228 -0.1444
17905SOL     OW55868   2.374   9.364   0.870  0.2153 -0.9748 -0.0505
17905SOL    HW155869   2.349   9.453   0.895  1.5107 -0.9491  1.3040
17905SOL    HW255870   2.371   9.365   0.774 -0.2482  0.3854 -0.0517
17906SOL     OW55871   7.523   8.644   0.014  0.5442 -0.6476  0.3794
17906SOL    HW155872   7.442   8.594   0.003  0.5798 -0.5210 -0.5372
17906SOL    HW255873   7.575   8.593   0.075 -0.0620 -0.9346  0.6670
17907SOL     OW55874   4.412   6.094   7.890 -0.8920 -0.1027 -0.1691
17907SOL    HW155875   4.393   6.012   7.845 -0.1252 -1.3264  1.6286
17907SOL    HW255876   4.335   6.110   7.944 -1.7017  1.2315 -1.6198
17908SOL     OW55877   1.695   8.896   5.657  0.2318  0.4045  0.2599
17908SOL    HW155878   1.694   8.839   5.734  0.9744  0.7396  0.5289
17908SOL    HW255879   1.777   8.944   5.665  0.0176  0.8846 -0.4224
17909SOL     OW55880   8.349   5.113   1.933  0.1458  0.2798 -0.0887
17909SOL    HW155881   8.331   5.040   1.874 -4.0764  1.3001 -0.3254
17909SOL    HW255882   8.437   5.141   1.908  0.8505 -2.9254 -1.8593
17910SOL     OW55883   8.411   6.710   8.569 -0.1635 -0.3354 -0.0120
17910SOL    HW155884   8.321   6.742   8.559 -0.5349 -1.3101  0.0526
17910SOL    HW255885   8.458   6.782   8.611 -0.3144  1.1044 -2.1435
17911SOL     OW55886   0.671   6.885   8.582 -0.5021 -0.1392 -0.2178
17911SOL    HW155887   0.670   6.789   8.587 -1.5346 -0.0868  1.3375
17911SOL    HW255888   0.716   6.912   8.662  0.3522  0.6846 -0.9551
17912SOL     OW55889   7.687   4.126   5.964  0.3995 -0.5278  0.0694
17912SOL    HW155890   7.653   4.176   5.890 -1.2298 -2.9600 -0.9825
17912SOL    HW255891   7.610   4.109   6.019  1.2042 -0.5283  1.2511
17913SOL     OW55892   6.189   7.067   8.200 -0.3261  0.1364 -0.3485
17913SOL    HW155893   6.236   7.094   8.279 -0.4357 -1.2922  0.2254
17913SOL    HW255894   6.236   6.991   8.168 -1.4899 -0.5525 -0.4790
17914SOL     OW55895   5.758   6.623   7.854 -0.0169 -0.1805 -0.4584
17914SOL    HW155896   5.820   6.652   7.787  1.0272  0.1093  0.6029
17914SOL    HW255897   5.685   6.586   7.805 -0.1171  1.6694 -1.8005
17915SOL     OW55898   8.621   0.058   6.702  0.0725  0.1061 -0.2241
17915SOL    HW155899   8.628  -0.004   6.630 -2.0203 -2.2752  1.4195
17915SOL    HW255900   8.552   0.119   6.675  0.3108  0.1369 -0.7787
17916SOL     OW55901   8.657   1.338   7.758 -0.5791 -0.2935 -0.6563
17916SOL    HW155902   8.584   1.295   7.804  0.7625 -0.9632  0.9910
17916SOL    HW255903   8.707   1.265   7.721 -0.2698  0.0958 -1.0028
17917SOL     OW55904   0.625   4.378   8.060  0.1900  0.2380  0.5567
17917SOL    HW155905   0.536   4.347   8.078 -0.3077  2.3143  2.0767
17917SOL    HW255906   0.681   4.305   8.086 -1.0157 -0.5990  0.9118
17918SOL     OW55907   8.048   0.350   5.363 -0.1889  0.2939 -0.1306
17918SOL    HW155908   8.064   0.391   5.279 -1.6516  1.9468  0.3380
17918SOL    HW255909   7.986   0.279   5.344 -0.6388  0.7636 -0.4259
17919SOL     OW55910   7.475   3.269   0.192  0.1013 -0.3513 -0.3364
17919SOL    HW155911   7.412   3.300   0.127 -0.2508 -1.8543 -0.7485
17919SOL    HW255912   7.423   3.218   0.253  0.8485 -1.2085 -0.4044
17920SOL     OW55913   9.545   5.568   4.178 -0.1169  0.3646 -0.1457
17920SOL    HW155914   9.542   5.473   4.168 -1.9256  0.2434  1.1200
17920SOL    HW255915   9.637   5.587   4.198  0.3529 -1.0400 -0.8215
17921SOL     OW55916   3.091   6.861   5.714 -0.2644  0.7446  0.1017
17921SOL    HW155917   3.159   6.837   5.651 -0.6352  2.6216 -1.1123
17921SOL    HW255918   3.135   6.921   5.774 -0.4108  0.5388  0.4179
17922SOL     OW55919   0.137   6.528   4.744 -0.2225  0.0632 -0.9235
17922SOL    HW155920   0.073   6.477   4.694  0.9736 -0.7030 -1.7012
17922SOL    HW255921   0.198   6.562   4.679 -1.2198  2.9363 -0.4937
17923SOL     OW55922   7.391   2.656   2.491  0.4183  0.3246 -0.6260
17923SOL    HW155923   7.399   2.600   2.414 -0.7165 -1.9647  0.8097
17923SOL    HW255924   7.448   2.730   2.473  2.6965 -1.6994 -2.2948
17924SOL     OW55925   6.717   3.220   9.217 -0.1916 -0.2863 -0.2186
17924SOL    HW155926   6.692   3.312   9.232 -0.7604 -0.2984 -1.0249
17924SOL    HW255927   6.782   3.202   9.285  0.8742  1.0954 -0.8067
17925SOL     OW55928   2.425   5.950   8.061 -0.4033  0.7563  0.8586
17925SOL    HW155929   2.462   6.032   8.094 -0.0241  1.4646 -1.2082
17925SOL    HW255930   2.500   5.900   8.030 -0.8771  0.9835 -0.7431
17926SOL     OW55931   8.956   4.490   1.522  0.5146 -0.1023 -0.2666
17926SOL    HW155932   9.009   4.567   1.539  3.1725 -1.6764 -0.7815
17926SOL    HW255933   8.907   4.476   1.603  0.1421  1.9354 -0.0869
17927SOL     OW55934   4.993   8.129   3.381  0.4445  0.5335  0.3709
17927SOL    HW155935   4.976   8.061   3.316  2.0120  0.3488  0.1392
17927SOL    HW255936   4.948   8.098   3.460 -0.5600  0.2359 -0.2935
17928SOL     OW55937   5.483   8.793   8.611 -0.1413  0.1222 -0.0014
17928SOL    HW155938   5.552   8.859   8.609 -0.3316  0.3736  1.1336
17928SOL    HW255939   5.403   8.841   8.587 -0.1304  0.1133 -0.0537
17929SOL     OW55940   5.200   8.520   9.315  0.5368  0.1041  0.0510
17929SOL    HW155941   5.263   8.579   9.273  1.2480  0.1491  1.1460
17929SOL    HW255942   5.165   8.571   9.388  0.4042 -0.4771  0.3993
17930SOL     OW55943   3.923   1.280   7.264  0.7081 -0.1077 -0.4515
17930SOL    HW155944   3.973   1.199   7.256 -0.7798 -1.0623 -0.5240
17930SOL    HW255945   3.854   1.259   7.327 -0.2690  0.8060 -1.1774
17931SOL     OW55946   7.712   9.123   8.183 -0.0932 -0.7385  0.3787
17931SOL    HW155947   7.790   9.157   8.141 -0.2633 -0.1086  0.5651
17931SOL    HW255948   7.652   9.198   8.188 -0.4886 -1.0718  0.7505
17932SOL     OW55949   5.103   1.108   5.865 -0.2695  0.3384 -0.1048
17932SOL    HW155950   5.184   1.130   5.819  0.6170 -0.4482  1.0264
17932SOL    HW255951   5.124   1.030   5.916 -1.8072  0.0020  0.0734
17933SOL     OW55952   3.059   7.617   6.408 -0.0262  0.0586  0.5333
17933SOL    HW155953   2.978   7.570   6.389 -0.6468  1.2318  0.1670
17933SOL    HW255954   3.076   7.601   6.501 -1.1331  0.4580  0.8169
17934SOL     OW55955   3.378   8.692   2.039  0.0225 -0.5306  0.0535
17934SOL    HW155956   3.359   8.728   2.125  1.6978  1.4441 -0.3248
17934SOL    HW255957   3.331   8.750   1.978  1.4032  0.0820 -0.4823
17935SOL     OW55958   1.152   7.393   2.447  0.2395 -0.1106 -0.1868
17935SOL    HW155959   1.179   7.306   2.416 -0.9386 -0.3481 -0.6028
17935SOL    HW255960   1.234   7.440   2.460  0.9652 -1.6453  1.1223
17936SOL     OW55961   3.489   0.937   0.841  0.2147  0.3478  0.2820
17936SOL    HW155962   3.512   1.024   0.875 -0.9362  0.4026  0.9879
17936SOL    HW255963   3.482   0.950   0.747 -1.4744  1.4380  0.5021
17937SOL     OW55964   8.445   2.552   1.212 -0.1116 -0.0997  0.3338
17937SOL    HW155965   8.514   2.491   1.187  0.8997  1.5170 -1.1127
17937SOL    HW255966   8.365   2.514   1.175  0.0308 -1.7433  1.6076
17938SOL     OW55967   6.158   6.593   0.130 -0.1192 -0.4046  0.0323
17938SOL    HW155968   6.095   6.529   0.163 -0.4765  0.4634  1.0765
17938SOL    HW255969   6.243   6.550   0.140 -0.1124  0.0824  2.8880
17939SOL     OW55970   5.258   9.459   4.308  0.3406  0.1439  0.0402
17939SOL    HW155971   5.347   9.493   4.295  0.2182  0.8616  0.9225
17939SOL    HW255972   5.270   9.388   4.371  0.3754 -0.2385 -0.3977
17940SOL     OW55973   7.031   7.245   0.555  0.5612 -0.6305 -0.4068
17940SOL    HW155974   7.100   7.234   0.621  1.7789  2.0380 -1.1015
17940SOL    HW255975   6.960   7.288   0.602  1.3451  1.0728 -0.6837
17941SOL     OW55976   6.479   3.555   1.546 -0.2936  0.0039 -0.3045
17941SOL    HW155977   6.432   3.594   1.619  1.7333 -2.1475  2.3797
17941SOL    HW255978   6.562   3.603   1.541 -0.6381  0.5104 -1.6350
17942SOL     OW55979   6.502   6.408   7.109 -1.0142 -0.1687 -0.2878
17942SOL    HW155980   6.412   6.439   7.097 -1.6871 -1.5927  0.8158
17942SOL    HW255981   6.522   6.426   7.201 -1.4065 -2.8084  0.3824
17943SOL     OW55982   0.055   0.291   7.654  0.5648 -0.1410 -0.5111
17943SOL    HW155983   0.089   0.285   7.744 -0.1341  1.9306 -0.0533
17943SOL    HW255984   0.020   0.204   7.636  2.9807 -1.3343  0.2523
17944SOL     OW55985   8.463   0.824   1.447  0.0410 -0.0978  0.0916
17944SOL    HW155986   8.472   0.732   1.472  0.7482 -0.0451  0.0639
17944SOL    HW255987   8.535   0.868   1.493  0.2840  0.2853 -0.6384
17945SOL     OW55988   2.443   9.096   0.131 -0.5473  0.1601 -0.5137
17945SOL    HW155989   2.497   9.092   0.053  1.2371 -1.6080  0.7145
17945SOL    HW255990   2.407   9.008   0.140 -0.6902  0.3225  0.6769
17946SOL     OW55991   2.168   5.014   3.394 -0.3828  0.4997 -0.4364
17946SOL    HW155992   2.250   5.026   3.441 -0.1815  0.4627 -0.7713
17946SOL    HW255993   2.151   4.920   3.397 -1.3718  0.7017  1.2117
17947SOL     OW55994   8.520   4.737   4.202 -0.1479 -0.5110  0.1108
17947SOL    HW155995   8.447   4.791   4.234  0.4501  0.6533 -0.4341
17947SOL    HW255996   8.518   4.748   4.107 -0.4457 -2.0381 -0.0824
17948SOL     OW55997   4.834   1.646   3.208  0.0315 -0.0076  0.0102
17948SOL    HW155998   4.837   1.561   3.253 -1.4620 -0.1323 -0.0843
17948SOL    HW255999   4.803   1.625   3.120 -0.4736  0.6543  0.0267
17949SOL     OW56000   5.009   0.983   4.901  0.1850  0.3854  0.1692
17949SOL    HW156001   4.949   1.043   4.856 -1.1988 -1.4714 -0.5673
17949SOL    HW256002   4.967   0.965   4.985  0.0700 -0.3553 -0.0438
17950SOL     OW56003   2.404   6.875   7.342 -0.2759  0.1982  0.1181
17950SOL    HW156004   2.473   6.938   7.362 -0.1806 -0.6479  2.8807
17950SOL    HW256005   2.448   6.806   7.292  0.2378  0.9381 -0.4798
17951SOL     OW56006   0.544   7.120   3.818  0.2443  0.0906 -0.0672
17951SOL    HW156007   0.599   7.056   3.862 -2.1614 -1.1132  1.3899
17951SOL    HW256008   0.472   7.069   3.782  0.0384  1.5951 -1.9127
17952SOL     OW56009   8.308   0.646   2.146  0.3244  0.4859  0.3680
17952SOL    HW156010   8.313   0.665   2.052 -0.1441  0.0974  0.2586
17952SOL    HW256011   8.344   0.558   2.155  2.1422  1.2435  0.8226
17953SOL     OW56012   8.638   5.078   1.009  0.2203 -0.1501 -0.8041
17953SOL    HW156013   8.556   5.076   1.058  1.4210 -0.3165  1.3242
17953SOL    HW256014   8.624   5.019   0.935 -1.1271 -1.2584  0.2833
17954SOL     OW56015   7.947   3.148   3.453  0.5786  0.3320  0.0873
17954SOL    HW156016   7.947   3.112   3.543 -0.0576 -0.4707 -0.2184
17954SOL    HW256017   8.029   3.197   3.447  1.9695 -1.8313  0.2621
17955SOL     OW56018   8.514   4.245   7.211 -0.0425  0.4410  0.1277
17955SOL    HW156019   8.524   4.339   7.226  0.0502  0.5106 -0.3600
17955SOL    HW256020   8.601   4.216   7.182 -0.9279  0.8867 -3.3064
17956SOL     OW56021   8.454   0.886   2.461 -0.2248  0.0994  0.2492
17956SOL    HW156022   8.475   0.793   2.459 -0.4286 -0.0617  2.7584
17956SOL    HW256023   8.393   0.899   2.388  0.5302 -1.5156 -0.7109
17957SOL     OW56024   9.454   7.794   3.948  0.4624  0.2137 -0.7421
17957SOL    HW156025   9.541   7.811   3.983  0.0825  1.1753 -0.2529
17957SOL    HW256026   9.470   7.734   3.875  1.5052  0.1693 -0.4965
17958SOL     OW56027   8.924   3.824   0.157  0.6413  0.2439  0.3332
17958SOL    HW156028   8.987   3.831   0.228  1.2047  1.2663 -0.2418
17958SOL    HW256029   8.938   3.736   0.121 -0.3717 -0.7054  2.0951
17959SOL     OW56030   0.678   3.192   6.205  0.1296  0.3485 -0.0853
17959SOL    HW156031   0.603   3.145   6.168 -0.4099 -0.2636  1.6678
17959SOL    HW256032   0.753   3.161   6.154 -0.5266 -0.7156 -0.4526
17960SOL     OW56033   6.237   7.374   0.729 -0.0033  0.3195  0.3529
17960SOL    HW156034   6.207   7.456   0.691 -0.6800  1.0682  2.3686
17960SOL    HW256035   6.330   7.387   0.747 -0.0371  0.5263  0.3725
17961SOL     OW56036   5.672   1.584   2.044 -0.0322 -0.1570  0.2219
17961SOL    HW156037   5.600   1.598   1.983 -1.7415  2.1503  2.5337
17961SOL    HW256038   5.741   1.644   2.014 -0.5290  0.3383  0.0585
17962SOL     OW56039   1.966   2.172   3.688  0.4689 -0.4060  0.0511
17962SOL    HW156040   1.893   2.143   3.632  0.2943 -0.8387  0.4954
17962SOL    HW256041   2.044   2.156   3.635  0.2922 -0.6353 -0.1466
17963SOL     OW56042   1.946   9.044   4.981  0.6791  0.3815 -0.1276
17963SOL    HW156043   2.006   8.984   4.938 -0.5957  1.6888 -4.1493
17963SOL    HW256044   1.951   9.125   4.929 -0.6697  2.3885  2.5923
17964SOL     OW56045   0.280   1.174   3.764 -0.3403  0.4481 -0.1083
17964SOL    HW156046   0.364   1.214   3.786  0.2031 -0.8864  0.3124
17964SOL    HW256047   0.215   1.238   3.792  0.5171  1.3751 -0.1819
17965SOL     OW56048   8.807   5.582   4.878 -0.0166  0.4321  0.4582
17965SOL    HW156049   8.873   5.637   4.922 -0.7549  1.1261  0.7269
17965SOL    HW256050   8.759   5.540   4.949  0.1837 -0.1422  0.2612
17966SOL     OW56051   7.351   0.767   2.264 -0.6351  0.7731 -0.0907
17966SOL    HW156052   7.353   0.853   2.306 -0.6895  0.1714  1.1844
17966SOL    HW256053   7.313   0.784   2.177 -1.0366  1.9658  0.2945
17967SOL     OW56054   4.426   1.124   9.242 -0.7964  0.6388  0.0296
17967SOL    HW156055   4.362   1.056   9.261  0.0224  0.1064  0.9687
17967SOL    HW256056   4.511   1.082   9.257 -0.2576  1.7185  0.1092
17968SOL     OW56057   4.282   2.887   7.905  0.2988  0.3419 -0.3655
17968SOL    HW156058   4.298   2.979   7.925 -1.0684  0.4681  0.2558
17968SOL    HW256059   4.278   2.844   7.990  2.9542 -0.7135 -0.6729
17969SOL     OW56060   8.193   0.176   0.498 -0.7500 -0.1454 -0.2265
17969SOL    HW156061   8.179   0.218   0.413  0.4224  0.7103 -0.0251
17969SOL    HW256062   8.196   0.083   0.478 -2.2596 -0.0908 -0.8509
17970SOL     OW56063   7.544   3.351   0.528  0.1309  0.0904  0.8316
17970SOL    HW156064   7.526   3.277   0.469  1.8306  0.1082  0.2399
17970SOL    HW256065   7.510   3.427   0.482  0.6937 -0.0052  0.2368
17971SOL     OW56066   3.870   1.823   4.639  0.0772 -0.2610 -0.3270
17971SOL    HW156067   3.907   1.741   4.670 -0.9442 -1.3405 -1.8180
17971SOL    HW256068   3.924   1.891   4.680  0.5555 -1.6341  1.4358
17972SOL     OW56069   4.759   3.468   7.152  0.5852 -0.0060 -0.0479
17972SOL    HW156070   4.826   3.496   7.215 -0.3190  1.1846  0.4322
17972SOL    HW256071   4.789   3.382   7.122  1.8429  0.0865  0.8381
17973SOL     OW56072   6.574   2.582   8.986  0.4228 -0.0353 -0.3080
17973SOL    HW156073   6.537   2.495   8.999 -0.1901  0.4426  1.3823
17973SOL    HW256074   6.500   2.641   8.999  1.1126  0.7949 -0.0915
17974SOL     OW56075   2.988   2.796   2.942 -0.0382  0.6020 -0.2329
17974SOL    HW156076   3.057   2.862   2.942  0.0976  0.5434 -2.2774
17974SOL    HW256077   2.914   2.838   2.897  0.6233 -1.0607 -3.1344
17975SOL     OW56078   8.831   6.430   2.227 -0.2249 -0.3230  0.1049
17975SOL    HW156079   8.811   6.418   2.320  0.3382  0.4856  0.3418
17975SOL    HW256080   8.875   6.514   2.223 -0.3882 -0.2746 -0.9267
17976SOL     OW56081   5.081   3.981   4.120 -0.0303  0.0669 -0.0406
17976SOL    HW156082   5.068   4.019   4.207 -1.3877 -0.0154 -0.1901
17976SOL    HW256083   5.072   4.055   4.060 -1.7113 -0.2837 -0.2663
17977SOL     OW56084   3.774   1.962   0.697  0.5155  0.5469  0.0563
17977SOL    HW156085   3.767   1.868   0.711  0.8696  0.2364 -1.5952
17977SOL    HW256086   3.698   1.983   0.642  0.8535  1.0794 -0.2075
17978SOL     OW56087   7.174   0.832   8.396 -0.1032  0.0015 -0.4789
17978SOL    HW156088   7.130   0.905   8.440  1.5119 -0.0811  1.4098
17978SOL    HW256089   7.254   0.870   8.361 -0.2056 -0.4554 -1.2174
17979SOL     OW56090   2.994   6.910   2.512 -0.9225  0.0142  0.1581
17979SOL    HW156091   2.969   6.850   2.582 -0.5230 -0.5987 -0.2033
17979SOL    HW256092   2.912   6.928   2.465 -0.9958 -0.5377  0.0625
17980SOL     OW56093   9.028   5.590   3.218  0.2735  0.3227  0.0660
17980SOL    HW156094   9.037   5.684   3.231 -1.8823  0.7650 -1.1540
17980SOL    HW256095   8.983   5.581   3.133  0.0418 -1.7788  0.3460
17981SOL     OW56096   7.137   3.982   6.696 -0.0596 -0.2284 -0.8597
17981SOL    HW156097   7.117   3.994   6.603 -1.2286  3.7395 -0.3103
17981SOL    HW256098   7.055   3.953   6.735 -1.0343  2.6490 -0.5421
17982SOL     OW56099   0.975   6.587   6.135 -0.5691  0.2449  0.6898
17982SOL    HW156100   1.054   6.641   6.128  0.4954 -1.4079 -1.1790
17982SOL    HW256101   0.903   6.651   6.142  0.6988  1.8962 -0.4076
17983SOL     OW56102   5.692   8.544   3.357  0.0933 -0.8307 -0.1899
17983SOL    HW156103   5.668   8.454   3.334  0.0365 -1.7722  3.0671
17983SOL    HW256104   5.788   8.543   3.361  0.1278 -0.5344 -0.7979
17984SOL     OW56105   6.251   8.722   4.688 -0.0084 -0.0291  0.1044
17984SOL    HW156106   6.156   8.728   4.677 -0.1210 -1.3917  0.0683
17984SOL    HW256107   6.262   8.690   4.778  0.2737 -1.9653 -0.5573
17985SOL     OW56108   3.141   7.838   5.258 -0.1334  0.6187 -0.4537
17985SOL    HW156109   3.175   7.822   5.170 -1.5834 -0.7588 -0.8108
17985SOL    HW256110   3.046   7.834   5.247 -0.3959 -2.6240  1.5990
17986SOL     OW56111   2.395   7.970   7.201 -0.0803 -0.7880  0.1320
17986SOL    HW156112   2.411   8.037   7.134  0.5148  0.0817  1.1289
17986SOL    HW256113   2.480   7.929   7.215 -0.4117 -1.6744 -0.3645
17987SOL     OW56114   2.896   4.125   6.863 -0.4855  0.0219  0.0883
17987SOL    HW156115   2.851   4.204   6.833  0.5724  1.2994  1.7701
17987SOL    HW256116   2.857   4.105   6.948  1.1409  0.3666  0.9508
17988SOL     OW56117   4.933   4.185   0.462 -0.1308  0.0963  0.3826
17988SOL    HW156118   4.941   4.235   0.381 -0.6102 -0.3568  0.0446
17988SOL    HW256119   5.015   4.202   0.509  0.0492  0.5559 -0.0838
17989SOL     OW56120   1.064   7.567   7.327  0.5574  0.0644  0.0488
17989SOL    HW156121   1.071   7.662   7.337 -1.0745  0.4747 -2.0078
17989SOL    HW256122   1.154   7.535   7.339  1.0328  1.7496  1.4561
17990SOL     OW56123   5.672   9.519   8.759  0.0063  0.1718  0.7064
17990SOL    HW156124   5.602   9.547   8.818  0.5949  1.9538  0.6032
17990SOL    HW256125   5.747   9.504   8.816 -0.0882 -0.4950  0.6670
17991SOL     OW56126   4.379   9.524   3.205  0.9842  0.8826 -0.3005
17991SOL    HW156127   4.334   9.588   3.259  0.3427 -0.6234  1.0285
17991SOL    HW256128   4.318   9.505   3.134 -0.3567 -0.7426  1.1935
17992SOL     OW56129   0.853   4.151   1.825 -0.0358 -0.2324  0.3607
17992SOL    HW156130   0.883   4.118   1.740 -0.0854 -1.1945  0.7007
17992SOL    HW256131   0.762   4.178   1.810 -0.3950 -1.3996  0.3441
17993SOL     OW56132   6.952   4.798   6.942  0.1214 -0.0382  0.4529
17993SOL    HW156133   6.895   4.781   7.017 -1.6179  0.2522 -0.7427
17993SOL    HW256134   6.967   4.712   6.903 -0.7271  0.0353 -0.0605
17994SOL     OW56135   8.833   9.597   8.651 -0.0969  0.3462 -0.6991
17994SOL    HW156136   8.812   9.505   8.669 -0.2029  0.5738  0.3739
17994SOL    HW256137   8.751   9.644   8.666  0.3360  0.8101  0.2593
17995SOL     OW56138   1.249   0.555   9.330  0.2097  0.1238  0.0375
17995SOL    HW156139   1.324   0.514   9.287  1.0643  1.2222  0.4371
17995SOL    HW256140   1.251   0.521   9.419  0.7128  0.7604  0.2725
17996SOL     OW56141   6.334   5.943   3.561 -0.2943  0.3782  0.0782
17996SOL    HW156142   6.355   6.024   3.608  0.0034  0.1899  0.2764
17996SOL    HW256143   6.398   5.939   3.490 -2.2934  1.9604 -1.9597
17997SOL     OW56144   5.509   7.213   6.121  0.0260 -0.1714 -0.4761
17997SOL    HW156145   5.584   7.212   6.180 -1.1148  0.9854  1.0706
17997SOL    HW256146   5.447   7.152   6.160 -0.6974  0.5125 -0.5364
17998SOL     OW56147   3.229   1.251   2.928  0.0797  0.3410 -0.0174
17998SOL    HW156148   3.218   1.340   2.961  1.0439 -0.1886  1.8803
17998SOL    HW256149   3.162   1.242   2.860  0.9061  2.9663 -1.3070
17999SOL     OW56150   8.831   3.672   3.946  0.3442 -0.0513  0.0169
17999SOL    HW156151   8.851   3.699   3.856  1.1883 -1.6829 -0.3330
17999SOL    HW256152   8.882   3.731   4.001 -0.1559  0.9480 -0.5662
18000SOL     OW56153   5.600   3.245   1.322 -0.5837  0.4734 -0.4292
18000SOL    HW156154   5.660   3.171   1.320 -0.7320  0.3302  0.2945
18000SOL    HW256155   5.632   3.303   1.252 -0.7770 -0.4988 -1.3433
18001SOL     OW56156   1.959   5.525   2.785 -0.1863 -0.1936 -0.1004
18001SOL    HW156157   1.898   5.557   2.852  0.4518  0.4528  0.1784
18001SOL    HW256158   2.024   5.475   2.833 -0.4805 -0.8949 -0.4026
18002SOL     OW56159   9.088   0.212   7.573 -0.4017  0.1168 -0.4378
18002SOL    HW156160   9.121   0.134   7.530 -2.3399 -1.2179  0.3695
18002SOL    HW256161   9.164   0.249   7.618  0.0099 -3.2350  2.0169
18003SOL     OW56162   8.012   3.980   1.226 -0.0386  0.6113  0.2141
18003SOL    HW156163   7.925   3.940   1.222  0.4284 -0.4567  0.4375
18003SOL    HW256164   8.060   3.926   1.289  1.5001 -0.2202 -1.5985
18004SOL     OW56165   8.836   6.835   1.295 -0.0829 -0.0361 -0.3386
18004SOL    HW156166   8.919   6.823   1.340 -0.3352 -0.4628  0.0323
18004SOL    HW256167   8.785   6.892   1.354  0.0476  0.4616 -0.7005
18005SOL     OW56168   0.459   6.104   4.888  0.4624 -0.0515  0.2025
18005SOL    HW156169   0.444   6.029   4.946 -0.5138  0.0431  0.0901
18005SOL    HW256170   0.499   6.066   4.809 -0.1600 -0.4873  0.0875
18006SOL     OW56171   6.023   6.444   5.781 -0.0854  0.4674 -0.1208
18006SOL    HW156172   5.995   6.505   5.713 -1.2671  0.0166 -0.0601
18006SOL    HW256173   6.081   6.495   5.837 -1.5950  1.7528  0.3317
18007SOL     OW56174   4.291   9.149   2.671 -0.2889  0.0428 -0.1525
18007SOL    HW156175   4.207   9.167   2.629  0.5190  0.7937 -1.5225
18007SOL    HW256176   4.338   9.095   2.608  0.7910  0.7969 -0.0151
18008SOL     OW56177   7.765   9.240   3.854 -0.2141  0.1564 -0.1861
18008SOL    HW156178   7.737   9.154   3.887 -1.8164  0.8636  0.4150
18008SOL    HW256179   7.708   9.302   3.899  1.9496  1.6874  0.5672
18009SOL     OW56180   4.863   7.137   6.682 -0.3407 -0.0850  0.1150
18009SOL    HW156181   4.855   7.227   6.651 -0.7366 -0.7177 -1.8069
18009SOL    HW256182   4.795   7.128   6.749 -1.1911  0.6928 -0.6095
18010SOL     OW56183   6.741   8.228   3.773 -0.1447 -0.2300  0.0676
18010SOL    HW156184   6.689   8.150   3.753  1.1309 -0.5713 -2.3112
18010SOL    HW256185   6.680   8.287   3.817 -1.5994 -1.8847  0.3909
18011SOL     OW56186   5.820   3.009   3.756  0.2244 -0.3279 -0.2330
18011SOL    HW156187   5.770   2.958   3.820 -0.8012 -2.0485 -2.2739
18011SOL    HW256188   5.869   2.944   3.706  0.2879  0.8359 -1.7700
18012SOL     OW56189   4.538   7.883   5.372  0.0704 -0.5924  0.2353
18012SOL    HW156190   4.613   7.878   5.313  1.0004  4.2528  0.5847
18012SOL    HW256191   4.576   7.889   5.460 -0.3641  3.2336  0.3363
18013SOL     OW56192   6.150   5.453   4.019  0.2721  0.1272 -0.3503
18013SOL    HW156193   6.149   5.538   4.062  1.3843 -0.0054 -0.0489
18013SOL    HW256194   6.060   5.441   3.988  0.0051  1.2179 -0.0314
18014SOL     OW56195   5.919   1.157   3.277  0.2477  0.8688 -0.0572
18014SOL    HW156196   5.994   1.099   3.288  1.5210  2.7367  1.8361
18014SOL    HW256197   5.956   1.235   3.235 -0.8901  1.3539 -0.1876
18015SOL     OW56198   9.546   7.686   5.138  0.1750  0.1726 -0.0279
18015SOL    HW156199   9.457   7.649   5.136  0.7069 -1.1904 -1.5362
18015SOL    HW256200   9.538   7.766   5.190 -1.6945 -0.5026  0.8302
18016SOL     OW56201   8.502   1.085   1.086 -0.2828  0.5694 -0.0843
18016SOL    HW156202   8.567   1.106   1.154  0.9211 -0.5985 -0.8371
18016SOL    HW256203   8.554   1.067   1.008 -1.2485 -3.0602 -0.0697
18017SOL     OW56204   0.783   3.851   2.110  0.0139  0.3486  0.1613
18017SOL    HW156205   0.822   3.765   2.127  0.0182 -0.1172 -2.0057
18017SOL    HW256206   0.831   3.885   2.035 -0.3919  2.0079  0.6129
18018SOL     OW56207   8.608   1.445   7.247 -0.0619  0.3040  0.2218
18018SOL    HW156208   8.524   1.433   7.291  0.4927  1.2161  1.6046
18018SOL    HW256209   8.604   1.534   7.212 -0.0927 -0.0541 -0.7236
18019SOL     OW56210   8.259   4.586   8.089 -0.0188 -0.3294 -0.1064
18019SOL    HW156211   8.293   4.582   8.178  0.0058  0.0952 -0.0934
18019SOL    HW256212   8.176   4.633   8.097 -0.7469 -1.5607 -0.1005
18020SOL     OW56213   0.827   4.430   1.162  0.0541 -0.4858 -0.4698
18020SOL    HW156214   0.850   4.352   1.112  0.5668 -1.1109  0.7222
18020SOL    HW256215   0.884   4.499   1.128 -1.2051 -0.2867 -2.3494
18021SOL     OW56216   7.328   6.616   0.225 -0.3122  0.2249  0.3914
18021SOL    HW156217   7.377   6.583   0.150 -0.1776 -0.2604  0.6913
18021SOL    HW256218   7.302   6.538   0.273 -0.9159  0.5035  0.5282
18022SOL     OW56219   5.456   0.269   3.658 -0.2433 -0.2437 -0.2798
18022SOL    HW156220   5.451   0.355   3.699 -1.2357 -0.7073  0.6210
18022SOL    HW256221   5.373   0.260   3.611  0.5807 -0.0079 -1.8688
18023SOL     OW56222   3.847   7.660   4.771 -0.3167  0.1735 -0.6993
18023SOL    HW156223   3.904   7.585   4.758 -0.6665 -0.1480 -0.4280
18023SOL    HW256224   3.904   7.736   4.766  0.1039 -0.1348 -0.6049
18024SOL     OW56225   7.371   8.899   7.443  0.1223 -0.3669 -0.1642
18024SOL    HW156226   7.355   8.816   7.488  1.3453 -0.4941  0.0910
18024SOL    HW256227   7.384   8.962   7.514  0.6453 -0.2698 -0.3423
18025SOL     OW56228   8.120   8.639   7.731 -0.0648 -0.0232 -0.4539
18025SOL    HW156229   8.117   8.705   7.662 -1.5336  0.1131 -0.2883
18025SOL    HW256230   8.213   8.624   7.746  0.4205  3.4661  0.8819
18026SOL     OW56231   4.404   5.979   1.327 -0.1318 -0.5156 -0.3091
18026SOL    HW156232   4.415   6.067   1.365  1.2473 -0.6262 -0.3899
18026SOL    HW256233   4.395   5.995   1.233 -1.0218 -0.4019 -0.2136
18027SOL     OW56234   3.313   1.437   5.415  0.3862 -0.0927 -0.4758
18027SOL    HW156235   3.270   1.377   5.476  1.3695 -0.9461 -0.5966
18027SOL    HW256236   3.249   1.506   5.400 -0.4961 -0.7378  0.2312
18028SOL     OW56237   8.137   0.632   0.068  0.3458 -0.1058 -0.1832
18028SOL    HW156238   8.233   0.633   0.072  0.3625 -1.0256 -0.1554
18028SOL    HW256239   8.117   0.669  -0.018  0.6819  1.0148  0.2052
18029SOL     OW56240   4.023   7.882   4.820  0.3173  0.1742 -0.8636
18029SOL    HW156241   4.037   7.861   4.912 -2.2923 -0.6605 -0.5720
18029SOL    HW256242   3.984   7.970   4.821  2.0069  0.9708 -1.3624
18030SOL     OW56243   5.619   9.482   5.544 -0.2923  0.8109  0.1196
18030SOL    HW156244   5.603   9.566   5.501 -0.2878  0.5882 -0.3300
18030SOL    HW256245   5.546   9.472   5.605  0.7231  2.0332  1.6075
18031SOL     OW56246   3.033   0.003   6.906 -0.1013 -0.2962  0.8642
18031SOL    HW156247   3.071  -0.055   6.971  1.0882  1.1789  1.5555
18031SOL    HW256248   3.056  -0.036   6.822  2.3015  0.0923  1.2743
18032SOL     OW56249   4.818   9.125   8.637  0.6233  0.2414  0.3306
18032SOL    HW156250   4.801   9.031   8.632  0.4202  0.2665  0.5254
18032SOL    HW256251   4.760   9.164   8.572 -0.2649  0.3476  1.1613
18033SOL     OW56252   0.270   5.663   7.576 -0.3938  0.4255 -0.0091
18033SOL    HW156253   0.289   5.582   7.622  1.4215 -0.0892 -1.5471
18033SOL    HW256254   0.323   5.729   7.621  2.2281 -0.2762 -1.8857
18034SOL     OW56255   6.659   3.968   8.671  0.2790 -0.0127  0.3272
18034SOL    HW156256   6.664   3.873   8.670 -0.1782 -0.0371 -0.7640
18034SOL    HW256257   6.605   3.991   8.596 -0.3176  1.0781  1.0554
18035SOL     OW56258   3.642   6.738   0.955 -0.4172  0.4843  0.1735
18035SOL    HW156259   3.551   6.741   0.984 -0.2636  0.2127  0.7064
18035SOL    HW256260   3.671   6.649   0.974 -0.4045  0.1785 -1.1841
18036SOL     OW56261   4.708   3.797   7.745 -0.7196 -0.6693  0.0642
18036SOL    HW156262   4.649   3.767   7.676  0.7075  1.4369 -2.2703
18036SOL    HW256263   4.697   3.892   7.746  1.2781 -0.3952  0.8223
18037SOL     OW56264   4.216   8.422   1.322  0.0169  0.1110 -0.0623
18037SOL    HW156265   4.305   8.429   1.287 -0.2061  0.4499 -0.5913
18037SOL    HW256266   4.165   8.481   1.266 -0.7873 -1.0697 -0.6069
18038SOL     OW56267   1.999   3.996   9.030 -0.1706 -0.0609  0.5634
18038SOL    HW156268   1.925   3.945   8.997  1.2725 -2.1018  0.3648
18038SOL    HW256269   1.982   4.004   9.124 -0.7183 -0.3877  0.4972
18039SOL     OW56270   7.540   1.346   0.416 -0.1577 -0.1152 -0.1197
18039SOL    HW156271   7.545   1.430   0.461 -0.0465  0.5983 -1.4035
18039SOL    HW256272   7.447   1.334   0.398 -0.0958  0.1497 -0.6527
18040SOL     OW56273   0.852   8.156   8.713 -0.7658  0.1143  0.0676
18040SOL    HW156274   0.758   8.171   8.697 -1.2133 -2.4744 -0.1102
18040SOL    HW256275   0.856   8.068   8.750  1.5259  0.6646  1.2589
18041SOL     OW56276   0.819   2.732   6.450 -0.0667  0.2063  0.4427
18041SOL    HW156277   0.745   2.716   6.508 -1.6682  1.8340 -1.0394
18041SOL    HW256278   0.862   2.810   6.488  1.7581 -1.4233  2.0034
18042SOL     OW56279   0.241   7.850   6.749 -0.4298 -0.3005  1.0246
18042SOL    HW156280   0.147   7.867   6.747 -0.6173 -0.7532 -3.4423
18042SOL    HW256281   0.250   7.759   6.722  1.3062  0.1897 -0.2266
18043SOL     OW56282   5.609   8.831   4.505  0.5468 -0.9046 -0.0744
18043SOL    HW156283   5.627   8.750   4.552 -1.7052 -1.7121 -0.4978
18043SOL    HW256284   5.520   8.821   4.472  0.3392  1.5848 -0.4833
18044SOL     OW56285   8.857   8.049   2.403 -0.6088 -0.3100  0.2439
18044SOL    HW156286   8.843   7.968   2.450 -0.2390 -0.8505 -0.5513
18044SOL    HW256287   8.862   8.023   2.311 -1.9076  0.7882 -0.1693
18045SOL     OW56288   3.647   4.905   5.516 -0.1719 -0.4788 -0.2381
18045SOL    HW156289   3.702   4.847   5.462  2.2841  0.6700  0.8953
18045SOL    HW256290   3.649   4.989   5.470  1.8145  0.4712  1.4183
18046SOL     OW56291   7.824   0.816   0.400  0.2787  0.1738  0.4395
18046SOL    HW156292   7.797   0.831   0.309  1.3212  3.7698  0.5495
18046SOL    HW256293   7.806   0.724   0.416 -1.5335 -0.1899 -2.8606
18047SOL     OW56294   4.276   5.594   1.755  0.2234  0.2696 -0.0343
18047SOL    HW156295   4.241   5.594   1.844 -0.5256  1.6175 -0.2971
18047SOL    HW256296   4.208   5.552   1.702  0.5865 -0.3617 -0.0076
18048SOL     OW56297   6.149   0.054   4.946  0.0669 -0.8958 -0.0278
18048SOL    HW156298   6.242   0.078   4.937  1.1446 -3.9398  1.3799
18048SOL    HW256299   6.119   0.102   5.023  0.8729 -0.8109  0.2480
18049SOL     OW56300   3.629   6.134   7.069  0.5848  0.3081  0.1321
18049SOL    HW156301   3.715   6.105   7.036  0.5472 -0.7300  0.8969
18049SOL    HW256302   3.646   6.163   7.159  0.3530  1.3194 -0.1414
18050SOL     OW56303   0.237   4.370   8.979  0.8075  0.3701  0.0559
18050SOL    HW156304   0.182   4.292   8.981  1.6358 -0.2331  0.1498
18050SOL    HW256305   0.258   4.387   9.071  1.6303 -0.0494 -0.0389
18051SOL     OW56306   2.331   5.872   4.430  0.6056  0.2236 -0.2534
18051SOL    HW156307   2.420   5.838   4.420  0.3287 -0.4082 -0.6560
18051SOL    HW256308   2.310   5.860   4.522  0.1836 -1.6000 -0.5320
18052SOL     OW56309   7.628   5.886   8.654  0.3777 -0.5237  0.2174
18052SOL    HW156310   7.664   5.799   8.638  2.1533  0.2835 -0.4457
18052SOL    HW256311   7.701   5.946   8.637 -1.2626  1.2192 -1.0897
18053SOL     OW56312   4.809   9.231   6.531 -0.0978 -0.1949  0.3442
18053SOL    HW156313   4.762   9.177   6.467 -0.5510 -0.3799  0.8272
18053SOL    HW256314   4.802   9.183   6.613 -0.0582  0.3426  0.6676
18054SOL     OW56315   3.948   8.537   0.603 -0.0092  0.4412 -0.2242
18054SOL    HW156316   4.014   8.602   0.580 -0.0178  0.5593  0.0869
18054SOL    HW256317   3.996   8.469   0.649 -0.1224  0.5855  0.1107
18055SOL     OW56318   3.791   2.410   9.285 -0.4582 -0.1724  0.1955
18055SOL    HW156319   3.826   2.324   9.263 -3.5176 -1.8368  1.2193
18055SOL    HW256320   3.861   2.471   9.263  2.3880 -3.0033  0.7495
18056SOL     OW56321   1.243   3.519   3.024  0.1544  0.3430  0.1933
18056SOL    HW156322   1.222   3.539   3.115 -1.3171  1.7121 -0.3996
18056SOL    HW256323   1.272   3.603   2.988  0.4799 -0.1301 -0.6654
18057SOL     OW56324   6.562   1.215   4.306 -0.2614  0.2814 -0.7700
18057SOL    HW156325   6.498   1.285   4.320  0.3559  1.1590 -2.0663
18057SOL    HW256326   6.635   1.237   4.364 -0.5617  0.0352 -0.2928
18058SOL     OW56327   7.613   8.751   3.650  0.1844 -0.0414  0.3921
18058SOL    HW156328   7.701   8.741   3.687 -0.0509  1.2651  1.3479
18058SOL    HW256329   7.568   8.671   3.676  1.2221 -1.0068 -0.6052
18059SOL     OW56330   2.316   2.070   7.547  0.0136  0.0985  0.3800
18059SOL    HW156331   2.231   2.064   7.590 -0.9653  0.2084 -1.4432
18059SOL    HW256332   2.371   2.119   7.608 -1.0433 -0.4551  1.8368
18060SOL     OW56333   8.193   8.357   1.517 -0.6184  0.3093 -0.3153
18060SOL    HW156334   8.106   8.362   1.477 -0.4594 -1.1840 -0.8882
18060SOL    HW256335   8.178   8.377   1.609 -1.3006  1.7015 -0.6847
18061SOL     OW56336   8.777   2.630   3.431  0.4886 -0.2544 -0.1541
18061SOL    HW156337   8.729   2.664   3.356  0.4726  2.2175  0.8727
18061SOL    HW256338   8.770   2.535   3.423 -2.2109 -0.0431 -1.5304
18062SOL     OW56339   7.100   5.964   7.894  0.7443 -0.4842  0.8528
18062SOL    HW156340   7.093   6.021   7.817  2.3400 -1.2386  0.0952
18062SOL    HW256341   7.033   5.897   7.881  1.9102 -1.4362 -0.6766
18063SOL     OW56342   3.852   1.679   2.881  0.0416 -0.3742 -0.5425
18063SOL    HW156343   3.773   1.708   2.834 -0.3920 -0.3807  0.1671
18063SOL    HW256344   3.923   1.732   2.843 -0.7582  1.8856  0.8783
18064SOL     OW56345   9.483   9.157   7.222 -0.0251  0.2471 -0.1853
18064SOL    HW156346   9.430   9.080   7.205 -0.9689  0.4067  1.7741
18064SOL    HW256347   9.564   9.123   7.260 -0.5283  0.1952  0.8801
18065SOL     OW56348   0.547   1.641   4.949 -0.0512 -0.4378 -0.1177
18065SOL    HW156349   0.607   1.715   4.939  0.0835 -0.5650 -0.2653
18065SOL    HW256350   0.504   1.656   5.033  0.5343 -0.5978  0.2173
18066SOL     OW56351   6.159   4.619   8.933 -0.0327  0.9288  0.1726
18066SOL    HW156352   6.132   4.533   8.965  1.1023  0.0028 -1.2028
18066SOL    HW256353   6.255   4.614   8.929 -0.0131  1.8065 -1.1102
18067SOL     OW56354   2.043   7.289   6.323 -0.2641  0.5203 -0.0424
18067SOL    HW156355   2.049   7.196   6.343 -0.4647  0.7602  1.1698
18067SOL    HW256356   2.133   7.317   6.308 -0.3024 -0.1236 -1.7117
18068SOL     OW56357   4.405   5.761   8.592 -0.1110 -0.2208  0.1408
18068SOL    HW156358   4.470   5.751   8.522  1.1173  0.4530  1.1272
18068SOL    HW256359   4.321   5.761   8.547  0.6195 -0.1581 -1.3001
18069SOL     OW56360   7.645   9.067   3.567 -0.6894  0.2041 -0.2942
18069SOL    HW156361   7.670   9.018   3.645  2.3756  1.7311 -0.1458
18069SOL    HW256362   7.610   9.002   3.507 -0.6973 -1.4222  1.4035
18070SOL     OW56363   7.828   5.987   1.938 -0.0950 -0.3850  0.2693
18070SOL    HW156364   7.882   6.065   1.958  0.3633  0.5405 -3.7876
18070SOL    HW256365   7.742   6.009   1.972  0.6412  0.7398  1.5370
18071SOL     OW56366   7.681   6.922   3.771 -0.5562 -0.2228  0.8817
18071SOL    HW156367   7.747   6.939   3.704 -1.0794 -4.4609 -1.0758
18071SOL    HW256368   7.598   6.939   3.728 -0.8529  0.6087  1.7585
18072SOL     OW56369   0.503   3.397   2.614  0.7322 -0.1008  0.6465
18072SOL    HW156370   0.427   3.453   2.629  0.3788 -0.5711  0.6323
18072SOL    HW256371   0.577   3.457   2.612  0.1766  0.5827 -1.2031
18073SOL     OW56372   3.122   7.196   7.760 -0.1636 -0.0026  0.8751
18073SOL    HW156373   3.154   7.274   7.807  0.6391 -0.3531  0.9186
18073SOL    HW256374   3.133   7.217   7.668 -0.1828  0.0301  0.8801
18074SOL     OW56375   4.258   6.323   3.356  0.0797 -0.0727 -0.1580
18074SOL    HW156376   4.237   6.390   3.421  2.2535  1.2268 -0.7045
18074SOL    HW256377   4.253   6.370   3.272  0.6541 -0.8387 -0.6290
18075SOL     OW56378   0.292   9.167   9.532  0.4542  0.4920  0.3970
18075SOL    HW156379   0.215   9.126   9.571  0.5004 -0.6398 -0.6224
18075SOL    HW256380   0.256   9.227   9.466  0.3883 -1.3946 -1.4031
18076SOL     OW56381   8.118   1.076   1.528  0.0577  0.0341 -0.5770
18076SOL    HW156382   8.135   1.146   1.465 -3.3961  1.3328 -0.3196
18076SOL    HW256383   8.093   1.001   1.474  1.9549 -0.4814 -0.8013
18077SOL     OW56384   5.877   8.214   4.760  0.1453  0.1590  0.1685
18077SOL    HW156385   5.961   8.177   4.787  1.8403  0.8511 -3.5505
18077SOL    HW256386   5.822   8.138   4.744 -1.1291 -0.3349  5.0749
18078SOL     OW56387   6.014   8.211   2.604 -0.2341  0.0390 -0.7996
18078SOL    HW156388   5.953   8.198   2.677  1.3514  3.8925  1.5202
18078SOL    HW256389   6.066   8.130   2.602 -0.2320 -0.1848  2.5393
18079SOL     OW56390   1.836   0.366   1.036  0.1908  0.0829 -0.5493
18079SOL    HW156391   1.900   0.411   1.092 -2.5224  1.7745  1.4344
18079SOL    HW256392   1.807   0.292   1.089  1.1044 -1.2263 -1.8200
18080SOL     OW56393   9.598   2.088   5.505 -0.0905 -0.4839  0.0410
18080SOL    HW156394   9.634   2.173   5.528  0.1810 -0.0862 -1.6797
18080SOL    HW256395   9.504   2.103   5.495  0.1004 -0.0712 -1.4000
18081SOL     OW56396   8.709   2.498   2.763 -0.3460  0.4074 -0.2812
18081SOL    HW156397   8.679   2.430   2.824  0.0223  1.0369  0.6234
18081SOL    HW256398   8.732   2.451   2.684 -0.6289 -0.4593  0.1407
18082SOL     OW56399   2.616   8.148   1.363 -0.0659  0.1253  0.1525
18082SOL    HW156400   2.571   8.074   1.404  0.1762  0.9447  1.9901
18082SOL    HW256401   2.623   8.214   1.432  1.4408  1.1322 -0.8869
18083SOL     OW56402   7.373   5.110   5.247 -0.0325 -0.3846 -0.1016
18083SOL    HW156403   7.305   5.071   5.302 -0.2487  0.8752  0.5662
18083SOL    HW256404   7.410   5.180   5.301 -0.7791  1.4158 -1.7993
18084SOL     OW56405   3.190   2.927   8.173  0.1095  0.3113  0.0225
18084SOL    HW156406   3.220   2.855   8.229 -0.0465  0.2800  0.0648
18084SOL    HW256407   3.170   2.885   8.089  0.2786  0.3478 -0.0360
18085SOL     OW56408   0.543   1.009   8.313 -0.4525  0.1822  0.3301
18085SOL    HW156409   0.561   0.915   8.306  0.4219  0.4510 -1.8194
18085SOL    HW256410   0.457   1.014   8.356 -0.6992 -1.6102  0.1061
18086SOL     OW56411   5.862   6.731   7.627  0.1801 -0.3535  0.3650
18086SOL    HW156412   5.954   6.752   7.644  0.3521 -0.2313 -0.6558
18086SOL    HW256413   5.862   6.693   7.540 -1.0175  1.8627 -0.6693
18087SOL     OW56414   0.181   7.178   6.424  0.1950  0.2222 -0.1166
18087SOL    HW156415   0.102   7.132   6.455 -0.3637  0.6538 -0.8678
18087SOL    HW256416   0.174   7.175   6.328  2.4324 -2.0517 -0.3159
18088SOL     OW56417   3.348   6.092   9.171  0.1908  0.2552 -0.2875
18088SOL    HW156418   3.313   6.066   9.086 -0.5498 -0.8330  0.3372
18088SOL    HW256419   3.303   6.174   9.191  1.7951  1.6037 -1.7981
18089SOL     OW56420   3.170   1.537   2.892  0.2797  0.3581  0.3766
18089SOL    HW156421   3.162   1.541   2.796  0.1313  1.2572  0.4149
18089SOL    HW256422   3.253   1.580   2.910  0.9647 -0.9883  0.5821
18090SOL     OW56423   7.141   2.642   9.531 -0.2162 -0.4457  0.0706
18090SOL    HW156424   7.090   2.625   9.610 -1.4676 -1.6508 -0.9502
18090SOL    HW256425   7.129   2.564   9.477  0.4614  0.4121 -1.3987
18091SOL     OW56426   2.236   2.741   8.162 -0.4747  0.2562  0.1072
18091SOL    HW156427   2.156   2.743   8.215  0.2490  1.6714  1.2433
18091SOL    HW256428   2.266   2.832   8.163  1.9496 -0.4964  0.9875
18092SOL     OW56429   7.925   6.426   0.936 -0.4825 -0.2429 -0.0028
18092SOL    HW156430   7.985   6.427   0.862  0.0308 -0.3884  0.4089
18092SOL    HW256431   7.849   6.476   0.906 -1.1349 -1.9758 -1.3300
18093SOL     OW56432   5.118   7.423   8.149 -0.1595 -0.4109  0.0888
18093SOL    HW156433   5.072   7.473   8.216  0.7165 -1.3831  1.4843
18093SOL    HW256434   5.209   7.452   8.156  0.1269 -1.2644  0.0539
18094SOL     OW56435   8.138   4.729   3.912  0.7856  0.6639  0.5197
18094SOL    HW156436   8.067   4.743   3.850  1.8224  1.1884 -0.5959
18094SOL    HW256437   8.152   4.815   3.952  1.4818  0.8266 -0.0503
18095SOL     OW56438   1.377   0.353   5.881 -0.3151 -0.1302  0.4135
18095SOL    HW156439   1.359   0.259   5.888 -0.3173 -0.2480 -0.8957
18095SOL    HW256440   1.470   0.358   5.859 -0.2559  0.1936  0.7278
18096SOL     OW56441   8.762   6.031   4.450  0.0100 -0.8006 -0.1118
18096SOL    HW156442   8.731   5.955   4.501 -3.3029  0.0472 -0.6056
18096SOL    HW256443   8.775   6.100   4.515  1.8405 -1.3948  0.1980
18097SOL     OW56444   5.373   0.831   3.105  0.1759 -0.0705 -0.2059
18097SOL    HW156445   5.364   0.870   3.019  1.3133 -0.3989 -0.4960
18097SOL    HW256446   5.435   0.888   3.151  1.3719 -1.1571 -0.4207
18098SOL     OW56447   2.566   5.239   5.979  0.0733 -0.1069 -0.2629
18098SOL    HW156448   2.601   5.314   5.930  0.5579 -0.0756  0.1223
18098SOL    HW256449   2.490   5.274   6.025  0.1465  0.0869 -0.2888
18099SOL     OW56450   6.296   9.623   4.540  0.3338 -0.6327  0.2348
18099SOL    HW156451   6.389   9.621   4.520  0.1324  1.7164 -1.4446
18099SOL    HW256452   6.284   9.704   4.590 -0.5728 -1.8543  2.1015
18100SOL     OW56453   3.405   9.317   0.740  0.2334 -0.1636  0.3235
18100SOL    HW156454   3.325   9.327   0.792  0.0768 -1.0110  0.2661
18100SOL    HW256455   3.374   9.309   0.650  0.3634 -0.7033  0.3235
18101SOL     OW56456   3.313   8.465   9.527 -0.2027 -0.6288  0.0565
18101SOL    HW156457   3.342   8.426   9.610  0.2824 -0.3131  0.0382
18101SOL    HW256458   3.248   8.530   9.553  0.2218 -0.2685  0.2209
18102SOL     OW56459   5.629   0.724   5.347  0.2079  0.0992 -0.3305
18102SOL    HW156460   5.617   0.684   5.433 -1.5893 -0.5037 -0.7966
18102SOL    HW256461   5.693   0.667   5.303  0.6142  0.0115  0.3583
18103SOL     OW56462   5.473   7.108   7.099 -0.4807 -0.1449 -0.3301
18103SOL    HW156463   5.406   7.067   7.153  0.2450  0.2076  0.8502
18103SOL    HW256464   5.448   7.085   7.009 -1.0104 -1.7716  0.1955
18104SOL     OW56465   2.803   5.566   7.095 -0.2702  0.0018  0.0100
18104SOL    HW156466   2.823   5.646   7.046 -0.9712  0.4671  0.4573
18104SOL    HW256467   2.736   5.522   7.043 -2.3237  1.3697  1.3362
18105SOL     OW56468   5.822   2.566   6.167  0.0639 -0.2434 -0.0869
18105SOL    HW156469   5.871   2.556   6.085  0.8058  3.4379 -0.2736
18105SOL    HW256470   5.735   2.596   6.139  0.2463  0.7972  0.4082
18106SOL     OW56471   0.299   8.065   5.520 -0.1672  0.1444 -0.6849
18106SOL    HW156472   0.307   8.159   5.540 -1.2641  0.2104 -0.5242
18106SOL    HW256473   0.314   8.022   5.604 -0.5999  0.2204 -0.5685
18107SOL     OW56474   5.540   5.449   6.700 -0.1731 -0.2199  0.1674
18107SOL    HW156475   5.502   5.472   6.615 -0.2755 -0.1954  0.2192
18107SOL    HW256476   5.587   5.527   6.727  0.8366 -0.6183 -0.4021
18108SOL     OW56477   0.356   3.429   1.330 -0.5377 -0.1134 -0.4688
18108SOL    HW156478   0.379   3.511   1.374  0.8398 -0.2471 -0.8813
18108SOL    HW256479   0.268   3.445   1.295 -0.9931  0.5597  0.9223
18109SOL     OW56480   6.418   5.079   4.814  0.6409 -0.0790  0.0689
18109SOL    HW156481   6.384   5.168   4.826 -4.1924 -1.6755  0.3091
18109SOL    HW256482   6.437   5.074   4.720 -1.5601  0.5594 -0.4767
18110SOL     OW56483   4.641   4.376   7.308  0.5424 -0.3502  0.6576
18110SOL    HW156484   4.679   4.456   7.345  0.3481  0.3134 -0.5351
18110SOL    HW256485   4.567   4.406   7.255  1.4951 -1.1143 -1.2201
18111SOL     OW56486   1.325   1.260   1.526 -0.3642  0.1745  0.9777
18111SOL    HW156487   1.409   1.301   1.506 -0.3014 -0.6892 -0.7135
18111SOL    HW256488   1.260   1.328   1.512 -0.3046 -0.2694 -2.2011
18112SOL     OW56489   3.775   2.785   1.101  0.1296 -0.0614  0.0184
18112SOL    HW156490   3.703   2.755   1.045 -0.3531  1.9750 -0.5278
18112SOL    HW256491   3.731   2.837   1.169  0.8811 -0.9355  1.1994
18113SOL     OW56492   3.157   7.843   5.745 -0.5546  0.0947 -0.5971
18113SOL    HW156493   3.163   7.765   5.691 -1.5586 -0.3337 -0.1206
18113SOL    HW256494   3.248   7.872   5.757 -0.0833 -1.5159 -0.0391
18114SOL     OW56495   3.428   3.678   1.010  0.4047  0.0484 -0.1580
18114SOL    HW156496   3.471   3.594   0.990 -0.1075  0.0149 -1.1625
18114SOL    HW256497   3.493   3.744   0.988  0.2578 -0.0352 -0.8609
18115SOL     OW56498   1.367   1.130   5.037  0.4398  0.3131 -0.6971
18115SOL    HW156499   1.426   1.111   4.965 -0.1632 -2.4239 -0.5655
18115SOL    HW256500   1.305   1.057   5.038 -1.7111  2.0302  0.4481
18116SOL     OW56501   4.383   5.220   3.138  0.2142  0.1645 -1.2634
18116SOL    HW156502   4.458   5.161   3.147 -0.1620 -0.3639 -1.5357
18116SOL    HW256503   4.415   5.304   3.171  0.3306 -0.5298  0.5412
18117SOL     OW56504   4.879   2.187   3.876 -0.0477  0.4223  0.4983
18117SOL    HW156505   4.859   2.096   3.899  1.0791  0.2140  0.6691
18117SOL    HW256506   4.830   2.239   3.940 -1.4334 -0.0219 -0.1557
18118SOL     OW56507   1.461   1.810   5.844 -0.1870 -0.3463  0.5122
18118SOL    HW156508   1.432   1.890   5.888  1.7262  0.1356  1.0030
18118SOL    HW256509   1.406   1.804   5.766 -0.3033  1.5108  0.4114
18119SOL     OW56510   1.315   8.499   6.984 -0.0796 -0.5452 -0.5738
18119SOL    HW156511   1.297   8.471   6.895 -0.9213  0.8990 -0.8766
18119SOL    HW256512   1.240   8.467   7.035  0.6228 -1.7726 -0.2726
18120SOL     OW56513   6.675   7.160   2.617  0.0181  0.4289 -0.4019
18120SOL    HW156514   6.766   7.174   2.642  0.5067 -0.8957 -1.3372
18120SOL    HW256515   6.679   7.142   2.523 -1.4959  2.9070 -1.0386
18121SOL     OW56516   1.223   1.055   9.528 -0.0780 -0.0527 -0.1828
18121SOL    HW156517   1.231   1.127   9.591  0.4794  0.2947 -0.6465
18121SOL    HW256518   1.258   1.090   9.446 -0.7031 -0.5318 -0.6697
18122SOL     OW56519   1.787   4.325   0.395  0.1885  0.2568  1.0567
18122SOL    HW156520   1.704   4.330   0.348 -1.5523  1.5683  3.9376
18122SOL    HW256521   1.775   4.253   0.457  1.9864 -0.7543  0.3130
18123SOL     OW56522   3.228   0.635   4.235  0.3823  0.0137  0.0097
18123SOL    HW156523   3.276   0.624   4.153 -1.5585 -3.5577 -0.8635
18123SOL    HW256524   3.137   0.649   4.208  0.0418  1.0584  1.5881
18124SOL     OW56525   6.251   7.484   7.633 -0.6116  0.1639  0.2783
18124SOL    HW156526   6.251   7.410   7.694 -1.0717  0.5428  0.7478
18124SOL    HW256527   6.337   7.524   7.643  0.1044 -0.9910 -0.8451
18125SOL     OW56528   8.805   2.417   1.961 -0.5022  0.1707 -0.1080
18125SOL    HW156529   8.900   2.410   1.970 -0.3057 -1.5716 -2.4298
18125SOL    HW256530   8.770   2.374   2.039  0.6689 -1.0105 -0.1958
18126SOL     OW56531   0.716   0.356   0.530  0.2236  0.1766 -0.3140
18126SOL    HW156532   0.706   0.394   0.617 -1.3937 -0.7247 -0.0574
18126SOL    HW256533   0.701   0.430   0.470 -1.1493  0.3206  0.1784
18127SOL     OW56534   2.795   8.753   8.036  0.0264 -0.2516  0.9990
18127SOL    HW156535   2.790   8.781   7.945  3.6065  0.4625  0.9101
18127SOL    HW256536   2.715   8.788   8.076 -0.8777  0.7545 -1.4949
18128SOL     OW56537   5.649   2.541   7.590  0.4282 -0.3069 -0.4563
18128SOL    HW156538   5.559   2.544   7.558  0.5808  1.0304 -0.8123
18128SOL    HW256539   5.646   2.479   7.663 -0.6613 -0.6813 -0.7971
18129SOL     OW56540   4.622   6.345   3.192 -0.2254 -0.2272 -0.2951
18129SOL    HW156541   4.658   6.288   3.259  0.2420 -0.6102 -0.8604
18129SOL    HW256542   4.575   6.286   3.133 -0.2666  0.0516 -0.5446
18130SOL     OW56543   1.121   5.356   8.889 -0.3852  0.4371 -0.5601
18130SOL    HW156544   1.122   5.267   8.922  1.5539  0.9695  1.0038
18130SOL    HW256545   1.047   5.398   8.933  0.3626  0.3170  0.8486
18131SOL     OW56546   7.657   2.906   7.047  0.0897 -0.5364  0.3375
18131SOL    HW156547   7.580   2.933   6.997 -0.8405 -1.7172  1.0658
18131SOL    HW256548   7.675   2.979   7.105 -0.5883 -0.3116  0.2690
18132SOL     OW56549   4.294   7.464   1.494 -0.4444 -0.2017 -0.5731
18132SOL    HW156550   4.206   7.428   1.508 -0.3231 -1.2081 -2.2192
18132SOL    HW256551   4.298   7.540   1.553 -2.6263  0.2286 -0.8855
18133SOL     OW56552   8.593   8.493   5.604 -0.3431  0.3715 -0.2412
18133SOL    HW156553   8.587   8.567   5.544  1.4399 -0.6433 -1.7707
18133SOL    HW256554   8.668   8.512   5.660 -0.6656  0.3028  0.2200
18134SOL     OW56555   0.090   1.136   9.097  0.2702  0.0709 -0.5860
18134SOL    HW156556   0.176   1.178   9.093 -0.1669  1.2787  1.0950
18134SOL    HW256557   0.103   1.061   9.155  0.4641 -0.5030 -1.3706
18135SOL     OW56558   4.401   4.261   1.208  0.1153 -0.2657  0.1863
18135SOL    HW156559   4.479   4.300   1.169  0.0091  0.3062  0.5293
18135SOL    HW256560   4.428   4.235   1.296 -0.1860  0.3089  0.4520
18136SOL     OW56561   6.589   7.082   4.158  0.3240 -0.5103 -0.4452
18136SOL    HW156562   6.595   7.163   4.208 -0.9371 -0.4906 -0.3078
18136SOL    HW256563   6.561   7.109   4.070 -0.2952 -0.8057 -0.3446
18137SOL     OW56564   4.228   6.777   9.095  0.0337  0.0493  0.0413
18137SOL    HW156565   4.185   6.817   9.170  0.1460 -1.0607  0.7233
18137SOL    HW256566   4.287   6.844   9.061 -0.8968  0.9640  0.2110
18138SOL     OW56567   0.587   9.104   0.860 -0.2909 -0.5806  0.3360
18138SOL    HW156568   0.532   9.029   0.881 -0.8953 -0.0881  0.5735
18138SOL    HW256569   0.525   9.176   0.847  0.2171 -0.3118 -0.7497
18139SOL     OW56570   9.436   4.796   3.744 -0.1436  0.5529 -0.8939
18139SOL    HW156571   9.352   4.794   3.790 -0.2785  0.6792 -1.1328
18139SOL    HW256572   9.475   4.879   3.770 -0.0968  0.4993 -0.7921
18140SOL     OW56573   6.569   3.465   0.595 -0.2369  0.0139  0.0571
18140SOL    HW156574   6.539   3.534   0.536  0.0765  1.7523  1.8399
18140SOL    HW256575   6.496   3.404   0.600 -0.9372  0.7615 -0.7398
18141SOL     OW56576   4.961   1.809   5.242  0.5170  0.2928 -0.3311
18141SOL    HW156577   5.032   1.764   5.289 -0.3992  0.8988  1.7456
18141SOL    HW256578   4.991   1.899   5.234  1.3493 -0.1079 -2.4321
18142SOL     OW56579   7.144   4.028   0.172  0.5978 -0.3355 -0.4184
18142SOL    HW156580   7.100   4.113   0.178  1.9030  0.3482 -0.2137
18142SOL    HW256581   7.190   4.018   0.255 -0.9107 -2.0577  0.2761
18143SOL     OW56582   0.981   8.938   8.877  0.1155 -0.5157 -0.2419
18143SOL    HW156583   0.907   8.976   8.830  0.6460  0.3061 -0.4399
18143SOL    HW256584   1.054   8.944   8.815  0.7339  0.2371  0.5338
18144SOL     OW56585   4.231   1.849   4.183  0.4336 -0.1554 -0.2052
18144SOL    HW156586   4.175   1.925   4.172  0.1771 -0.5134 -1.5182
18144SOL    HW256587   4.311   1.871   4.134  0.2765 -0.8011 -0.7629
18145SOL     OW56588   6.384   0.580   4.995 -0.4794 -0.1190  0.5148
18145SOL    HW156589   6.423   0.510   5.047  0.1896  0.6024  1.0090
18145SOL    HW256590   6.337   0.634   5.059  1.1644  1.3304  0.5661
18146SOL     OW56591   4.145   3.214   0.723  1.0094 -0.5680  0.6571
18146SOL    HW156592   4.190   3.272   0.785 -1.3567  2.5149 -0.2209
18146SOL    HW256593   4.062   3.193   0.766 -0.2965  0.9164 -0.9408
18147SOL     OW56594   7.923   2.238   7.435 -0.0134  0.0520 -0.3601
18147SOL    HW156595   7.864   2.206   7.503 -2.1144  1.1897 -1.5505
18147SOL    HW256596   7.999   2.271   7.482 -0.9278 -0.1698  1.3313
18148SOL     OW56597   5.652   6.085   0.560  0.5212 -0.0518  0.0509
18148SOL    HW156598   5.568   6.109   0.521  0.4742  2.4150  1.4972
18148SOL    HW256599   5.715   6.093   0.488 -0.0626  0.9986 -0.3570
18149SOL     OW56600   8.498   2.300   0.481 -0.2107 -0.3664  0.3051
18149SOL    HW156601   8.558   2.225   0.489 -0.4058 -0.4978  0.5355
18149SOL    HW256602   8.521   2.340   0.397 -1.7252 -2.0974 -1.0221
18150SOL     OW56603   5.461   6.076   1.279 -0.1639  0.5084 -0.0958
18150SOL    HW156604   5.463   6.087   1.184  1.2724 -0.4676 -0.2072
18150SOL    HW256605   5.376   6.036   1.297  0.2393 -0.8999 -1.1708
18151SOL     OW56606   2.755   4.440   5.873  0.4491  0.0789  0.6361
18151SOL    HW156607   2.713   4.387   5.941  0.8677  0.3363  1.1000
18151SOL    HW256608   2.823   4.383   5.836 -0.6792 -0.5571 -0.5367
18152SOL     OW56609   7.065   6.211   3.355 -0.3166 -0.3974  0.8705
18152SOL    HW156610   7.134   6.218   3.421  1.3756 -0.8428 -0.7641
18152SOL    HW256611   7.016   6.133   3.380  1.2667 -1.4712  0.8109
18153SOL     OW56612   1.559   8.102   1.219  0.0711  0.3802 -0.0942
18153SOL    HW156613   1.526   8.121   1.306 -0.2074 -0.6875  0.0508
18153SOL    HW256614   1.619   8.028   1.231 -0.2709 -0.0403 -0.8403
18154SOL     OW56615   5.755   1.852   1.682  0.2350 -0.6816  0.5749
18154SOL    HW156616   5.760   1.791   1.609  1.6522 -1.5373  1.3510
18154SOL    HW256617   5.800   1.808   1.754 -1.2339  0.0603  2.0414
18155SOL     OW56618   7.805   8.875   0.471 -0.0317 -0.1927 -0.5071
18155SOL    HW156619   7.876   8.922   0.514  0.1262 -1.0239  0.1775
18155SOL    HW256620   7.763   8.940   0.415  0.8583  0.4693 -0.4216
18156SOL     OW56621   7.298   0.040   0.874  0.3384 -0.5585  0.7479
18156SOL    HW156622   7.360   0.016   0.805 -0.9219 -2.0118  0.0724
18156SOL    HW256623   7.217  -0.005   0.851 -0.9893  1.2416  1.6362
18157SOL     OW56624   7.326   8.624   8.531 -0.5022 -0.4824  0.2224
18157SOL    HW156625   7.294   8.582   8.611  2.1360  1.0059  2.2043
18157SOL    HW256626   7.404   8.574   8.508  0.7642  1.1859  0.6938
18158SOL     OW56627   5.476   2.971   1.471  0.1145 -0.0075  0.0937
18158SOL    HW156628   5.383   2.972   1.490  0.0492  1.0937 -0.2127
18158SOL    HW256629   5.514   3.036   1.531  0.0909  2.5148 -2.4038
18159SOL     OW56630   4.485   3.568   3.516  0.0399  0.0049 -0.4124
18159SOL    HW156631   4.419   3.561   3.586 -0.7173 -2.4209 -1.2530
18159SOL    HW256632   4.466   3.650   3.473 -3.2106 -1.0508 -1.2562
18160SOL     OW56633   9.256   0.477   1.895 -0.4670 -0.0107  0.3348
18160SOL    HW156634   9.344   0.442   1.883 -1.5726 -2.7531 -0.7787
18160SOL    HW256635   9.223   0.491   1.806 -1.4485  0.1266  0.7085
18161SOL     OW56636   7.088   6.800   1.126 -0.1350  0.1127  0.3757
18161SOL    HW156637   7.127   6.753   1.053  0.8587  0.1947  0.8456
18161SOL    HW256638   7.118   6.890   1.116 -0.5828  0.2804  0.4873
18162SOL     OW56639   7.247   1.864   3.006 -0.6328  0.2799 -0.0828
18162SOL    HW156640   7.272   1.941   3.057 -0.7040  0.7560 -0.7659
18162SOL    HW256641   7.181   1.821   3.060 -0.2784  0.4559  0.5014
18163SOL     OW56642   3.853   8.950   5.650 -0.1137  0.4943 -0.5112
18163SOL    HW156643   3.900   8.942   5.567  1.6424 -0.8051  0.5386
18163SOL    HW256644   3.881   9.033   5.686  0.9128  0.0256 -0.1978
18164SOL     OW56645   3.036   8.665   0.581 -0.0408 -0.3031 -0.2636
18164SOL    HW156646   3.108   8.645   0.521  0.2633 -3.4727  0.9382
18164SOL    HW256647   3.071   8.730   0.641  0.4711  1.0704 -1.9852
18165SOL     OW56648   5.505   4.966   4.692 -0.2502 -0.2271  0.0126
18165SOL    HW156649   5.476   4.913   4.766 -2.0066 -1.1379 -1.2589
18165SOL    HW256650   5.579   5.016   4.726 -1.3544 -0.1741  2.5355
18166SOL     OW56651   7.104   3.467   0.151  0.2798 -0.5294  0.0922
18166SOL    HW156652   7.082   3.537   0.213 -1.6124 -1.7000  0.8260
18166SOL    HW256653   7.077   3.501   0.066 -0.8762 -0.4324  0.4814
18167SOL     OW56654   8.844   3.637   5.770  0.1838 -0.3451 -0.1880
18167SOL    HW156655   8.831   3.566   5.832 -0.9617  0.2482  0.2879
18167SOL    HW256656   8.856   3.594   5.686  0.2486 -1.1164  0.2073
18168SOL     OW56657   8.644   0.323   5.965 -0.4186 -0.0082 -0.0195
18168SOL    HW156658   8.573   0.266   5.994 -1.7179  2.1887  1.3330
18168SOL    HW256659   8.603   0.407   5.947  1.7060  1.1129 -0.0197
18169SOL     OW56660   3.135   5.078   3.036 -0.2118  0.2077 -0.0275
18169SOL    HW156661   3.080   5.112   2.965 -1.4043 -0.7822  0.3962
18169SOL    HW256662   3.093   5.109   3.116  0.0700 -0.2516  0.3017
18170SOL     OW56663   2.375   1.148   0.108  0.2756  0.3637 -0.3107
18170SOL    HW156664   2.348   1.127   0.197  3.0017 -0.2089  0.4659
18170SOL    HW256665   2.385   1.062   0.065  3.9594  0.2440  0.5050
18171SOL     OW56666   8.828   1.154   3.842 -0.4561 -0.3825 -0.0539
18171SOL    HW156667   8.917   1.122   3.858 -0.5162 -0.5541 -0.0714
18171SOL    HW256668   8.802   1.193   3.925 -0.4257 -0.4750 -0.0009
18172SOL     OW56669   6.336   4.655   8.323 -0.3161 -0.0913  0.0630
18172SOL    HW156670   6.319   4.655   8.229 -0.4748  1.9788  0.0354
18172SOL    HW256671   6.362   4.745   8.343 -0.7407 -0.3479  2.0769
18173SOL     OW56672   9.298   4.893   3.325  0.3770  0.9190 -0.1424
18173SOL    HW156673   9.337   4.805   3.320 -0.3260  0.3994  2.3268
18173SOL    HW256674   9.370   4.952   3.305  2.4383 -0.0519  3.4727
18174SOL     OW56675   6.169   7.609   0.622 -0.2506 -0.0641  0.1895
18174SOL    HW156676   6.229   7.647   0.558 -1.4938  0.2875 -0.8036
18174SOL    HW256677   6.088   7.659   0.613 -0.3394  0.3235  2.3887
18175SOL     OW56678   1.339   5.187   3.497  0.0201 -0.0261  0.3900
18175SOL    HW156679   1.269   5.226   3.550 -1.3009 -2.5124  0.6248
18175SOL    HW256680   1.299   5.173   3.411  0.8256  0.1850 -0.0314
18176SOL     OW56681   2.382   2.947   2.644 -0.4421 -0.4794  0.1167
18176SOL    HW156682   2.404   2.877   2.705  1.2064 -0.4566 -0.3936
18176SOL    HW256683   2.286   2.946   2.639 -0.4623 -2.8640 -0.0713
18177SOL     OW56684   4.357   9.232   1.294  0.1634  0.0123 -0.4127
18177SOL    HW156685   4.433   9.214   1.239  1.6861  0.6944  1.3611
18177SOL    HW256686   4.363   9.325   1.315  0.2614 -0.4330  1.7463
18178SOL     OW56687   7.819   3.305   9.489  0.3252  0.3672 -0.4824
18178SOL    HW156688   7.725   3.318   9.473  0.0892 -1.4548 -0.7717
18178SOL    HW256689   7.826   3.286   9.582  0.3738  0.2177 -0.5165
18179SOL     OW56690   6.733   0.484   7.058 -0.4354 -0.1639 -0.2339
18179SOL    HW156691   6.674   0.512   6.988  1.3740  2.0064 -1.0078
18179SOL    HW256692   6.821   0.505   7.025  0.5856 -0.4713  2.1003
18180SOL     OW56693   2.264   6.368   2.267 -0.0340  0.0435 -0.0246
18180SOL    HW156694   2.192   6.316   2.304 -0.5604  0.5723 -0.2881
18180SOL    HW256695   2.339   6.347   2.323  0.2713 -2.4226 -1.2115
18181SOL     OW56696   5.799   1.315   5.603 -0.9967  0.3211 -0.0941
18181SOL    HW156697   5.876   1.293   5.550 -0.1909  0.5143  0.9806
18181SOL    HW256698   5.752   1.232   5.612 -0.3848 -0.0101  0.0862
18182SOL     OW56699   9.211   6.519   6.533  0.6026  0.0818  0.0660
18182SOL    HW156700   9.149   6.454   6.500  1.2121 -0.2728 -0.4087
18182SOL    HW256701   9.207   6.591   6.470 -0.5092  0.7881  0.9090
18183SOL     OW56702   6.294   6.510   5.407 -0.4737  0.6173 -0.3562
18183SOL    HW156703   6.274   6.433   5.354  2.1942 -0.1906 -0.3646
18183SOL    HW256704   6.312   6.475   5.494 -1.0295  1.4655  0.1065
18184SOL     OW56705   3.719   5.848   5.282  0.6089 -0.5852 -0.0335
18184SOL    HW156706   3.804   5.850   5.237  0.4068 -0.5638 -0.4144
18184SOL    HW256707   3.657   5.884   5.218  0.0794 -1.8191 -0.2525
18185SOL     OW56708   9.417   2.166   1.992 -0.1023  0.1283  0.3787
18185SOL    HW156709   9.447   2.133   1.907 -0.4696  0.5199  0.0975
18185SOL    HW256710   9.326   2.137   1.998 -0.1348  0.2673  0.5591
18186SOL     OW56711   8.464   7.381   3.909 -0.4390 -0.0504  0.4000
18186SOL    HW156712   8.438   7.299   3.949 -1.3339 -0.3730 -0.7787
18186SOL    HW256713   8.407   7.447   3.949 -0.2467 -0.1198  0.7882
18187SOL     OW56714   5.160   1.997   7.395 -0.1073  0.6816  0.2941
18187SOL    HW156715   5.236   1.999   7.453 -0.3119  0.7654  0.5614
18187SOL    HW256716   5.097   2.055   7.437 -0.1353  0.9981 -0.1814
18188SOL     OW56717   6.915   1.288   4.313  0.0767  0.3479 -0.2966
18188SOL    HW156718   6.881   1.202   4.337 -0.6070 -0.1560 -2.7483
18188SOL    HW256719   6.973   1.271   4.238  0.5109  1.9406 -0.3595
18189SOL     OW56720   1.207   5.591   3.569  0.9683 -0.6994 -0.2135
18189SOL    HW156721   1.122   5.634   3.559  0.2611 -1.0968  2.9539
18189SOL    HW256722   1.270   5.662   3.564  0.2063  0.0214  0.0963
18190SOL     OW56723   7.955   3.120   1.100 -0.2456 -0.5216 -0.2468
18190SOL    HW156724   7.907   3.164   1.030 -0.6078 -0.7308 -0.1343
18190SOL    HW256725   7.980   3.036   1.062  0.1966 -0.3363 -0.3674
18191SOL     OW56726   2.442   2.544   3.426  0.0615 -1.0719  0.4923
18191SOL    HW156727   2.536   2.526   3.438  0.0121 -1.3480  0.4701
18191SOL    HW256728   2.398   2.481   3.483 -0.1185 -1.0886  0.3358
18192SOL     OW56729   8.220   8.978   9.581 -0.0301 -0.1858 -0.6154
18192SOL    HW156730   8.251   8.909   9.522 -1.8178 -0.1887 -1.6403
18192SOL    HW256731   8.166   9.035   9.525  0.2001  1.2103  0.5193
18193SOL     OW56732   1.533   7.470   1.323  0.2657 -0.0545 -0.6349
18193SOL    HW156733   1.438   7.481   1.329  0.4845  1.7448 -0.1175
18193SOL    HW256734   1.562   7.458   1.414  0.4378 -1.7744 -0.8819
18194SOL     OW56735   5.202   8.721   9.000  0.3990 -0.3090 -0.5320
18194SOL    HW156736   5.130   8.686   8.947 -0.4325  0.0290  0.3474
18194SOL    HW256737   5.194   8.816   8.992 -0.1866 -0.2342  0.7718
18195SOL     OW56738   0.263   4.045   4.338  0.0443 -0.4448 -0.5442
18195SOL    HW156739   0.201   4.107   4.376 -0.7553 -0.4989 -1.7057
18195SOL    HW256740   0.255   3.967   4.392  1.2286  0.4990  1.0754
18196SOL     OW56741   5.711   1.373   3.900  0.0475 -0.2167 -0.5509
18196SOL    HW156742   5.718   1.297   3.843  1.4335 -1.5671  1.2999
18196SOL    HW256743   5.786   1.367   3.958  0.1728  2.5706 -0.2742
18197SOL     OW56744   2.530   4.672   2.765 -0.0074  0.2619  0.2270
18197SOL    HW156745   2.493   4.726   2.696 -1.0131  0.4979  0.9377
18197SOL    HW256746   2.456   4.624   2.801  0.8481 -1.5970 -0.3648
18198SOL     OW56747   5.036   6.558   6.184 -0.6436 -0.0977  0.1229
18198SOL    HW156748   5.045   6.463   6.174 -1.5351 -0.1213 -0.6329
18198SOL    HW256749   4.963   6.581   6.127 -0.5945  1.0165  0.4830
18199SOL     OW56750   0.533   2.068   1.393  0.3231 -0.9484  0.1531
18199SOL    HW156751   0.617   2.056   1.438  0.0104 -1.3295  0.6487
18199SOL    HW256752   0.485   1.987   1.411 -0.4178 -0.4467  0.4538
18200SOL     OW56753   6.141   1.607   2.695 -0.0272  0.1204  0.4666
18200SOL    HW156754   6.129   1.614   2.790  0.8441 -0.3909  0.6232
18200SOL    HW256755   6.089   1.530   2.670  2.0672 -1.5615  1.0109
18201SOL     OW56756   4.876   2.845   2.351 -0.2103 -0.0700 -0.4084
18201SOL    HW156757   4.830   2.802   2.423  1.4330  1.6301  1.8031
18201SOL    HW256758   4.959   2.797   2.344  0.6817  1.2537  0.5737
18202SOL     OW56759   0.305   9.207   4.120 -0.8004 -0.4036  0.1433
18202SOL    HW156760   0.245   9.203   4.195  0.9823  1.4471  1.7787
18202SOL    HW256761   0.285   9.291   4.078  0.8094  0.3925  0.9029
18203SOL     OW56762   7.192   0.487   5.443 -0.2056 -0.0446  0.0684
18203SOL    HW156763   7.266   0.435   5.476  0.0572  0.0541 -0.3548
18203SOL    HW256764   7.219   0.577   5.456  0.7586  0.0543 -2.1772
18204SOL     OW56765   2.244   5.096   7.724  0.4443  0.0867  0.0869
18204SOL    HW156766   2.197   5.179   7.734 -1.2639 -0.8441  0.2105
18204SOL    HW256767   2.320   5.117   7.670 -0.1989  1.6424 -0.2532
18205SOL     OW56768   5.605   5.070   7.585 -0.0160 -0.1745 -0.4576
18205SOL    HW156769   5.683   5.111   7.548 -0.6198  0.0541 -1.5250
18205SOL    HW256770   5.539   5.140   7.585 -0.3023 -0.4381  0.1732
18206SOL     OW56771   7.826   1.375   8.364  0.1525  0.2372 -0.7512
18206SOL    HW156772   7.750   1.420   8.401  0.4371 -1.0554  1.6359
18206SOL    HW256773   7.792   1.330   8.286 -1.2248  0.6704 -0.4282
18207SOL     OW56774   0.976   9.431   3.313 -0.3584  0.5002 -0.3520
18207SOL    HW156775   0.992   9.345   3.351  0.4434  1.8244  2.6161
18207SOL    HW256776   1.064   9.469   3.301 -0.7289  2.0339  1.3746
18208SOL     OW56777   3.529   7.940   9.624  0.1177 -0.3571  0.6179
18208SOL    HW156778   3.579   8.021   9.634  0.9718 -0.2894 -2.8073
18208SOL    HW256779   3.595   7.874   9.603 -0.8785 -1.1238 -0.1797
18209SOL     OW56780   7.899   6.371   6.200  0.1110 -0.3504  0.0580
18209SOL    HW156781   7.962   6.439   6.179  0.7369 -1.1273 -0.6604
18209SOL    HW256782   7.875   6.333   6.115  0.2150 -1.3924  0.4753
18210SOL     OW56783   5.024   3.448   7.260 -0.0509  0.4466 -0.3894
18210SOL    HW156784   5.101   3.439   7.203 -0.0833 -0.0927 -0.3543
18210SOL    HW256785   5.061   3.463   7.347  0.1748 -3.1097  0.2880
18211SOL     OW56786   7.115   1.187   0.094  0.4106  0.1608  0.2215
18211SOL    HW156787   7.072   1.271   0.080 -0.4338 -0.1294  0.9924
18211SOL    HW256788   7.049   1.121   0.070  0.8619 -0.2839  0.1801
18212SOL     OW56789   0.890   1.411   9.045  0.2208  0.4595 -0.4078
18212SOL    HW156790   0.982   1.395   9.065  0.1574  0.4411 -0.1278
18212SOL    HW256791   0.847   1.417   9.130  0.0334  0.8940 -0.5307
18213SOL     OW56792   0.243   4.617   3.795  0.3551 -0.7638 -0.0900
18213SOL    HW156793   0.151   4.635   3.812  0.5047 -1.3007  1.4701
18213SOL    HW256794   0.268   4.679   3.726 -0.7693  0.4666  0.5727
18214SOL     OW56795   7.988   0.819   0.760  0.7763 -0.0004 -0.1630
18214SOL    HW156796   8.073   0.805   0.802  0.6996 -0.2364 -0.0803
18214SOL    HW256797   7.982   0.748   0.695  1.0257  0.5364 -0.7867
18215SOL     OW56798   6.361   4.293   0.731  0.4228  0.5533 -0.3857
18215SOL    HW156799   6.280   4.341   0.745 -1.2008 -1.6853 -1.4255
18215SOL    HW256800   6.400   4.333   0.654  0.3465  1.6847  0.1541
18216SOL     OW56801   7.239   7.742   5.472  0.4882  0.6177  0.6197
18216SOL    HW156802   7.312   7.801   5.451  0.3204  0.6075 -0.0122
18216SOL    HW256803   7.270   7.656   5.444  0.0082  0.7064 -0.2128
18217SOL     OW56804   4.180   7.278   4.627  0.2869 -0.2283  0.3876
18217SOL    HW156805   4.242   7.236   4.568  0.6989  1.0012 -0.0873
18217SOL    HW256806   4.101   7.291   4.574  0.9993  1.7999 -0.2615
18218SOL     OW56807   3.394   2.302   3.860 -0.1910 -0.2118  0.0602
18218SOL    HW156808   3.420   2.390   3.832 -1.8500  0.5467  0.7795
18218SOL    HW256809   3.399   2.306   3.956 -2.7827 -0.0163  0.2538
18219SOL     OW56810   8.859   2.597   2.342  0.1475 -0.1425  0.2604
18219SOL    HW156811   8.862   2.656   2.266 -0.4017  1.5746  1.5060
18219SOL    HW256812   8.767   2.592   2.365  0.4015  0.1902  1.4101
18220SOL     OW56813   6.385   2.504   0.345 -0.2905  0.1095  0.4321
18220SOL    HW156814   6.385   2.411   0.368  1.0899  0.2227  1.0177
18220SOL    HW256815   6.410   2.548   0.427 -1.1777  1.0328  0.2342
18221SOL     OW56816   9.578   8.091   3.820 -0.0971  0.1252 -0.0923
18221SOL    HW156817   9.656   8.137   3.852  0.0053 -0.4846  0.5946
18221SOL    HW256818   9.566   8.020   3.883 -1.0123  0.0047 -0.3886
18222SOL     OW56819   3.507   9.001   7.651 -0.0214 -0.2279 -0.1237
18222SOL    HW156820   3.556   8.920   7.668  2.1078  0.8839 -0.6297
18222SOL    HW256821   3.473   8.989   7.562  2.8162  0.4947 -1.4523
18223SOL     OW56822   1.351   8.649   6.297 -0.1571 -0.3156  0.3161
18223SOL    HW156823   1.291   8.671   6.226  0.4587 -0.9335 -0.4164
18223SOL    HW256824   1.388   8.733   6.325 -1.3914  0.0779  0.8185
18224SOL     OW56825   6.866   8.326   9.358  0.5812  0.2431 -0.0495
18224SOL    HW156826   6.925   8.263   9.318  1.2555  0.9670 -0.2196
18224SOL    HW256827   6.794   8.335   9.295 -0.4761 -1.6942  0.7853
18225SOL     OW56828   8.601   3.313   9.003 -0.6270  0.0641 -0.4691
18225SOL    HW156829   8.575   3.363   9.080  0.1500 -1.1731  0.6492
18225SOL    HW256830   8.547   3.234   9.006 -2.1729  0.9745 -2.4631
18226SOL     OW56831   6.779   4.897   8.591  0.1603  0.8265  0.4817
18226SOL    HW156832   6.793   4.930   8.502  2.2082  2.2560  1.2600
18226SOL    HW256833   6.714   4.955   8.629 -0.3730  0.4995  0.0754
18227SOL     OW56834   6.563   8.289   6.629 -0.5627 -0.1531 -0.2373
18227SOL    HW156835   6.561   8.270   6.536 -0.2265 -2.3304  0.1585
18227SOL    HW256836   6.477   8.327   6.648 -0.7143  0.0929 -1.3703
18228SOL     OW56837   8.535   1.157   8.689  0.0600 -0.9452  0.3901
18228SOL    HW156838   8.511   1.198   8.607 -0.3124  1.3205  1.5653
18228SOL    HW256839   8.605   1.095   8.666 -1.1692 -1.6008 -1.8218
18229SOL     OW56840   3.600   0.888   6.645 -0.1551  0.4350 -0.1313
18229SOL    HW156841   3.638   0.810   6.686  0.3044  0.1415 -1.0929
18229SOL    HW256842   3.627   0.960   6.702 -3.2217 -0.3335  2.6274
18230SOL     OW56843   4.072   6.378   0.924 -0.4131 -0.5976 -0.1439
18230SOL    HW156844   4.075   6.335   0.839  1.6327  1.5970 -1.2769
18230SOL    HW256845   3.998   6.438   0.918 -1.3604 -1.6758  0.3266
18231SOL     OW56846   0.356   5.299   7.460  0.1078 -0.1746  0.1747
18231SOL    HW156847   0.385   5.221   7.413 -0.7864 -0.8728  0.7499
18231SOL    HW256848   0.308   5.266   7.536 -0.1499  0.9304  0.5192
18232SOL     OW56849   6.365   6.689   7.645  0.3780 -0.1963  0.2250
18232SOL    HW156850   6.424   6.762   7.663  2.1554 -1.9169  1.9042
18232SOL    HW256851   6.423   6.613   7.638 -1.2303 -1.3295 -2.9406
18233SOL     OW56852   9.521   4.419   9.007 -0.1547 -0.2666  0.1806
18233SOL    HW156853   9.474   4.355   9.061 -0.4572 -0.6274 -0.4983
18233SOL    HW256854   9.597   4.443   9.060 -0.6279 -0.3526  0.9092
18234SOL     OW56855   9.145   6.743   0.374 -0.5069  0.2580 -0.5100
18234SOL    HW156856   9.213   6.698   0.423  0.2313  0.4367 -1.3535
18234SOL    HW256857   9.064   6.696   0.395  0.0782 -0.7684 -0.5260
18235SOL     OW56858   6.827   7.944   0.151 -0.3665  0.4036  0.7132
18235SOL    HW156859   6.761   7.968   0.087 -0.3480 -1.4234 -0.0543
18235SOL    HW256860   6.909   7.977   0.115 -0.4260 -0.1978 -0.0008
18236SOL     OW56861   8.109   7.372   6.536 -0.5255 -0.0003 -0.4117
18236SOL    HW156862   8.078   7.429   6.466  0.3351  0.0249 -0.7844
18236SOL    HW256863   8.182   7.324   6.497 -0.0666 -0.0215  0.4515
18237SOL     OW56864   9.004   6.727   3.707  0.1055  0.3260 -0.4553
18237SOL    HW156865   9.034   6.817   3.720  0.1869  0.1489  0.7203
18237SOL    HW256866   9.083   6.674   3.722 -0.7499 -0.1846  3.2586
18238SOL     OW56867   4.627   2.431   6.578 -0.1011 -0.2331 -0.0405
18238SOL    HW156868   4.711   2.407   6.617 -0.7286 -2.3370  0.1607
18238SOL    HW256869   4.650   2.489   6.506  1.4953 -0.4544  0.2407
18239SOL     OW56870   8.481   4.781   2.949 -0.3389  0.6568  0.2301
18239SOL    HW156871   8.431   4.857   2.980 -1.7235  0.0582 -0.4646
18239SOL    HW256872   8.424   4.706   2.966  0.8590 -0.2176  0.5711
18240SOL     OW56873   4.178   9.231   7.034 -0.1918  0.2106 -0.1683
18240SOL    HW156874   4.229   9.302   6.997 -0.2015  0.2110 -0.1799
18240SOL    HW256875   4.236   9.190   7.097 -0.1064  0.0831 -0.3292
18241SOL     OW56876   4.107   5.551   4.641  0.2342 -0.2868  0.7607
18241SOL    HW156877   4.096   5.498   4.720  1.5942 -1.6991  0.0647
18241SOL    HW256878   4.090   5.491   4.569  2.0938  0.0938 -0.0664
18242SOL     OW56879   0.550   7.895   9.388  0.6337  0.0174 -0.1169
18242SOL    HW156880   0.490   7.963   9.358  0.3435 -1.3624 -2.9259
18242SOL    HW256881   0.620   7.944   9.433 -1.5346  1.7846  1.5410
18243SOL     OW56882   7.346   7.289   5.553  0.2237 -0.0397  0.5324
18243SOL    HW156883   7.367   7.213   5.608 -0.1252 -1.7434 -1.5101
18243SOL    HW256884   7.291   7.252   5.484  1.8946  1.6076 -1.8296
18244SOL     OW56885   0.629   2.879   3.661  0.2131  0.3975 -0.1708
18244SOL    HW156886   0.697   2.892   3.727 -0.9838  1.7099  0.8599
18244SOL    HW256887   0.563   2.825   3.706 -0.6625  1.3930 -0.2252
18245SOL     OW56888   7.498   5.460   6.541  0.0015  0.5626  0.0345
18245SOL    HW156889   7.480   5.399   6.612  1.7891 -0.6429 -0.4881
18245SOL    HW256890   7.560   5.523   6.578  0.0803  0.5857 -0.1328
18246SOL     OW56891   7.227   6.268   4.668  0.2627 -0.5831  0.4162
18246SOL    HW156892   7.309   6.236   4.706  1.9070  0.3824 -2.0535
18246SOL    HW256893   7.208   6.348   4.716  2.7714  1.1053 -1.1573
18247SOL     OW56894   4.082   1.701   3.974  0.1576 -0.0941  0.2683
18247SOL    HW156895   4.129   1.728   3.895 -0.7100 -0.2569 -0.3265
18247SOL    HW256896   4.138   1.729   4.046  0.3792  1.2126 -0.3694
18248SOL     OW56897   6.347   0.728   9.031 -0.2987  0.0580  0.1983
18248SOL    HW156898   6.396   0.715   9.112  0.1518  1.8734  0.2699
18248SOL    HW256899   6.391   0.802   8.988  0.1002 -1.4704 -2.2101
18249SOL     OW56900   4.971   1.793   8.157  0.4409  0.4157  0.6079
18249SOL    HW156901   5.010   1.706   8.166  0.7120  0.4681 -0.0299
18249SOL    HW256902   5.046   1.853   8.161  0.5414  0.4838 -1.3111
18250SOL     OW56903   6.249   4.391   1.024 -0.2812 -0.1407 -0.4383
18250SOL    HW156904   6.242   4.446   1.101 -1.6085 -1.0833  0.1471
18250SOL    HW256905   6.283   4.449   0.956 -1.6675  1.4167  0.1382
18251SOL     OW56906   7.289   4.514   8.836  0.4673 -0.1393 -0.1711
18251SOL    HW156907   7.379   4.545   8.836  0.4783 -0.1387 -1.2200
18251SOL    HW256908   7.253   4.544   8.753  0.5080 -2.9668 -1.3324
18252SOL     OW56909   2.676   6.576   9.259 -0.0324 -0.6130  0.1016
18252SOL    HW156910   2.636   6.489   9.258 -0.6482 -0.3486 -1.5086
18252SOL    HW256911   2.643   6.617   9.339  0.8564 -2.0938  1.2810
18253SOL     OW56912   4.484   2.370   7.395  0.2103  0.1007  0.3310
18253SOL    HW156913   4.538   2.425   7.452  1.4057 -0.0856 -0.5980
18253SOL    HW256914   4.539   2.295   7.376 -0.5884 -0.3532 -0.2202
18254SOL     OW56915   4.607   4.471   4.637 -0.5235 -0.2301 -0.4655
18254SOL    HW156916   4.581   4.539   4.575  1.0737  0.0352 -0.8840
18254SOL    HW256917   4.664   4.516   4.700 -0.5945 -0.8985  0.0946
18255SOL     OW56918   7.486   9.522   3.266  0.8498 -0.6580 -0.0756
18255SOL    HW156919   7.508   9.499   3.357 -0.5871 -0.0199  0.4519
18255SOL    HW256920   7.493   9.617   3.263 -2.2750 -0.3358  0.2975
18256SOL     OW56921   8.090   3.053   5.243  0.2375 -0.1824 -0.2251
18256SOL    HW156922   8.094   2.992   5.170  0.8558  1.1258 -1.3195
18256SOL    HW256923   8.151   3.017   5.308 -2.4757 -2.9748  1.0364
18257SOL     OW56924   8.308   0.900   2.197  0.4088 -0.8956  0.1921
18257SOL    HW156925   8.287   0.808   2.183 -1.4795 -0.7414  1.6133
18257SOL    HW256926   8.333   0.933   2.111 -0.2279 -2.4122 -0.5921
18258SOL     OW56927   3.513   9.504   8.503  0.3339 -0.2394 -0.0881
18258SOL    HW156928   3.496   9.589   8.543  0.9179  1.0137 -2.3430
18258SOL    HW256929   3.568   9.458   8.567  1.0995  1.5819  0.6395
18259SOL     OW56930   9.110   3.724   1.185 -0.3622 -0.2643  0.0743
18259SOL    HW156931   9.030   3.677   1.162 -0.0616 -1.8520  1.9876
18259SOL    HW256932   9.104   3.739   1.279  0.9968  0.7942  0.0310
18260SOL     OW56933   3.187   8.114   3.112  0.5121  0.6812  0.4480
18260SOL    HW156934   3.107   8.062   3.101  0.6989  0.4662  0.1064
18260SOL    HW256935   3.239   8.095   3.034 -0.2798  2.9467 -0.7123
18261SOL     OW56936   2.952   3.633   7.711  0.0244  0.3259 -0.4290
18261SOL    HW156937   2.973   3.578   7.636  0.2913  0.4618 -0.4547
18261SOL    HW256938   2.947   3.572   7.785  2.8343  0.5159  0.0404
18262SOL     OW56939   2.260   3.509   7.028  0.1503 -0.0784  0.4257
18262SOL    HW156940   2.257   3.416   7.050 -1.0443 -0.2963 -0.5197
18262SOL    HW256941   2.252   3.554   7.112  2.9102 -0.7673  1.1493
18263SOL     OW56942   6.817   1.828   5.390 -0.3721  0.5825 -0.4645
18263SOL    HW156943   6.886   1.858   5.450  0.5338 -1.1826 -0.5682
18263SOL    HW256944   6.863   1.780   5.322 -1.6948 -0.7434 -0.4828
18264SOL     OW56945   6.769   7.704   6.154 -0.3963  0.0548  0.5462
18264SOL    HW156946   6.707   7.772   6.125 -0.7538  0.1024  1.3863
18264SOL    HW256947   6.714   7.639   6.197 -0.0410 -0.7255 -0.1602
18265SOL     OW56948   3.657   9.171   1.745 -0.4168  0.3253  0.3135
18265SOL    HW156949   3.726   9.105   1.732  0.3359  0.6209  2.4811
18265SOL    HW256950   3.702   9.254   1.732 -0.9955  0.4750 -0.8193
18266SOL     OW56951   6.319   5.870   7.574 -0.9350 -0.7267  0.1218
18266SOL    HW156952   6.337   5.933   7.504 -1.0847  0.3871  1.0587
18266SOL    HW256953   6.288   5.792   7.529 -1.6243  0.1776 -1.0251
18267SOL     OW56954   1.236   4.803   7.701  0.3689 -0.1455 -0.4677
18267SOL    HW156955   1.188   4.732   7.660  0.4494 -0.8602  0.6280
18267SOL    HW256956   1.194   4.883   7.669  0.3650 -0.6739 -1.8141
18268SOL     OW56957   6.998   3.230   7.506  0.1941 -0.6176  0.2799
18268SOL    HW156958   7.058   3.201   7.437 -0.0943  0.5408 -0.4953
18268SOL    HW256959   6.917   3.251   7.461  0.3362  1.2070  0.7639
18269SOL     OW56960   0.149   5.646   1.776 -0.4829 -0.3920 -0.4679
18269SOL    HW156961   0.130   5.571   1.720 -1.0451 -0.7024  0.1285
18269SOL    HW256962   0.063   5.679   1.803 -0.2512  0.5932 -0.8801
18270SOL     OW56963   6.667   3.065   6.961  0.1622  0.1802 -0.7898
18270SOL    HW156964   6.583   3.079   7.005 -0.6850 -1.3407 -1.8372
18270SOL    HW256965   6.685   3.148   6.916 -0.6969  0.5776 -0.4169
18271SOL     OW56966   5.322   6.855   7.713 -0.1447 -0.4141  0.2537
18271SOL    HW156967   5.343   6.864   7.806 -0.0127  0.3832  0.1536
18271SOL    HW256968   5.406   6.866   7.668  0.0291 -2.0990  0.0837
18272SOL     OW56969   8.078   3.257   7.783 -0.3610  0.5307  0.3481
18272SOL    HW156970   8.125   3.238   7.864 -1.5798 -0.4098  0.8739
18272SOL    HW256971   8.145   3.253   7.715  0.1502 -2.1116  0.8978
18273SOL     OW56972   3.245   8.591   8.475 -0.2114  0.1928 -0.0374
18273SOL    HW156973   3.236   8.659   8.409  0.4258 -0.2646 -0.6156
18273SOL    HW256974   3.178   8.527   8.452 -1.2090  0.8910  0.8611
18274SOL     OW56975   2.147   9.163   3.919  0.1861  0.4223 -0.0045
18274SOL    HW156976   2.207   9.155   3.993 -1.4181  1.8335  1.5426
18274SOL    HW256977   2.092   9.084   3.925 -0.5373  0.9684  0.9328
18275SOL     OW56978   6.161   5.831   2.371 -0.0335  0.1244 -0.5929
18275SOL    HW156979   6.253   5.816   2.347 -0.2046 -1.3435 -0.3989
18275SOL    HW256980   6.113   5.760   2.328 -1.4435  2.1770 -2.7105
18276SOL     OW56981   4.352   6.589   8.049  0.0562  0.1552  0.2240
18276SOL    HW156982   4.387   6.506   8.017  1.6427  1.2900 -1.1946
18276SOL    HW256983   4.377   6.653   7.982 -1.4912  1.7228  1.0538
18277SOL     OW56984   0.266   3.974   0.814  0.9590  0.0287 -0.0419
18277SOL    HW156985   0.251   4.013   0.900 -1.0198 -2.3833  0.8362
18277SOL    HW256986   0.179   3.972   0.773  1.2779 -1.8385 -0.7054
18278SOL     OW56987   4.642   8.883   9.505  0.1323 -0.1363  0.2041
18278SOL    HW156988   4.722   8.902   9.553 -0.2552 -0.3329  0.9413
18278SOL    HW256989   4.594   8.822   9.561  0.9081 -2.6180 -1.6190
18279SOL     OW56990   3.591   2.377   7.908  0.3685 -0.2866 -0.0078
18279SOL    HW156991   3.615   2.427   7.986  1.1541  0.4682 -0.7082
18279SOL    HW256992   3.583   2.287   7.938  0.5311  0.0151  0.9666
18280SOL     OW56993   0.002   3.105   1.877  0.2577 -0.6091  0.8253
18280SOL    HW156994   0.025   3.018   1.845 -0.2860 -0.9311  1.2842
18280SOL    HW256995   0.048   3.113   1.960  1.3937  0.0892  0.1501
18281SOL     OW56996   9.524   1.394   4.642  0.0497 -0.4650 -0.3980
18281SOL    HW156997   9.432   1.373   4.657 -0.6553  1.1078 -2.1204
18281SOL    HW256998   9.524   1.487   4.621  1.9843 -0.5359 -0.8875
18282SOL     OW56999   4.610   8.520   2.578  0.2333 -0.2462 -0.3900
18282SOL    HW157000   4.652   8.438   2.554 -2.1044 -1.3779 -0.8982
18282SOL    HW257001   4.607   8.519   2.673  1.0562 -0.2891 -0.3614
18283SOL     OW57002   0.804   5.950   6.930 -0.0588  0.2957 -0.3543
18283SOL    HW157003   0.726   6.002   6.914 -2.2342 -2.1122  1.5982
18283SOL    HW257004   0.854   6.001   6.995 -1.3308  0.7152  0.3376
18284SOL     OW57005   2.228   8.092   1.698 -0.4359 -0.3003  0.2042
18284SOL    HW157006   2.211   8.156   1.767 -2.0369  0.8341 -1.1649
18284SOL    HW257007   2.317   8.060   1.716 -0.5757  0.3960  2.3992
18285SOL     OW57008   4.840   3.617   3.845 -0.0448 -0.1032  0.0832
18285SOL    HW157009   4.787   3.697   3.846  0.8880  0.5406 -0.2045
18285SOL    HW257010   4.811   3.569   3.768 -1.7975 -0.8874  1.1786
18286SOL     OW57011   7.915   6.650   3.378 -0.2433 -0.2981 -0.1671
18286SOL    HW157012   7.932   6.598   3.300 -1.6413 -1.4323  0.2311
18286SOL    HW257013   7.911   6.585   3.449 -1.5064  0.3948  0.4227
18287SOL     OW57014   9.278   2.934   7.999  0.0800 -0.5190  0.5213
18287SOL    HW157015   9.327   3.003   7.954  1.3806 -0.2047  2.3115
18287SOL    HW257016   9.206   2.913   7.940 -0.2939  2.2981 -0.1285
18288SOL     OW57017   6.133   8.203   3.859  0.1058 -0.1975  0.4133
18288SOL    HW157018   6.056   8.257   3.878 -0.0661 -0.3586  0.1809
18288SOL    HW257019   6.201   8.265   3.833  0.2568  0.0062  1.2661
18289SOL     OW57020   3.851   2.811   8.179  0.1966 -0.3238  0.4121
18289SOL    HW157021   3.865   2.719   8.197  0.2114 -0.4328 -0.1589
18289SOL    HW257022   3.913   2.833   8.110 -0.1040  0.0057  0.2394
18290SOL     OW57023   1.503   5.755   2.028  0.1205 -0.1761 -0.5080
18290SOL    HW157024   1.540   5.787   2.110  0.3466 -0.9236 -0.3113
18290SOL    HW257025   1.499   5.660   2.039  1.3750 -0.4084 -1.8664
18291SOL     OW57026   9.289   3.426   2.364 -0.8725 -0.0164 -0.0146
18291SOL    HW157027   9.194   3.438   2.368 -1.0443 -1.2383 -0.2500
18291SOL    HW257028   9.303   3.336   2.392  0.0636 -0.4912 -1.9147
18292SOL     OW57029   7.032   3.038   9.611 -0.2378 -0.1821  0.2848
18292SOL    HW157030   7.072   3.089   9.681 -1.4728  1.3771 -0.0827
18292SOL    HW257031   6.996   2.961   9.655 -1.0958  0.8225  1.4031
18293SOL     OW57032   0.352   0.206   6.511  0.0176 -0.0506  0.5657
18293SOL    HW157033   0.432   0.255   6.494 -0.0243 -0.5449 -1.2468
18293SOL    HW257034   0.361   0.176   6.602  2.1437 -0.5702  0.2325
18294SOL     OW57035   0.206   2.076   3.999 -0.3785 -0.5952 -0.5184
18294SOL    HW157036   0.112   2.065   3.982 -1.0282  2.7278  0.3476
18294SOL    HW257037   0.216   2.051   4.091 -1.2882  2.6927  0.5928
18295SOL     OW57038   6.985   0.453   9.134 -0.1309  0.3828  0.5855
18295SOL    HW157039   6.898   0.485   9.159  0.0574  0.5198  1.0708
18295SOL    HW257040   6.984   0.360   9.159 -0.5642  0.0704 -0.5289
18296SOL     OW57041   7.144   1.453   4.361 -0.1109 -0.0114 -0.3056
18296SOL    HW157042   7.048   1.447   4.362 -0.0979 -0.1734 -0.0052
18296SOL    HW257043   7.173   1.372   4.403  0.1189  0.8953  1.3700
18297SOL     OW57044   5.054   7.980   9.350  0.6182  0.7040  0.2626
18297SOL    HW157045   5.134   7.964   9.301  0.4869  0.1387  0.2238
18297SOL    HW257046   5.046   7.905   9.409  0.6582  1.2655  1.0029
18298SOL     OW57047   7.724   4.081   9.208 -0.4212  0.1171 -0.2380
18298SOL    HW157048   7.745   4.118   9.294  0.5136  1.5373 -1.0470
18298SOL    HW257049   7.645   4.030   9.223 -0.1407  0.1281  1.5179
18299SOL     OW57050   0.692   1.471   4.424  0.3910 -0.6858  0.3033
18299SOL    HW157051   0.759   1.453   4.357  0.1108  0.7105 -0.3882
18299SOL    HW257052   0.741   1.507   4.498  0.4591 -0.0810 -0.0333
18300SOL     OW57053   7.190   2.035   4.118 -0.4566  0.0672  0.1335
18300SOL    HW157054   7.181   1.943   4.092  0.6408 -0.1311  0.4133
18300SOL    HW257055   7.278   2.060   4.091  0.4434  0.0993  2.7801
18301SOL     OW57056   6.445   7.271   8.813 -0.4102  0.0647  0.3703
18301SOL    HW157057   6.492   7.267   8.896  0.8116 -1.4482 -0.3454
18301SOL    HW257058   6.419   7.180   8.795  1.2659 -0.0837 -1.8969
18302SOL     OW57059   0.353   9.363   2.218  0.1402  0.1164  0.1638
18302SOL    HW157060   0.436   9.402   2.246 -0.9373  2.1456  0.7118
18302SOL    HW257061   0.347   9.282   2.270  0.6845  1.1399  1.9256
18303SOL     OW57062   1.779   8.112   2.525  0.2480  0.2067 -0.1685
18303SOL    HW157063   1.692   8.115   2.485 -1.3911 -1.2316  2.9099
18303SOL    HW257064   1.807   8.021   2.514 -0.2309 -0.2228  1.6742
18304SOL     OW57065   1.046   2.572   1.025  0.1774 -0.1911 -0.2141
18304SOL    HW157066   0.985   2.635   1.061 -1.5346 -1.9618  0.1543
18304SOL    HW257067   1.131   2.595   1.065 -0.5145  1.4301  0.3959
18305SOL     OW57068   7.699   2.579   8.604 -0.1861 -0.2366  0.3207
18305SOL    HW157069   7.653   2.503   8.569  1.9852 -1.7418  0.5047
18305SOL    HW257070   7.755   2.542   8.674  0.6354  1.5876  0.6761
18306SOL     OW57071   8.221   0.212   7.139  0.1191  0.1158 -0.6537
18306SOL    HW157072   8.157   0.220   7.067  1.3933 -1.2399 -2.0065
18306SOL    HW257073   8.249   0.302   7.156 -1.1387  0.5915 -0.9603
18307SOL     OW57074   1.936   4.626   8.522 -0.3371 -0.7294 -0.5790
18307SOL    HW157075   2.026   4.617   8.551 -0.4592 -1.6483 -0.4839
18307SOL    HW257076   1.934   4.587   8.435 -1.1708 -3.0437  0.4071
18308SOL     OW57077   6.663   7.645   1.599  0.3575  0.0791 -0.1383
18308SOL    HW157078   6.674   7.736   1.573  2.5972 -0.1223 -0.1010
18308SOL    HW257079   6.570   7.637   1.621  0.3239  2.6526  1.0444
18309SOL     OW57080   6.228   8.749   0.626 -0.2774  0.0562 -0.1463
18309SOL    HW157081   6.286   8.707   0.562  0.8955  1.1792  0.1290
18309SOL    HW257082   6.140   8.740   0.588  0.2942 -0.0368 -1.5235
18310SOL     OW57083   6.903   3.268   2.783 -0.1542 -0.1791 -0.1710
18310SOL    HW157084   6.951   3.302   2.858 -0.3164  0.1381 -0.2080
18310SOL    HW257085   6.834   3.215   2.821  0.4928 -1.0045 -0.1287
18311SOL     OW57086   5.767   8.340   7.895  0.0699 -0.2411 -0.6577
18311SOL    HW157087   5.764   8.286   7.975  2.1979  0.4825 -0.0174
18311SOL    HW257088   5.718   8.419   7.917 -0.1653 -0.4600 -0.3945
18312SOL     OW57089   9.245   5.364   6.148  0.0538 -0.0291  0.3069
18312SOL    HW157090   9.295   5.298   6.196  0.4894 -0.5432 -0.8245
18312SOL    HW257091   9.169   5.318   6.115 -0.8459  0.5947  1.4409
18313SOL     OW57092   6.610   8.208   4.327  0.2945 -0.3255  0.3410
18313SOL    HW157093   6.641   8.276   4.267 -1.0234  1.3748  1.5033
18313SOL    HW257094   6.555   8.151   4.273  0.8750 -0.1018 -0.5096
18314SOL     OW57095   4.366   6.065   8.353  0.0886  0.2585 -0.7291
18314SOL    HW157096   4.447   6.076   8.303  0.2722 -1.2440 -0.8183
18314SOL    HW257097   4.393   6.074   8.444  0.3227  0.0129 -0.7711
18315SOL     OW57098   9.363   8.525   7.730 -0.2282 -0.4051 -0.2514
18315SOL    HW157099   9.348   8.442   7.776 -1.2558 -0.6108 -0.9227
18315SOL    HW257100   9.447   8.514   7.686 -0.1072 -0.8798  0.0899
18316SOL     OW57101   4.181   8.542   1.820 -0.5730  0.3225 -0.3283
18316SOL    HW157102   4.147   8.458   1.853 -0.8568 -0.4134 -2.3566
18316SOL    HW257103   4.203   8.525   1.729  1.3493  1.9354 -0.2229
18317SOL     OW57104   5.948   2.748   5.904 -0.2972 -0.3992 -0.1532
18317SOL    HW157105   5.967   2.804   5.980  0.9250 -1.3332  0.2544
18317SOL    HW257106   6.034   2.726   5.868 -0.8668  0.3677 -2.1037
18318SOL     OW57107   0.845   3.925   3.995  0.0571  0.2139  0.4395
18318SOL    HW157108   0.866   3.990   4.062 -0.5702  2.0841 -1.0551
18318SOL    HW257109   0.765   3.958   3.954  0.2162 -1.0410 -0.9826
18319SOL     OW57110   9.057   3.808   6.324 -0.1871 -0.3144  1.0108
18319SOL    HW157111   9.042   3.901   6.337 -1.3991 -0.6081  1.9100
18319SOL    HW257112   9.152   3.800   6.312 -0.1885  1.1512 -0.2965
18320SOL     OW57113   7.441   1.549   2.708  0.4358  0.2384 -0.3482
18320SOL    HW157114   7.423   1.547   2.614  0.3503 -1.9828 -0.3550
18320SOL    HW257115   7.362   1.512   2.748  0.2979  1.5647  0.6561
18321SOL     OW57116   5.836   8.169   2.833  0.2423  0.2669 -0.0754
18321SOL    HW157117   5.922   8.210   2.848  0.3276 -0.0461  0.3075
18321SOL    HW257118   5.803   8.151   2.921 -0.3886  0.7407 -0.2126
18322SOL     OW57119   3.935   1.109   3.118 -0.5669 -0.0655  0.3348
18322SOL    HW157120   3.980   1.170   3.177  2.0765 -0.0207 -1.5324
18322SOL    HW257121   3.894   1.165   3.052 -0.9486 -0.1998  0.4592
18323SOL     OW57122   7.184   7.922   9.111 -0.4864  0.4323  0.4557
18323SOL    HW157123   7.234   7.846   9.080 -2.6007 -0.6584 -0.4541
18323SOL    HW257124   7.191   7.986   9.040 -1.4941 -0.2583 -0.2823
18324SOL     OW57125   3.571   5.455   7.987  0.3878 -0.1782 -0.3158
18324SOL    HW157126   3.499   5.425   8.043 -0.4340  1.6903 -0.2834
18324SOL    HW257127   3.559   5.408   7.905 -1.2664  0.5031 -0.5142
18325SOL     OW57128   8.514   9.438   1.076  0.1685 -0.0201 -0.2827
18325SOL    HW157129   8.527   9.533   1.074  0.1680 -0.0241 -0.4785
18325SOL    HW257130   8.599   9.403   1.102  0.1995  0.0285 -0.3181
18326SOL     OW57131   5.293   7.658   2.025 -0.1085 -0.0539 -0.0218
18326SOL    HW157132   5.215   7.606   2.042  1.1576 -2.0196  0.1005
18326SOL    HW257133   5.313   7.699   2.109 -0.1880 -0.7467  0.3470
18327SOL     OW57134   3.646   6.048   5.101 -0.0899  0.1366  0.3278
18327SOL    HW157135   3.558   6.072   5.069 -0.2921 -0.3533  0.5122
18327SOL    HW257136   3.679   6.129   5.141 -0.1745  0.5191 -0.3500
18328SOL     OW57137   4.567   1.117   6.859  0.0577 -0.3394 -0.0109
18328SOL    HW157138   4.568   1.205   6.895 -0.0329 -0.0805 -0.6402
18328SOL    HW257139   4.611   1.124   6.775  3.1767 -1.5580  1.3779
18329SOL     OW57140   3.322   1.998   9.614  0.0544  0.5522 -0.2504
18329SOL    HW157141   3.393   2.062   9.619 -0.8997  1.5494  2.2372
18329SOL    HW257142   3.275   2.021   9.534 -0.1289  2.8829  0.4566
18330SOL     OW57143   2.023   7.818   0.743 -0.1504 -0.1101 -0.3496
18330SOL    HW157144   2.110   7.778   0.730 -1.1580 -1.6226 -3.1366
18330SOL    HW257145   2.035   7.910   0.719  0.8279 -0.0943  0.1264
18331SOL     OW57146   4.343   5.975   6.570  0.7286  0.3000 -0.5764
18331SOL    HW157147   4.332   5.880   6.567  0.9054  0.3060 -1.3763
18331SOL    HW257148   4.391   5.998   6.491 -1.6668  1.3575 -1.8390
18332SOL     OW57149   2.631   0.391   7.059  0.1633 -0.3321  0.8711
18332SOL    HW157150   2.632   0.485   7.040  2.3831 -0.3135  0.7982
18332SOL    HW257151   2.700   0.354   7.004 -1.7202 -2.3310 -0.3558
18333SOL     OW57152   7.782   2.428   8.837  0.5546  0.1375 -0.2647
18333SOL    HW157153   7.696   2.449   8.874  1.1355 -0.5313  1.5647
18333SOL    HW257154   7.762   2.368   8.765 -0.6011  1.2640 -0.9236
18334SOL     OW57155   8.797   4.545   7.997 -0.5407 -0.1235 -0.1621
18334SOL    HW157156   8.810   4.486   8.072  1.5789  0.1237 -0.2760
18334SOL    HW257157   8.863   4.518   7.933 -0.3529  1.5543 -0.7314
18335SOL     OW57158   2.666   5.698   4.609 -0.1952 -0.1898  0.0443
18335SOL    HW157159   2.628   5.746   4.536 -0.7005  0.1527  0.5214
18335SOL    HW257160   2.703   5.620   4.570 -0.4418  0.0008 -0.5809
18336SOL     OW57161   6.946   5.142   3.573  0.1979  0.2200  0.0985
18336SOL    HW157162   6.904   5.199   3.638 -0.7076 -1.5270  1.1296
18336SOL    HW257163   6.916   5.176   3.489 -1.2192  0.6053  0.7289
18337SOL     OW57164   4.834   7.541   1.772  0.1346 -0.6996 -0.4060
18337SOL    HW157165   4.800   7.561   1.685 -2.0513 -0.8429  0.3415
18337SOL    HW257166   4.886   7.461   1.760  0.2958 -0.4196 -1.6563
18338SOL     OW57167   6.689   3.702   7.445  0.8974  0.1465  0.2813
18338SOL    HW157168   6.626   3.632   7.463  2.4152 -1.5697 -0.7577
18338SOL    HW257169   6.639   3.768   7.399 -0.4498 -0.5175  0.7395
18339SOL     OW57170   1.252   7.832   3.930 -0.0787 -0.8107  0.4146
18339SOL    HW157171   1.340   7.805   3.903  0.6494 -0.3350  2.2041
18339SOL    HW257172   1.265   7.879   4.012 -2.1448 -1.9772  1.4864
18340SOL     OW57173   4.933   0.894   4.496 -0.0261 -0.1188  0.3521
18340SOL    HW157174   4.936   0.987   4.518  0.8681 -0.2063  0.6106
18340SOL    HW257175   4.925   0.893   4.400 -3.0078  0.2450  0.5087
18341SOL     OW57176   0.113   0.180   7.136 -0.1298  0.5955 -0.0715
18341SOL    HW157177   0.070   0.225   7.064 -1.0370 -0.8316 -0.4560
18341SOL    HW257178   0.154   0.104   7.096 -0.6783 -0.2431  0.9102
18342SOL     OW57179   9.275   1.196   4.544  0.2344 -0.2530 -0.1007
18342SOL    HW157180   9.357   1.150   4.526 -1.1107 -2.8507 -0.1533
18342SOL    HW257181   9.257   1.247   4.465  0.2469 -2.2394 -1.4734
18343SOL     OW57182   0.886   3.984   1.240 -0.2204  0.5566  0.0750
18343SOL    HW157183   0.947   4.011   1.308 -0.5434 -0.6137  0.8604
18343SOL    HW257184   0.897   3.889   1.235 -0.2211  0.6228 -1.5030
18344SOL     OW57185   5.106   5.516   3.730  0.2774  0.0023 -0.5853
18344SOL    HW157186   5.126   5.609   3.731  1.7870 -0.2607 -1.9052
18344SOL    HW257187   5.049   5.503   3.655  1.1111 -0.2940 -1.1874
18345SOL     OW57188   5.291   9.055   6.578  0.5514 -1.0179  0.2478
18345SOL    HW157189   5.212   9.109   6.577  0.9105 -0.4419 -1.5374
18345SOL    HW257190   5.352   9.100   6.519  2.5108 -1.0527  2.1395
18346SOL     OW57191   8.220   9.444   0.991 -0.1363  0.0277 -0.1202
18346SOL    HW157192   8.287   9.480   1.048 -1.5414  0.1841  1.5181
18346SOL    HW257193   8.266   9.379   0.938  1.5686  1.1247 -0.0708
18347SOL     OW57194   4.508   5.450   3.230 -0.4525  0.2887  0.4046
18347SOL    HW157195   4.563   5.450   3.152 -0.9203 -0.5639  0.0652
18347SOL    HW257196   4.508   5.542   3.259 -0.0421  0.5586 -0.4214
18348SOL     OW57197   3.054   1.687   7.717 -0.2136  0.1035  0.1997
18348SOL    HW157198   3.081   1.631   7.644  1.1228  0.7424  0.1890
18348SOL    HW257199   3.128   1.746   7.731 -1.3489  1.4698  0.6192
18349SOL     OW57200   0.342   1.843   1.165 -0.2845  0.0536  0.6447
18349SOL    HW157201   0.321   1.856   1.258 -0.8823  1.1695  0.3660
18349SOL    HW257202   0.434   1.865   1.158 -0.2478  0.0096  0.9563
18350SOL     OW57203   0.686   4.753   7.144  0.4573  0.0270 -0.2803
18350SOL    HW157204   0.773   4.720   7.163  0.6082  1.8469  3.0667
18350SOL    HW257205   0.627   4.687   7.180  0.6274  0.5240  0.9927
18351SOL     OW57206   4.087   3.454   2.168 -0.0672  0.0419 -0.2194
18351SOL    HW157207   4.142   3.521   2.127  1.7989 -0.9974  0.4842
18351SOL    HW257208   4.147   3.382   2.187 -2.1583 -2.2512 -1.7254
18352SOL     OW57209   2.488   3.391   3.309 -0.0244  0.4144 -0.3227
18352SOL    HW157210   2.454   3.470   3.266  2.2257  2.7949  1.9234
18352SOL    HW257211   2.582   3.391   3.290 -0.1080 -2.6233 -1.3915
18353SOL     OW57212   0.356   1.776   4.748  0.4284  0.2664  0.0652
18353SOL    HW157213   0.265   1.747   4.754  0.2371  0.5356 -1.2843
18353SOL    HW257214   0.404   1.717   4.806 -0.3564 -0.9509 -0.4897
18354SOL     OW57215   7.087   3.234   1.981 -0.5404 -0.1171  0.1799
18354SOL    HW157216   7.033   3.164   1.945  1.7595 -2.0208  0.1480
18354SOL    HW257217   7.086   3.220   2.075 -0.8235  0.4063  0.2594
18355SOL     OW57218   9.031   0.414   8.877 -0.5640  0.0164  0.0941
18355SOL    HW157219   8.948   0.393   8.921 -0.0206  0.5004  1.3999
18355SOL    HW257220   9.098   0.376   8.933  0.1153 -0.0591 -0.7673
18356SOL     OW57221   8.047   4.674   9.466  0.0227  0.6579 -0.6610
18356SOL    HW157222   8.072   4.618   9.539  1.2551 -0.2663 -1.7385
18356SOL    HW257223   7.960   4.707   9.489  0.4280  0.4822  1.2433
18357SOL     OW57224   3.996   1.297   4.404  0.4228 -0.0022 -0.2933
18357SOL    HW157225   4.003   1.239   4.329 -0.0968  0.3092 -0.5922
18357SOL    HW257226   3.913   1.343   4.391  0.3295  0.0574  0.4697
18358SOL     OW57227   9.310   7.989   4.440  0.3190  0.0676  0.4689
18358SOL    HW157228   9.346   7.986   4.351 -0.1480  1.1398  0.2202
18358SOL    HW257229   9.243   8.057   4.435 -0.7769 -0.9288  1.2639
18359SOL     OW57230   8.060   5.538   2.143  0.2332 -0.3244 -0.7105
18359SOL    HW157231   8.013   5.456   2.128 -2.3651  0.9608 -0.1670
18359SOL    HW257232   8.048   5.588   2.062 -0.4164  0.4715 -0.1530
18360SOL     OW57233   4.453   8.035   2.532 -0.1387  0.0217 -0.1956
18360SOL    HW157234   4.496   8.084   2.602  0.7861 -0.2447 -0.5507
18360SOL    HW257235   4.477   8.082   2.452 -3.3255  1.8822 -0.2033
18361SOL     OW57236   2.458   1.397   4.753  0.4293  0.0821 -0.2909
18361SOL    HW157237   2.542   1.387   4.799 -0.7432 -1.4226  1.7087
18361SOL    HW257238   2.400   1.436   4.819 -1.0471 -1.1161 -0.8367
18362SOL     OW57239   0.921   0.326   0.304 -0.6131  0.2241 -0.0178
18362SOL    HW157240   0.853   0.307   0.368 -0.7056  4.2679  1.3395
18362SOL    HW257241   1.002   0.296   0.344 -1.0540 -0.2886  0.4946
18363SOL     OW57242   2.526   9.256   6.254  0.3810  0.0656 -0.2559
18363SOL    HW157243   2.590   9.286   6.190 -1.3304 -0.8897 -2.5633
18363SOL    HW257244   2.555   9.168   6.277  0.3855 -0.0321 -0.6269
18364SOL     OW57245   6.912   7.011   4.247 -0.3010  0.0213 -0.0879
18364SOL    HW157246   6.890   7.062   4.169  0.2232  0.7084  0.2040
18364SOL    HW257247   6.860   6.931   4.238 -2.2621  1.2030  0.1671
18365SOL     OW57248   6.292   7.326   6.168 -0.3569 -0.2695 -0.0304
18365SOL    HW157249   6.344   7.249   6.144 -0.1865 -0.8998  2.1323
18365SOL    HW257250   6.324   7.395   6.110  0.5642 -1.4490 -0.9927
18366SOL     OW57251   8.157   8.735   1.365 -0.2003  0.0235 -0.1537
18366SOL    HW157252   8.066   8.721   1.391 -0.0401 -0.4416  0.1658
18366SOL    HW257253   8.170   8.677   1.289 -0.4974  0.9468 -0.9271
18367SOL     OW57254   8.692   4.163   6.523  0.0476 -0.1070  0.1774
18367SOL    HW157255   8.706   4.257   6.534  0.3421 -0.1942  0.5673
18367SOL    HW257256   8.631   4.157   6.450  0.7617  0.3482 -0.4829
18368SOL     OW57257   8.902   2.833   8.096 -0.4692  0.0044  0.1860
18368SOL    HW157258   8.872   2.805   8.009 -1.0495  0.3573  0.2664
18368SOL    HW257259   8.977   2.777   8.115 -1.1107 -0.9455 -0.0014
18369SOL     OW57260   4.751   8.946   7.499 -0.5749  0.0129 -0.1093
18369SOL    HW157261   4.745   8.854   7.524  1.3733 -0.0840  0.1213
18369SOL    HW257262   4.789   8.945   7.411  0.5485  0.6106  0.3529
18370SOL     OW57263   3.286   4.736   6.864  0.1146 -0.5156  0.0292
18370SOL    HW157264   3.332   4.662   6.826 -0.1874 -1.2235  0.9969
18370SOL    HW257265   3.355   4.788   6.906  0.4528  0.2873 -1.4413
18371SOL     OW57266   0.023   3.219   2.459 -0.5401 -0.3584 -0.3603
18371SOL    HW157267   0.107   3.214   2.413 -0.2987 -1.0691  0.1396
18371SOL    HW257268   0.046   3.242   2.548 -1.0663  1.7980 -0.7394
18372SOL     OW57269   6.197   8.461   3.639  0.0826 -0.9842  0.3558
18372SOL    HW157270   6.199   8.412   3.557  0.3497 -0.2035 -0.1129
18372SOL    HW257271   6.288   8.460   3.670 -0.4198 -3.4979  2.0127
18373SOL     OW57272   5.425   0.026   5.743 -0.0186 -0.2106  0.0964
18373SOL    HW157273   5.412  -0.067   5.724  1.7442 -0.6199  0.7105
18373SOL    HW257274   5.508   0.030   5.790  0.9379  1.8698 -1.5776
18374SOL     OW57275   3.512   9.393   2.791  0.1789  0.0935 -0.0265
18374SOL    HW157276   3.447   9.359   2.853  1.3868 -0.1173  1.1898
18374SOL    HW257277   3.465   9.460   2.742 -1.3131 -0.9467 -0.1100
18375SOL     OW57278   7.830   2.210   9.531 -0.2719  0.3682  0.3135
18375SOL    HW157279   7.858   2.286   9.582  0.8788  0.1142  0.0970
18375SOL    HW257280   7.906   2.189   9.476 -0.9174 -0.3451 -0.3367
18376SOL     OW57281   2.304   0.791   4.712 -0.2856 -0.8752  0.3058
18376SOL    HW157282   2.282   0.865   4.654  0.3648  0.4271  1.6467
18376SOL    HW257283   2.350   0.729   4.655  0.6534  0.5146 -0.5298
18377SOL     OW57284   0.667   1.017   0.726 -0.2558 -0.4078  0.1814
18377SOL    HW157285   0.706   0.934   0.753 -1.5841 -1.0549  0.1836
18377SOL    HW257286   0.718   1.084   0.772  0.7992 -1.2151  0.2211
18378SOL     OW57287   4.693   5.941   7.963 -0.1626  0.4479 -0.0415
18378SOL    HW157288   4.678   5.999   8.038  1.0197 -1.7084  1.9821
18378SOL    HW257289   4.605   5.912   7.938 -0.5584  1.0648  0.5756
18379SOL     OW57290   7.104   2.518   1.220  0.1838  0.1199  0.2850
18379SOL    HW157291   7.166   2.453   1.185  0.7248  0.2506  0.9784
18379SOL    HW257292   7.146   2.552   1.299 -0.8460  0.1058  0.8620
18380SOL     OW57293   4.902   8.244   8.644  0.3937  0.6090  0.3410
18380SOL    HW157294   4.902   8.271   8.736 -0.7519  0.7654  0.3106
18380SOL    HW257295   4.832   8.178   8.639  0.3947  0.6599 -0.4300
18381SOL     OW57296   4.773   2.892   7.586  0.3327 -0.1394 -0.1594
18381SOL    HW157297   4.853   2.920   7.629  0.0349 -1.2238  1.1690
18381SOL    HW257298   4.703   2.941   7.631  0.0049 -1.4019  0.7448
18382SOL     OW57299   5.980   4.331   7.016 -0.6550  0.9907  0.2149
18382SOL    HW157300   5.923   4.391   6.969 -1.5262 -0.0772 -0.1234
18382SOL    HW257301   5.922   4.265   7.054  0.4076 -1.1475 -1.5955
18383SOL     OW57302   8.449   4.282   3.771 -0.9116  0.6323 -0.0752
18383SOL    HW157303   8.416   4.366   3.805 -0.6132  0.5345  0.4763
18383SOL    HW257304   8.422   4.218   3.836 -0.8897  0.3419 -0.3529
18384SOL     OW57305   8.778   3.472   2.093  0.3407 -0.2667 -0.3605
18384SOL    HW157306   8.788   3.410   2.021  0.5245  0.4961 -0.9972
18384SOL    HW257307   8.764   3.557   2.051  0.4041  0.1833  0.4989
18385SOL     OW57308   5.997   5.915   2.036  0.1460  0.5927  0.1435
18385SOL    HW157309   5.961   5.828   2.020  1.0293  0.3501 -0.5848
18385SOL    HW257310   6.065   5.926   1.969  0.5157  1.5633  0.6560
18386SOL     OW57311   4.299   0.145   6.622  0.2379 -0.4483 -0.1333
18386SOL    HW157312   4.238   0.112   6.687  1.1385 -0.3029  0.8154
18386SOL    HW257313   4.384   0.147   6.667  0.7395  0.3890 -1.0629
18387SOL     OW57314   2.408   2.731   2.804  0.7353 -0.2196 -0.3584
18387SOL    HW157315   2.334   2.711   2.860  1.7995  1.2513  1.7110
18387SOL    HW257316   2.483   2.690   2.848  1.5102  0.4659 -1.0087
18388SOL     OW57317   2.359   5.670   8.145 -0.1342 -0.3644  0.5338
18388SOL    HW157318   2.413   5.748   8.131 -0.4700 -0.3492 -0.8367
18388SOL    HW257319   2.271   5.704   8.161 -0.1390 -0.4402  0.6678
18389SOL     OW57320   2.962   6.014   7.451  0.4848 -0.6057 -0.0148
18389SOL    HW157321   2.976   5.981   7.363 -1.8172 -1.7599  0.0022
18389SOL    HW257322   2.937   5.937   7.502  2.1233 -0.0429  1.7935
18390SOL     OW57323   3.720   7.822   7.236 -0.2167  0.3458  0.8934
18390SOL    HW157324   3.708   7.729   7.256  0.2684  0.0246 -0.2098
18390SOL    HW257325   3.631   7.857   7.232 -0.4930 -0.4201 -0.1591
18391SOL     OW57326   8.618   1.889   3.901  0.3569  0.2800  0.3618
18391SOL    HW157327   8.609   1.886   3.806  1.3594  0.1220  0.2678
18391SOL    HW257328   8.708   1.918   3.916  1.1610 -2.4130  1.2328
18392SOL     OW57329   8.056   0.670   5.554  0.7478  0.0472  0.3508
18392SOL    HW157330   8.080   0.596   5.608  0.9091 -0.6223 -0.6146
18392SOL    HW257331   7.971   0.646   5.516 -0.1780  1.2238  1.5927
18393SOL     OW57332   5.595   7.112   5.421 -0.3828  0.0017 -0.4330
18393SOL    HW157333   5.547   7.078   5.497  1.4996 -1.6121  0.1341
18393SOL    HW257334   5.601   7.037   5.362  2.3790 -0.2860  0.0611
18394SOL     OW57335   3.135   6.219   2.691 -0.0698  0.0609  0.1981
18394SOL    HW157336   3.117   6.259   2.776 -0.0986  0.9914 -0.2331
18394SOL    HW257337   3.149   6.294   2.632  0.4529 -0.5786 -0.5019
18395SOL     OW57338   1.375   3.246   8.204 -0.6976 -0.1133 -0.2462
18395SOL    HW157339   1.300   3.300   8.227  0.6444  1.8195 -0.1756
18395SOL    HW257340   1.433   3.305   8.156  0.1778 -1.9144 -1.5281
18396SOL     OW57341   7.379   7.798   7.950  0.2025 -0.4935 -0.1060
18396SOL    HW157342   7.426   7.795   8.034 -0.6991 -2.2852  0.3912
18396SOL    HW257343   7.318   7.872   7.960 -0.3986 -1.1135  1.1373
18397SOL     OW57344   0.628   8.323   5.420  0.5804  0.2431  0.4290
18397SOL    HW157345   0.614   8.267   5.496 -1.6340  0.5349  0.3251
18397SOL    HW257346   0.719   8.352   5.427  0.5058  0.0870  2.8364
18398SOL     OW57347   4.876   6.884   1.631 -0.8462  0.1968 -0.4183
18398SOL    HW157348   4.871   6.967   1.679 -2.3686 -0.5335  0.7461
18398SOL    HW257349   4.785   6.857   1.619 -0.3739 -1.4795 -0.4743
18399SOL     OW57350   2.486   6.403   7.466  0.1688  0.6900  0.0486
18399SOL    HW157351   2.505   6.309   7.471  2.4226  0.8824 -2.4981
18399SOL    HW257352   2.400   6.408   7.425  0.7086 -0.3273 -1.3070
18400SOL     OW57353   3.771   8.286   4.226 -0.0459  0.3174  0.4313
18400SOL    HW157354   3.821   8.298   4.145 -0.2815  0.7027  0.3411
18400SOL    HW257355   3.786   8.195   4.249  2.7933  1.0280  1.8049
18401SOL     OW57356   9.030   2.061   7.161 -0.1411 -0.3662 -0.0932
18401SOL    HW157357   8.986   1.976   7.156  0.4986 -1.1242  3.7216
18401SOL    HW257358   8.962   2.121   7.191 -0.2537  0.2010 -1.4238
18402SOL     OW57359   8.472   9.371   3.932  0.2054 -0.1208  0.6614
18402SOL    HW157360   8.379   9.348   3.931  0.2470 -0.2926  0.2369
18402SOL    HW257361   8.490   9.398   4.022  0.0434 -1.3121  1.0684
18403SOL     OW57362   0.291   2.388   8.398  0.1871 -0.0620  0.1347
18403SOL    HW157363   0.292   2.383   8.493 -0.3989 -2.5078  0.0948
18403SOL    HW257364   0.383   2.376   8.373  0.2831  0.1594  0.3748
18404SOL     OW57365   3.348   5.711   2.919  0.1639 -0.5866  0.1656
18404SOL    HW157366   3.314   5.653   2.851  0.5750 -1.3655  0.5996
18404SOL    HW257367   3.328   5.665   3.001 -0.2746  0.3110  0.5727
18405SOL     OW57368   4.639   2.317   6.256  0.2289  0.1099  0.2846
18405SOL    HW157369   4.582   2.367   6.314  1.5878  1.1506  0.8071
18405SOL    HW257370   4.679   2.384   6.200 -2.2152 -0.9753 -3.0433
18406SOL     OW57371   1.972   4.586   0.560  0.0342  0.1332  0.0212
18406SOL    HW157372   2.011   4.498   0.561 -1.9103 -0.7825  0.3015
18406SOL    HW257373   2.045   4.644   0.540  2.0628 -1.1789  2.9012
18407SOL     OW57374   2.262   6.475   4.748 -0.0497  0.1996 -0.2061
18407SOL    HW157375   2.337   6.510   4.701 -1.0500  0.8164 -1.4052
18407SOL    HW257376   2.252   6.533   4.824  0.5910  0.1935 -0.1105
18408SOL     OW57377   8.910   3.969   9.052  0.0751 -0.3028  0.3159
18408SOL    HW157378   8.964   4.041   9.018 -2.6873  2.8694  2.0718
18408SOL    HW257379   8.960   3.934   9.125  2.3586 -1.6903 -1.7445
18409SOL     OW57380   1.706   6.537   6.540 -0.0436 -0.0984  0.4072
18409SOL    HW157381   1.770   6.582   6.485 -0.2429 -0.3069  0.0030
18409SOL    HW257382   1.684   6.457   6.492  0.0562 -0.4628  0.9664
18410SOL     OW57383   9.196   8.948   2.650  0.5150 -0.0482  0.1775
18410SOL    HW157384   9.140   8.877   2.684 -0.0910  0.7416  0.8624
18410SOL    HW257385   9.266   8.956   2.713  2.0740 -1.7657 -1.2237
18411SOL     OW57386   4.839   1.425   2.749  0.5392  0.4607 -0.0188
18411SOL    HW157387   4.844   1.335   2.779  1.2448 -0.1399 -1.8178
18411SOL    HW257388   4.746   1.448   2.757  0.2467 -0.6341 -0.0908
18412SOL     OW57389   9.133   5.674   4.108  0.4579  0.2327  0.2520
18412SOL    HW157390   9.206   5.682   4.170  0.8456 -0.2241 -0.1392
18412SOL    HW257391   9.174   5.657   4.024 -0.1148 -0.8146  0.1657
18413SOL     OW57392   9.418   4.624   7.406  0.1932 -0.5492 -0.0027
18413SOL    HW157393   9.459   4.571   7.337  0.5421 -0.1271 -0.1246
18413SOL    HW257394   9.353   4.566   7.445  1.3671 -1.4667  0.6549
18414SOL     OW57395   2.622   2.326   4.808  0.1033  0.3060 -0.9387
18414SOL    HW157396   2.677   2.305   4.884 -0.1352  0.4650 -0.7190
18414SOL    HW257397   2.563   2.395   4.839  0.3617  0.7515 -1.4274
18415SOL     OW57398   5.718   6.630   2.258  0.3670 -0.0268 -0.2033
18415SOL    HW157399   5.801   6.600   2.296  0.3833 -0.2956 -0.4498
18415SOL    HW257400   5.743   6.699   2.197  0.4090 -0.0963 -0.2652
18416SOL     OW57401   1.092   7.006   3.528 -0.1109 -0.2219  0.3902
18416SOL    HW157402   1.181   7.009   3.494 -0.1455 -0.9514  0.2214
18416SOL    HW257403   1.079   7.091   3.569  0.2448  0.3323 -0.6189
18417SOL     OW57404   5.433   5.004   2.698  0.0802  0.0372 -0.5817
18417SOL    HW157405   5.501   5.004   2.630  0.0831  1.1029 -0.5989
18417SOL    HW257406   5.379   5.080   2.678 -0.5616 -0.2517 -0.0038
18418SOL     OW57407   9.485   3.044   7.844 -0.2464  0.2063 -0.2786
18418SOL    HW157408   9.563   3.014   7.798  1.2022  0.1427  2.0835
18418SOL    HW257409   9.456   3.121   7.795  0.9714 -0.0717 -1.4971
18419SOL     OW57410   3.058   9.532   6.637  0.2876  0.2683  0.3321
18419SOL    HW157411   3.063   9.454   6.582  2.9389 -0.2085  1.1033
18419SOL    HW257412   3.107   9.598   6.589 -1.8201  1.5061 -0.2492
18420SOL     OW57413   8.282   6.774   3.364 -0.3016 -0.0863 -0.0869
18420SOL    HW157414   8.289   6.686   3.401 -1.6917 -0.2372 -0.1395
18420SOL    HW257415   8.245   6.760   3.277  0.6232  0.4722 -0.5855
18421SOL     OW57416   2.566   8.292   2.089 -0.3405  0.2433 -0.3140
18421SOL    HW157417   2.536   8.381   2.070  0.4383  0.7637  0.8091
18421SOL    HW257418   2.488   8.248   2.122 -1.0559  0.0947 -2.0880
18422SOL     OW57419   8.362   4.724   0.837 -0.6492  0.0532  0.2060
18422SOL    HW157420   8.449   4.741   0.802  0.0771 -1.7519  1.0123
18422SOL    HW257421   8.355   4.781   0.914 -0.3006  0.3834 -0.0023
18423SOL     OW57422   0.836   3.865   7.925  0.4045  0.4936 -0.0366
18423SOL    HW157423   0.781   3.823   7.859 -2.3248  1.9948  1.0735
18423SOL    HW257424   0.892   3.795   7.958  0.4569 -0.7320 -2.5090
18424SOL     OW57425   1.820   9.359   8.633 -0.1997 -0.3535  0.2056
18424SOL    HW157426   1.854   9.417   8.701  0.0480 -1.8000  1.3579
18424SOL    HW257427   1.729   9.344   8.659 -0.3717 -0.1872 -0.2956
18425SOL     OW57428   8.095   3.813   5.687  0.1207  0.0328  0.8679
18425SOL    HW157429   8.065   3.722   5.693  2.6778 -0.9859 -0.4418
18425SOL    HW257430   8.034   3.854   5.625  0.9294 -1.7741 -1.2641
18426SOL     OW57431   7.678   0.249   8.362  0.3528 -0.1136  0.4641
18426SOL    HW157432   7.656   0.158   8.381  1.7901 -0.8333 -1.1030
18426SOL    HW257433   7.606   0.281   8.308  1.2282 -1.2925 -1.4928
18427SOL     OW57434   3.467   9.178   7.137 -0.1727  0.1181  0.9153
18427SOL    HW157435   3.454   9.244   7.070  1.9852 -0.0722  0.2480
18427SOL    HW257436   3.477   9.096   7.089 -0.6266 -0.3509  1.5979
18428SOL     OW57437   5.646   3.204   6.587 -0.1447 -1.2344  0.2049
18428SOL    HW157438   5.698   3.190   6.507  1.7089  3.0320  0.3980
18428SOL    HW257439   5.712   3.222   6.655 -1.6524  2.8464  0.8317
18429SOL     OW57440   4.513   4.089   3.492  0.6321  0.0959 -0.2792
18429SOL    HW157441   4.494   4.169   3.443  1.1491 -0.0156 -0.6773
18429SOL    HW257442   4.592   4.054   3.450  2.2969  1.0506  1.9052
18430SOL     OW57443   9.537   0.336   5.623  0.3463 -0.3029 -0.1008
18430SOL    HW157444   9.472   0.345   5.693  0.1864  0.1693 -0.3080
18430SOL    HW257445   9.500   0.269   5.565  0.2076 -0.2831 -0.0363
18431SOL     OW57446   5.562   8.309   4.286 -0.0445 -0.1533  0.4237
18431SOL    HW157447   5.628   8.243   4.265  1.3198  1.5514 -0.9750
18431SOL    HW257448   5.553   8.305   4.381  1.3116 -1.1286  0.5408
18432SOL     OW57449   6.974   7.554   6.541  0.0518  0.1444  0.3442
18432SOL    HW157450   6.926   7.484   6.495 -0.3283  0.4255  0.3043
18432SOL    HW257451   7.008   7.512   6.619 -0.4000 -0.0275  0.4569
18433SOL     OW57452   8.163   8.807   0.530 -0.3065 -0.5002 -0.2078
18433SOL    HW157453   8.220   8.744   0.573  1.9066  1.2547 -0.4163
18433SOL    HW257454   8.087   8.813   0.589  0.5870 -1.4665  1.1057
18434SOL     OW57455   2.023   2.110   7.646  0.3758  0.0370 -0.1179
18434SOL    HW157456   1.935   2.073   7.641 -0.2103  1.1665  0.9043
18434SOL    HW257457   2.075   2.044   7.692 -0.0606 -0.4412 -0.3084
18435SOL     OW57458   1.998   6.142   6.401 -0.1521 -0.0478  0.2308
18435SOL    HW157459   1.951   6.067   6.364  0.3752 -0.4157  0.2901
18435SOL    HW257460   1.929   6.201   6.431 -0.5754 -0.2481 -0.3382
18436SOL     OW57461   1.875   9.492   9.490 -0.5779 -0.3317  0.0761
18436SOL    HW157462   1.877   9.532   9.577  0.1811 -0.1450 -0.0244
18436SOL    HW257463   1.965   9.497   9.458 -0.6082 -1.4245 -0.2563
18437SOL     OW57464   8.077   4.669   4.916  0.3383  0.0839 -0.5667
18437SOL    HW157465   8.009   4.735   4.902  0.5183  0.1685 -1.0668
18437SOL    HW257466   8.033   4.597   4.961 -0.6554 -0.8396 -2.8552
18438SOL     OW57467   0.698   6.276   3.048  0.3480  0.1617  0.2840
18438SOL    HW157468   0.747   6.356   3.063  0.2067  0.2168  0.4512
18438SOL    HW257469   0.618   6.305   3.003  0.2089  0.1382  0.5134
18439SOL     OW57470   1.874   3.493   6.507  0.1549  0.0324  0.0409
18439SOL    HW157471   1.809   3.562   6.518  0.4204  0.6956 -2.0245
18439SOL    HW257472   1.958   3.538   6.518  0.3178 -0.0875 -0.6994
18440SOL     OW57473   7.310   6.623   9.234  0.3086  0.6023 -0.3303
18440SOL    HW157474   7.387   6.681   9.238  1.0153 -0.3739  1.4134
18440SOL    HW257475   7.247   6.671   9.180  1.4782  2.2278 -0.3439
18441SOL     OW57476   6.822   0.630   5.257  0.7121  0.1897 -0.0059
18441SOL    HW157477   6.784   0.576   5.187 -2.2715 -0.2133  1.7593
18441SOL    HW257478   6.762   0.620   5.330  2.8262  1.9146  2.1121
18442SOL     OW57479   5.494   2.582   0.805 -0.4355  0.2087 -0.3300
18442SOL    HW157480   5.515   2.668   0.767 -0.4283  0.1894 -0.3700
18442SOL    HW257481   5.411   2.558   0.764 -1.3035  0.9470  0.9174
18443SOL     OW57482   8.256   0.593   8.619  0.0298  0.3363 -0.0372
18443SOL    HW157483   8.323   0.659   8.638 -1.2699  1.2976  1.3519
18443SOL    HW257484   8.281   0.518   8.672  0.7430  0.1697 -0.5785
18444SOL     OW57485   8.153   7.439   6.819 -0.1868  0.0970  0.1376
18444SOL    HW157486   8.232   7.487   6.796 -0.1558 -0.0521 -0.0759
18444SOL    HW257487   8.108   7.425   6.736 -0.0708 -0.4580  0.1645
18445SOL     OW57488   7.147   3.962   0.984  0.5057 -0.3343 -0.3569
18445SOL    HW157489   7.161   3.918   0.900  1.6341 -0.1619 -0.2677
18445SOL    HW257490   7.209   3.920   1.044 -1.1920 -1.4122  0.7716
18446SOL     OW57491   0.092   3.516   1.525  0.5122 -0.0653  0.3540
18446SOL    HW157492   0.124   3.583   1.585  0.1652  0.0893  0.3676
18446SOL    HW257493   0.037   3.459   1.579  0.6255 -0.2312  0.2954
18447SOL     OW57494   3.293   9.112   5.470 -0.6876 -0.2158  0.1043
18447SOL    HW157495   3.248   9.029   5.487 -1.3852  0.0833 -0.2597
18447SOL    HW257496   3.240   9.178   5.514 -0.3476  0.0877  0.0633
18448SOL     OW57497   7.193   6.899   9.240 -0.2265  0.1646 -0.2326
18448SOL    HW157498   7.247   6.976   9.221 -0.2963  0.3099  0.1436
18448SOL    HW257499   7.115   6.911   9.185 -0.2497  0.3786 -0.1573
18449SOL     OW57500   0.679   7.993   9.076  0.9149  0.2743 -1.0571
18449SOL    HW157501   0.584   8.001   9.068  0.3322 -2.3137  1.4925
18449SOL    HW257502   0.710   8.082   9.093 -1.0079  1.1635 -1.9337
18450SOL     OW57503   5.168   6.846   3.819 -0.0817  0.1073 -0.3165
18450SOL    HW157504   5.106   6.849   3.892  0.5912 -1.6807  0.3698
18450SOL    HW257505   5.126   6.789   3.755  0.5454 -0.5503 -0.1446
18451SOL     OW57506   8.453   3.656   0.373 -0.8433  0.4988 -0.0852
18451SOL    HW157507   8.410   3.727   0.326 -1.8077  0.9704  1.4309
18451SOL    HW257508   8.508   3.700   0.437 -0.5248 -0.1245  0.0730
18452SOL     OW57509   8.885   2.816   0.644  0.2496 -0.4061 -0.2095
18452SOL    HW157510   8.928   2.737   0.676 -0.0361 -1.1426 -1.5636
18452SOL    HW257511   8.884   2.875   0.719  0.6960 -1.5916  0.7614
18453SOL     OW57512   7.472   8.211   6.555  0.5495 -0.1766  0.2671
18453SOL    HW157513   7.381   8.185   6.543  0.7844 -1.1996  0.6335
18453SOL    HW257514   7.518   8.130   6.575  1.5430  0.3318  0.1088
18454SOL     OW57515   5.065   0.328   5.123  0.0480 -0.2851  0.2789
18454SOL    HW157516   5.003   0.315   5.195 -0.0819  1.3799  0.5018
18454SOL    HW257517   5.125   0.395   5.155  1.3108 -1.0800 -0.3682
18455SOL     OW57518   1.893   1.011   9.599  0.0606  0.2290  0.0272
18455SOL    HW157519   1.941   1.046   9.524 -2.3177  0.1013 -1.6794
18455SOL    HW257520   1.843   1.085   9.633 -3.1985 -0.7766 -2.1471
18456SOL     OW57521   0.570   8.188   5.817  0.0745 -0.4458 -0.1830
18456SOL    HW157522   0.565   8.268   5.870 -0.0121  0.3345 -1.3293
18456SOL    HW257523   0.658   8.191   5.778  0.0158 -0.8293 -0.3450
18457SOL     OW57524   3.501   2.902   3.901 -0.3118 -0.8756 -0.1600
18457SOL    HW157525   3.570   2.838   3.918 -0.1911 -0.1299  2.4936
18457SOL    HW257526   3.423   2.849   3.883 -0.0188 -1.7911  1.1509
18458SOL     OW57527   6.856   3.876   1.983 -0.3331  0.4684 -0.3042
18458SOL    HW157528   6.899   3.791   1.997 -0.0523  0.6343 -0.1671
18458SOL    HW257529   6.901   3.936   2.041 -0.4597  0.7392 -0.4848
18459SOL     OW57530   9.536   8.691   3.990 -0.0182  0.5772 -0.9016
18459SOL    HW157531   9.465   8.629   3.973 -1.0795  1.5690 -0.2508
18459SOL    HW257532   9.530   8.755   3.919  0.0248  0.8359 -0.6758
18460SOL     OW57533   5.779   4.623   0.204  0.6430 -0.0439  0.0918
18460SOL    HW157534   5.771   4.531   0.176 -1.0351  0.4830 -1.3574
18460SOL    HW257535   5.761   4.621   0.298 -1.6586 -0.9981 -0.2928
18461SOL     OW57536   3.114   5.406   3.137 -0.2144  0.6557 -0.3767
18461SOL    HW157537   3.109   5.464   3.061 -1.0522 -1.5576 -2.1606
18461SOL    HW257538   3.024   5.375   3.149  0.0506  0.3676  1.0562
18462SOL     OW57539   0.278   2.737   9.467  0.8510 -0.1835  0.6860
18462SOL    HW157540   0.254   2.698   9.383 -0.3325  2.1110 -0.1257
18462SOL    HW257541   0.359   2.784   9.449  0.8959 -0.1490  0.9789
18463SOL     OW57542   1.845   5.785   1.914  0.0057  0.3595  0.6737
18463SOL    HW157543   1.919   5.799   1.855 -0.5989  1.2871  0.1302
18463SOL    HW257544   1.803   5.870   1.921  0.6487  0.5721  3.2584
18464SOL     OW57545   4.907   1.467   7.104 -0.0178  0.3862 -0.6123
18464SOL    HW157546   4.989   1.422   7.084  0.6395  0.8984  0.7848
18464SOL    HW257547   4.914   1.551   7.058  1.3235  1.4117  1.3038
18465SOL     OW57548   5.167   7.204   4.513 -0.1409 -0.1616 -0.6616
18465SOL    HW157549   5.135   7.294   4.504 -0.5781 -0.2003  0.4514
18465SOL    HW257550   5.106   7.162   4.574  1.0566 -0.7115  0.1939
18466SOL     OW57551   9.099   0.145   6.070  0.7111 -0.2074 -0.1775
18466SOL    HW157552   9.049   0.147   5.989 -0.1496 -1.5138  0.2933
18466SOL    HW257553   9.109   0.237   6.094 -1.2428  0.1125 -0.4350
18467SOL     OW57554   5.574   0.089   5.437 -0.1716  0.2143 -0.0404
18467SOL    HW157555   5.518   0.133   5.501  2.3455 -0.5774  3.0232
18467SOL    HW257556   5.637   0.156   5.411 -0.4523  0.2031 -0.7544
18468SOL     OW57557   1.799   1.770   7.142 -0.2394 -0.1802  0.4064
18468SOL    HW157558   1.801   1.676   7.157 -1.0854 -0.3866 -0.6746
18468SOL    HW257559   1.753   1.781   7.059  1.0984  1.1089 -0.2210
18469SOL     OW57560   0.322   8.757   1.832 -0.0920  0.2084 -0.4046
18469SOL    HW157561   0.269   8.837   1.828  0.7340  0.7889 -0.0672
18469SOL    HW257562   0.406   8.782   1.792  0.9449  0.1587  1.6118
18470SOL     OW57563   2.952   2.931   8.461  0.1070 -0.0612  0.1561
18470SOL    HW157564   3.020   2.996   8.447 -0.2477  0.0650 -1.1316
18470SOL    HW257565   2.923   2.945   8.551  2.1077 -0.4537  0.8925
18471SOL     OW57566   7.369   5.679   2.261  0.5689  0.2517 -1.1676
18471SOL    HW157567   7.401   5.709   2.176  0.9940  1.8079 -0.5026
18471SOL    HW257568   7.381   5.755   2.319 -1.6643 -0.0565 -0.2040
18472SOL     OW57569   0.269   2.564   1.608  0.5624 -0.0324 -0.0286
18472SOL    HW157570   0.319   2.612   1.674  1.4583  0.8270 -1.2781
18472SOL    HW257571   0.309   2.477   1.605  2.2561  0.7430 -1.2329
18473SOL     OW57572   8.867   1.428   1.462  0.0899 -0.4699  0.2645
18473SOL    HW157573   8.914   1.430   1.379  0.8374  0.5141  0.6964
18473SOL    HW257574   8.867   1.518   1.492  1.2566 -1.0144  2.0939
18474SOL     OW57575   3.836   3.757   4.221 -0.4508 -0.1867  0.7164
18474SOL    HW157576   3.785   3.769   4.140  0.6978 -1.8164 -0.3235
18474SOL    HW257577   3.886   3.677   4.205  2.5631  1.3890  1.5807
18475SOL     OW57578   5.559   4.408   7.663 -0.3775 -0.1649  0.3988
18475SOL    HW157579   5.606   4.363   7.593  1.3494  0.1089  1.3121
18475SOL    HW257580   5.467   4.401   7.639  0.1255 -0.5608 -1.5892
18476SOL     OW57581   4.441   0.859   8.370  0.0792  0.2593  0.4797
18476SOL    HW157582   4.457   0.855   8.464  2.2602 -1.4001  0.1112
18476SOL    HW257583   4.381   0.787   8.352  1.1775 -0.6348  0.3576
18477SOL     OW57584   8.328   5.965   2.988 -0.0093  0.4384 -0.0671
18477SOL    HW157585   8.380   6.037   3.024  2.0285  0.2632 -2.3775
18477SOL    HW257586   8.324   5.984   2.894 -1.6758 -1.1184 -0.3503
18478SOL     OW57587   5.835   5.071   8.189  0.1246 -0.5194 -0.1367
18478SOL    HW157588   5.881   5.155   8.197  2.7292 -2.0150  2.3043
18478SOL    HW257589   5.874   5.030   8.112 -0.1786 -0.0818 -0.5330
18479SOL     OW57590   7.317   4.547   0.965 -0.0470  0.2770  0.0475
18479SOL    HW157591   7.384   4.576   0.903  0.2652 -1.2381 -0.3755
18479SOL    HW257592   7.356   4.562   1.051  0.9369 -0.7186 -0.1930
18480SOL     OW57593   6.400   8.449   2.409  0.2735  0.8020 -0.6242
18480SOL    HW157594   6.482   8.460   2.361  0.1244  2.1717 -0.5913
18480SOL    HW257595   6.362   8.537   2.413 -1.2089  0.1943 -0.6553
18481SOL     OW57596   6.261   0.277   6.838  0.2076 -0.0536  0.1322
18481SOL    HW157597   6.250   0.367   6.869  0.0304  0.4546 -1.3622
18481SOL    HW257598   6.356   0.266   6.830  0.1790  0.7127 -1.6307
18482SOL     OW57599   2.134   0.657   1.406 -0.3104 -0.7022 -0.1988
18482SOL    HW157600   2.040   0.641   1.415 -0.4290  0.1301  0.1288
18482SOL    HW257601   2.144   0.688   1.316 -0.2068 -1.6959 -0.5410
18483SOL     OW57602   4.692   4.867   0.058 -0.1400  0.0988 -0.3103
18483SOL    HW157603   4.626   4.927   0.024  0.3413 -0.4652 -2.3753
18483SOL    HW257604   4.761   4.923   0.093 -1.3568  0.6930  1.2393
18484SOL     OW57605   0.381   2.724   3.475 -0.0251  0.0918  0.0438
18484SOL    HW157606   0.398   2.723   3.569  0.5003 -1.0854 -0.0460
18484SOL    HW257607   0.461   2.758   3.436 -0.0022 -0.0296 -0.0165
18485SOL     OW57608   1.328   7.328   6.335  0.0039  0.5987  0.4222
18485SOL    HW157609   1.308   7.397   6.272  0.9974  0.4840 -0.0282
18485SOL    HW257610   1.298   7.363   6.419 -0.4568  1.1409  0.0441
18486SOL     OW57611   5.489   3.796   3.944 -0.0692  0.4531 -0.4032
18486SOL    HW157612   5.541   3.718   3.924 -0.9577 -0.1637 -0.3693
18486SOL    HW257613   5.525   3.864   3.887 -0.4487 -0.4507 -1.7587
18487SOL     OW57614   8.712   2.924   1.507 -0.2886 -0.1626  0.0949
18487SOL    HW157615   8.678   2.976   1.580 -0.2834 -0.1213  0.0681
18487SOL    HW257616   8.661   2.843   1.509  1.1050 -1.0515  1.4145
18488SOL     OW57617   0.366   6.529   2.586  0.0385 -0.0615  0.6912
18488SOL    HW157618   0.401   6.613   2.615 -1.1099  0.8168 -0.3231
18488SOL    HW257619   0.427   6.500   2.518  0.5587 -0.1670  1.1967
18489SOL     OW57620   4.070   3.372   2.821 -0.2430 -0.3387 -0.1041
18489SOL    HW157621   3.991   3.329   2.852  0.6198 -1.8193  0.1281
18489SOL    HW257622   4.049   3.400   2.732 -0.9997 -0.7852 -0.0727
18490SOL     OW57623   0.521   3.467   2.996 -0.2740  0.0211  0.0728
18490SOL    HW157624   0.515   3.556   2.961  0.0124 -0.0037 -0.0423
18490SOL    HW257625   0.466   3.414   2.938  0.7240 -0.1425 -0.7600
18491SOL     OW57626   2.830   5.382   6.091 -0.3966 -0.2491  0.1893
18491SOL    HW157627   2.798   5.398   6.002 -1.1543 -0.0484  0.4916
18491SOL    HW257628   2.918   5.419   6.091 -0.9101  1.0466 -0.0839
18492SOL     OW57629   0.552   8.807   6.319  0.7583 -0.2126  0.4501
18492SOL    HW157630   0.595   8.788   6.403 -0.5790 -2.6078  0.6918
18492SOL    HW257631   0.587   8.741   6.259 -1.1764 -1.0667  0.1945
18493SOL     OW57632   3.830   6.983   4.883 -0.1909  0.0239  0.2776
18493SOL    HW157633   3.909   6.990   4.936 -1.7428  0.5141  2.6945
18493SOL    HW257634   3.816   7.071   4.848 -1.1824  0.7543  2.3193
18494SOL     OW57635   0.937   9.416   0.344 -0.1964 -0.3883 -0.4288
18494SOL    HW157636   1.017   9.468   0.330 -0.1189 -0.5643 -0.6333
18494SOL    HW257637   0.901   9.404   0.257 -2.1592  2.3721 -0.1587
18495SOL     OW57638   6.161   6.601   4.808 -0.0665 -0.0049  0.2742
18495SOL    HW157639   6.182   6.671   4.869 -0.1577  1.4733 -1.2959
18495SOL    HW257640   6.065   6.592   4.813  0.0080 -0.5071  0.9554
18496SOL     OW57641   0.066   7.868   9.376 -0.6781 -0.5365 -0.1369
18496SOL    HW157642   0.019   7.920   9.442 -0.5475 -1.8031  0.9850
18496SOL    HW257643   0.151   7.851   9.415  0.7679  1.6211 -2.0979
18497SOL     OW57644   2.227   8.037   1.438 -0.4747  0.0875  0.5748
18497SOL    HW157645   2.181   7.954   1.427  1.9686 -1.1831 -0.8850
18497SOL    HW257646   2.240   8.044   1.533 -0.8216 -1.1281  0.7366
18498SOL     OW57647   8.856   6.530   9.425 -0.3192 -0.2051 -0.1072
18498SOL    HW157648   8.943   6.493   9.416 -0.1810  0.0051  0.3561
18498SOL    HW257649   8.861   6.586   9.503 -1.0607 -0.7524  0.3464
18499SOL     OW57650   8.296   0.991   1.273 -0.2172  0.3943 -0.1259
18499SOL    HW157651   8.352   0.955   1.342  1.2525  1.7734 -0.5380
18499SOL    HW257652   8.357   1.020   1.205 -1.5879 -0.3819 -1.7747
18500SOL     OW57653   6.888   1.772   1.153 -0.0532 -0.2268  0.1271
18500SOL    HW157654   6.975   1.772   1.194  0.1026  1.6216 -0.1140
18500SOL    HW257655   6.903   1.733   1.066  0.6018  0.3138 -0.0153
18501SOL     OW57656   8.081   6.175   7.543  0.9942 -0.5516  0.1443
18501SOL    HW157657   8.096   6.115   7.616  0.4182 -0.8911 -0.0107
18501SOL    HW257658   8.149   6.151   7.479 -0.3539 -2.3598 -0.7229
18502SOL     OW57659   3.873   8.203   2.891  0.3447  0.2920 -0.0191
18502SOL    HW157660   3.803   8.266   2.910  1.2962  2.0740 -2.0075
18502SOL    HW257661   3.929   8.248   2.828  1.8990 -2.0476 -0.4230
18503SOL     OW57662   4.054   6.100   4.722 -0.4656 -0.0994 -0.2357
18503SOL    HW157663   4.004   6.062   4.795 -2.3592 -0.7005 -1.7623
18503SOL    HW257664   4.099   6.025   4.683  0.9161  0.2950  0.5712
18504SOL     OW57665   4.535   4.721   1.934 -0.2157 -0.0671 -0.3398
18504SOL    HW157666   4.609   4.666   1.906 -0.4929 -0.3506 -0.5268
18504SOL    HW257667   4.573   4.807   1.947  0.9246 -0.9417  3.1138
18505SOL     OW57668   3.350   3.513   6.680  0.2120  0.0315  0.5624
18505SOL    HW157669   3.349   3.480   6.590  2.0348  0.7076  0.2527
18505SOL    HW257670   3.387   3.441   6.731 -0.2780 -0.1359  0.6883
18506SOL     OW57671   7.237   6.700   4.929 -0.3179  0.2383 -0.3811
18506SOL    HW157672   7.184   6.778   4.913 -0.7605  0.1691  0.6562
18506SOL    HW257673   7.323   6.734   4.952  0.1914  0.3479 -2.2518
18507SOL     OW57674   3.749   6.097   7.880  0.5783 -0.5317 -0.6094
18507SOL    HW157675   3.775   6.048   7.957 -1.4307 -0.0735  0.4458
18507SOL    HW257676   3.819   6.161   7.866  0.6008 -0.0900  1.3405
18508SOL     OW57677   9.461   7.581   9.509 -0.3352  0.3102  0.9358
18508SOL    HW157678   9.498   7.506   9.462 -0.3182  1.6021 -1.2544
18508SOL    HW257679   9.489   7.657   9.458 -0.5232  1.8199  2.9728
18509SOL     OW57680   4.844   2.950   3.629 -0.6811 -0.2244 -0.3170
18509SOL    HW157681   4.844   2.864   3.588 -0.7604 -1.3294  1.8359
18509SOL    HW257682   4.871   2.933   3.719  1.3989  2.3217 -0.3620
18510SOL     OW57683   5.849   7.652   5.494 -0.0638 -0.1675  0.5830
18510SOL    HW157684   5.827   7.638   5.402 -0.6211  0.4764  0.6061
18510SOL    HW257685   5.769   7.633   5.542  0.0469  0.0800  0.8758
18511SOL     OW57686   0.721   1.898   3.507 -0.3397 -0.1517 -0.1717
18511SOL    HW157687   0.783   1.841   3.461  0.6410  0.1512  0.7137
18511SOL    HW257688   0.639   1.888   3.459  0.1006 -1.4281 -0.7157
18512SOL     OW57689   1.013   3.141   8.988  0.7526 -0.1674  0.4335
18512SOL    HW157690   1.014   3.128   8.893 -1.2758  0.1154  0.3321
18512SOL    HW257691   1.058   3.224   9.001 -0.8989  0.9460 -0.5562
18513SOL     OW57692   7.097   7.595   4.829 -0.0716 -0.1008 -0.4386
18513SOL    HW157693   7.177   7.639   4.858  0.0226 -0.2406 -0.4886
18513SOL    HW257694   7.044   7.589   4.909  0.1497 -0.4003 -0.3129
18514SOL     OW57695   7.797   0.761   1.214 -0.5547  0.4673  0.7101
18514SOL    HW157696   7.769   0.781   1.125  0.7194  1.9965  0.6021
18514SOL    HW257697   7.823   0.669   1.211  1.3012  0.9704 -1.0550
18515SOL     OW57698   8.859   7.064   7.104 -0.1979 -0.5500  0.2954
18515SOL    HW157699   8.869   6.970   7.090  0.8704 -0.3918 -0.0825
18515SOL    HW257700   8.897   7.080   7.190  2.5997 -0.0274 -0.9261
18516SOL     OW57701   5.219   5.608   8.614 -0.5579  0.2150  0.4551
18516SOL    HW157702   5.181   5.689   8.648 -1.1333 -0.6387  1.9401
18516SOL    HW257703   5.144   5.551   8.598 -0.2463  0.3559 -1.7113
18517SOL     OW57704   1.643   1.962   5.181  0.5147 -1.0091 -0.1301
18517SOL    HW157705   1.553   1.939   5.206 -0.5906  2.4630 -0.3815
18517SOL    HW257706   1.633   2.007   5.097  2.0372  2.0650  1.2167
18518SOL     OW57707   1.505   4.161   2.122  0.5792  0.1993  0.2995
18518SOL    HW157708   1.485   4.224   2.053 -0.6106 -1.0117 -0.5246
18518SOL    HW257709   1.422   4.150   2.169  0.8822 -0.4061  0.7064
18519SOL     OW57710   8.360   0.515   6.806  0.1693 -0.4770  0.5415
18519SOL    HW157711   8.304   0.437   6.810  1.1692 -1.2852 -0.4307
18519SOL    HW257712   8.315   0.580   6.861 -1.2880 -1.3480  0.4391
18520SOL     OW57713   3.746   1.930   6.504  0.9458 -0.4899 -0.1280
18520SOL    HW157714   3.829   1.970   6.530  0.1338  0.7756  0.6332
18520SOL    HW257715   3.722   1.873   6.577  0.6587 -0.0592  0.1226
18521SOL     OW57716   6.639   7.011   6.421 -0.0905 -0.6130  0.3318
18521SOL    HW157717   6.667   7.096   6.385  0.3600 -0.6666  0.5499
18521SOL    HW257718   6.546   7.005   6.399 -0.4363  0.4903  1.3872
18522SOL     OW57719   9.252   9.004   6.970 -0.4316 -0.6303  0.4854
18522SOL    HW157720   9.244   9.097   6.994  0.6996 -0.5475  0.5890
18522SOL    HW257721   9.183   8.991   6.905 -0.1606  0.4581 -0.0427
18523SOL     OW57722   0.857   2.093   6.709 -0.3299  0.4447  0.5947
18523SOL    HW157723   0.944   2.085   6.748 -0.4071  0.1990  0.7203
18523SOL    HW257724   0.808   2.017   6.743 -0.2206 -0.1144 -0.4537
18524SOL     OW57725   7.373   0.303   5.558 -0.0274 -0.1274  0.4303
18524SOL    HW157726   7.313   0.232   5.538  2.1416 -1.1455 -3.3365
18524SOL    HW257727   7.456   0.260   5.580  0.5958  1.2325  0.8799
18525SOL     OW57728   4.897   0.081   7.501 -0.2144 -0.0433  0.1888
18525SOL    HW157729   4.975   0.124   7.466 -0.5469  0.6440  0.2805
18525SOL    HW257730   4.923  -0.010   7.513  0.8774  0.3669  1.1158
18526SOL     OW57731   5.385   2.414   7.548 -0.2675 -0.6958 -0.0435
18526SOL    HW157732   5.328   2.397   7.624  0.0460  0.9675  0.6039
18526SOL    HW257733   5.325   2.438   7.478 -0.4518  3.2703  1.2174
18527SOL     OW57734   0.397   2.934   6.977  0.3277 -0.0306 -0.0013
18527SOL    HW157735   0.453   2.973   7.045 -2.4683  0.6237  2.1214
18527SOL    HW257736   0.308   2.960   7.002 -1.0602 -1.8719 -2.5919
18528SOL     OW57737   3.324   4.703   0.349 -0.2475 -0.1559 -0.3877
18528SOL    HW157738   3.236   4.737   0.331  0.2574  1.7679  0.4361
18528SOL    HW257739   3.314   4.652   0.430 -0.6660 -0.2114 -0.4731
18529SOL     OW57740   3.209   8.546   5.623 -0.2008 -0.1289  0.4823
18529SOL    HW157741   3.124   8.502   5.625 -1.2086  1.7434  1.5602
18529SOL    HW257742   3.247   8.528   5.709 -0.5785  0.9702  0.8947
18530SOL     OW57743   5.563   1.240   0.302  0.2159  0.9888 -0.1110
18530SOL    HW157744   5.607   1.250   0.218  3.1973 -1.0859  1.0287
18530SOL    HW257745   5.586   1.152   0.330 -2.5281  0.8119  1.9224
18531SOL     OW57746   1.804   7.013   7.020 -0.0034 -0.0227  0.1261
18531SOL    HW157747   1.797   7.107   7.038  0.6755 -0.0358  0.4909
18531SOL    HW257748   1.740   6.973   7.078  0.2855  0.1535  0.5739
18532SOL     OW57749   9.046   6.777   1.460  0.1761  0.0317  0.4671
18532SOL    HW157750   9.134   6.755   1.430 -0.1730 -0.7514 -0.0123
18532SOL    HW257751   9.060   6.835   1.535  1.0881  0.2131  0.1682
18533SOL     OW57752   2.715   6.734   5.388  0.1853 -0.2706 -0.1118
18533SOL    HW157753   2.656   6.661   5.404  2.2538 -1.8131  0.9392
18533SOL    HW257754   2.737   6.727   5.295 -0.3641 -0.3760 -0.2391
18534SOL     OW57755   9.362   9.409   4.796 -0.3683 -0.9820  0.3610
18534SOL    HW157756   9.415   9.366   4.728 -0.6632 -1.9144  0.7027
18534SOL    HW257757   9.273   9.379   4.780 -0.9522  1.0915 -0.6093
18535SOL     OW57758   1.235   5.938   3.686  0.4307  0.1880 -0.6900
18535SOL    HW157759   1.298   5.897   3.626 -0.3197  1.0877 -2.1717
18535SOL    HW257760   1.151   5.932   3.640 -0.4156 -0.1512  0.8333
18536SOL     OW57761   1.443   4.302   9.627 -0.7107  0.2792 -0.3102
18536SOL    HW157762   1.401   4.217   9.646  0.9676 -0.4088  0.4679
18536SOL    HW257763   1.481   4.290   9.540  0.0664  0.0035  0.0625
18537SOL     OW57764   5.992   5.062   2.281  0.0006  0.1645  0.3770
18537SOL    HW157765   6.052   5.135   2.267 -1.4727  1.3203 -0.2009
18537SOL    HW257766   6.014   5.030   2.369 -0.2860  2.2961  1.2976
18538SOL     OW57767   4.357   4.710   2.490 -0.0198  0.6934 -0.7560
18538SOL    HW157768   4.269   4.722   2.455 -0.3644  0.7692  0.1046
18538SOL    HW257769   4.415   4.740   2.420 -0.6311 -0.3170 -1.7245
18539SOL     OW57770   3.421   3.917   2.003  0.2560 -0.3294  0.3776
18539SOL    HW157771   3.472   3.998   1.999  0.5124 -0.5136 -0.3617
18539SOL    HW257772   3.332   3.943   1.981  0.4821 -0.3520 -0.6194
18540SOL     OW57773   2.758   3.078   6.735  0.3341 -0.0366  0.6529
18540SOL    HW157774   2.847   3.043   6.735  0.5576  0.4368 -1.4551
18540SOL    HW257775   2.766   3.164   6.776  1.1232  0.5775 -0.7409
18541SOL     OW57776   7.077   1.283   5.945 -0.6475 -0.0541 -0.7477
18541SOL    HW157777   7.037   1.257   5.862 -2.3819  2.3623 -0.7612
18541SOL    HW257778   7.050   1.215   6.007 -2.3297 -0.0728 -1.4425
18542SOL     OW57779   1.347   3.750   8.860  0.3024 -0.0918 -0.4423
18542SOL    HW157780   1.329   3.843   8.842 -1.1027 -0.5353 -1.4205
18542SOL    HW257781   1.441   3.741   8.843  0.7823  1.4636  1.1314
18543SOL     OW57782   3.896   0.812   8.177 -0.1127  0.3145 -0.3530
18543SOL    HW157783   3.959   0.793   8.107 -0.6203  0.0498 -0.7423
18543SOL    HW257784   3.949   0.815   8.257  0.6673  1.8151 -0.8891
18544SOL     OW57785   5.337   1.705   3.097  0.7094  0.3749 -0.2291
18544SOL    HW157786   5.243   1.722   3.089  0.3485  0.7308  3.2548
18544SOL    HW257787   5.378   1.768   3.038 -1.1602  2.2657  0.3694
18545SOL     OW57788   1.228   1.947   3.317  0.3528  0.0429  0.4787
18545SOL    HW157789   1.172   1.980   3.387  1.7461  0.4065  1.4785
18545SOL    HW257790   1.313   1.934   3.359  0.2162 -3.8943 -0.0735
18546SOL     OW57791   8.454   7.159   0.211 -0.0943 -0.0097 -0.1338
18546SOL    HW157792   8.549   7.165   0.220 -0.1339  0.2084  0.1684
18546SOL    HW257793   8.425   7.105   0.285 -0.2220  0.0790 -0.1172
18547SOL     OW57794   2.656   9.134   0.731 -0.2988 -0.5448  0.3292
18547SOL    HW157795   2.561   9.137   0.739 -0.3212  1.4526 -0.0709
18547SOL    HW257796   2.685   9.219   0.764  1.2067 -0.5083 -0.9489
18548SOL     OW57797   5.292   2.105   6.046 -0.0110 -0.2200 -0.3820
18548SOL    HW157798   5.350   2.085   5.972  1.4521 -0.6505  0.8366
18548SOL    HW257799   5.246   2.023   6.063  1.1673 -0.7312  0.4573
18549SOL     OW57800   3.998   1.934   2.281  0.1812 -0.1805  0.0164
18549SOL    HW157801   3.973   1.871   2.348 -0.0990  1.1342  1.2136
18549SOL    HW257802   3.987   1.888   2.198 -0.3288 -1.5731  0.8330
18550SOL     OW57803   7.932   0.355   5.625  0.0269 -0.3105  0.2509
18550SOL    HW157804   7.997   0.363   5.695  0.0177 -0.4032  0.2698
18550SOL    HW257805   7.984   0.350   5.545  0.0243  0.2589  0.2103
18551SOL     OW57806   4.661   8.660   1.713  0.1132  0.0355  0.0047
18551SOL    HW157807   4.651   8.570   1.682  0.9575  0.0018 -0.1760
18551SOL    HW257808   4.571   8.690   1.728 -0.1857 -0.7464 -0.1840
18552SOL     OW57809   5.522   2.488   5.787  0.3231 -0.3817  0.3879
18552SOL    HW157810   5.568   2.567   5.816  0.6276 -0.7504  0.9246
18552SOL    HW257811   5.491   2.447   5.867 -1.2067 -0.0076  0.0211
18553SOL     OW57812   3.132   3.159   1.298 -0.4038  0.2528  0.0272
18553SOL    HW157813   3.208   3.206   1.264 -1.7430  1.3867 -1.5342
18553SOL    HW257814   3.074   3.149   1.223 -1.5892 -1.0367  1.0688
18554SOL     OW57815   5.546   6.358   1.107  0.2910 -0.2607  0.0274
18554SOL    HW157816   5.542   6.262   1.108  2.5041 -0.3999  1.5285
18554SOL    HW257817   5.501   6.382   1.026 -0.7215 -2.5276 -0.1652
18555SOL     OW57818   6.687   0.080   7.931  0.0178  0.5526  0.1340
18555SOL    HW157819   6.734   0.025   7.868 -0.9630 -1.4897  1.0536
18555SOL    HW257820   6.668   0.161   7.884  1.6449  0.1732 -1.2755
18556SOL     OW57821   4.158   5.022   5.409 -0.5304  0.0431 -0.0314
18556SOL    HW157822   4.220   5.095   5.407 -0.8995  0.4128  0.9721
18556SOL    HW257823   4.210   4.947   5.438 -0.1526 -0.0991 -1.0516
18557SOL     OW57824   9.268   1.799   5.760  0.3944 -0.1442 -0.2757
18557SOL    HW157825   9.314   1.790   5.843  1.5218  1.1169 -0.7228
18557SOL    HW257826   9.223   1.883   5.766  1.0957  0.3256 -1.1898
18558SOL     OW57827   3.586   7.414   0.775 -0.2015  0.7188 -0.2896
18558SOL    HW157828   3.572   7.324   0.806 -0.7755  1.0208  0.3362
18558SOL    HW257829   3.674   7.413   0.738 -0.3718 -0.2195 -0.6984
18559SOL     OW57830   4.106   3.475   7.729  0.4388 -0.1242  0.3338
18559SOL    HW157831   4.095   3.569   7.723 -1.6374 -0.3890 -1.0183
18559SOL    HW257832   4.036   3.446   7.789 -0.2821 -0.9784 -0.8757
18560SOL     OW57833   3.028   3.102   1.538  0.3003 -0.5025  0.3051
18560SOL    HW157834   3.077   3.143   1.610  1.3391 -0.5325 -0.3594
18560SOL    HW257835   3.070   3.136   1.459 -0.0442 -1.4047 -0.2765
18561SOL     OW57836   5.616   5.648   1.212  0.4411  0.4110 -0.0256
18561SOL    HW157837   5.527   5.645   1.178  0.2998 -0.8593  0.4106
18561SOL    HW257838   5.662   5.578   1.166  0.3909 -0.9863  1.8959
18562SOL     OW57839   4.967   1.589   0.048  0.0434  0.6828 -0.3202
18562SOL    HW157840   5.046   1.579  -0.005 -0.2425  1.8430 -1.0147
18562SOL    HW257841   4.997   1.627   0.130  0.6893 -2.4881  1.0246
18563SOL     OW57842   2.269   6.012   1.840  0.4898 -0.8318  0.2643
18563SOL    HW157843   2.240   6.070   1.910  0.9025 -1.1623  0.7121
18563SOL    HW257844   2.246   6.059   1.760 -2.7891 -1.7739  0.5136
18564SOL     OW57845   7.220   5.883   3.427 -0.1109  0.1877  0.6995
18564SOL    HW157846   7.130   5.916   3.415 -0.1040 -0.0949 -0.1957
18564SOL    HW257847   7.270   5.927   3.358  0.5548  0.7324  1.5136
18565SOL     OW57848   7.786   6.981   5.282  0.1046 -0.2023  0.6130
18565SOL    HW157849   7.727   6.989   5.356  2.2816  1.2628  2.3465
18565SOL    HW257850   7.747   6.913   5.226 -1.7074 -1.2534  3.0011
18566SOL     OW57851   3.707   7.198   6.347  0.1664  1.1922  1.0250
18566SOL    HW157852   3.799   7.207   6.371  1.0224  1.4677 -1.9105
18566SOL    HW257853   3.705   7.125   6.285 -1.4157  1.7623  0.3378
18567SOL     OW57854   5.268   0.141   9.582  0.4522  0.5026  0.8936
18567SOL    HW157855   5.290   0.193   9.659  2.3754 -0.3256  0.9795
18567SOL    HW257856   5.241   0.056   9.616  0.8463  0.2906  0.6987
18568SOL     OW57857   3.301   6.122   8.565 -0.0748  0.0338  0.5375
18568SOL    HW157858   3.292   6.138   8.471 -4.0103  0.6417  0.8580
18568SOL    HW257859   3.265   6.034   8.577  0.4931 -0.0802  1.4940
18569SOL     OW57860   2.313   2.852   9.017 -0.1246 -0.1823 -0.0598
18569SOL    HW157861   2.299   2.873   8.924 -0.4283 -0.0980  0.0015
18569SOL    HW257862   2.327   2.938   9.058  0.9918 -0.2944 -0.1802
18570SOL     OW57863   4.851   1.162   2.788 -0.2044 -0.4169 -0.1469
18570SOL    HW157864   4.909   1.088   2.772 -0.3109 -0.4764 -0.2504
18570SOL    HW257865   4.782   1.128   2.845 -1.0377 -0.7514 -1.3400
18571SOL     OW57866   6.859   3.460   0.464 -0.1261  0.0211  0.5146
18571SOL    HW157867   6.873   3.512   0.385  0.5688 -0.3385  0.3900
18571SOL    HW257868   6.764   3.458   0.476 -0.2404  0.0350 -0.3443
18572SOL     OW57869   7.130   6.058   6.448  0.1731 -0.0688  0.3834
18572SOL    HW157870   7.223   6.036   6.453  0.1254 -0.3167  0.1637
18572SOL    HW257871   7.105   6.076   6.539  0.1487 -1.1448  0.5979
18573SOL     OW57872   0.756   2.012   8.480  0.4874 -0.4478  0.0307
18573SOL    HW157873   0.841   2.052   8.461 -0.9648  2.0396 -1.8459
18573SOL    HW257874   0.722   1.987   8.394 -2.0481  1.6763  0.3102
18574SOL     OW57875   5.753   6.967   8.170 -0.1769  0.0306 -0.4394
18574SOL    HW157876   5.708   6.938   8.091 -0.0425  2.4231 -1.4842
18574SOL    HW257877   5.823   6.904   8.183 -1.2708 -1.3841 -1.1891
18575SOL     OW57878   4.538   8.506   6.241  0.3161 -0.1047 -0.3821
18575SOL    HW157879   4.555   8.478   6.151 -0.5912  0.6765 -0.8190
18575SOL    HW257880   4.442   8.515   6.246  0.3787  0.2307  0.5444
18576SOL     OW57881   8.279   8.593   3.102 -0.2155 -0.6284  0.3645
18576SOL    HW157882   8.343   8.657   3.131 -0.7167  0.2840 -0.4961
18576SOL    HW257883   8.276   8.529   3.173 -0.0143  0.5159  1.4450
18577SOL     OW57884   9.521   5.947   4.188  0.2304 -0.0673  0.0539
18577SOL    HW157885   9.564   6.012   4.245  1.2673 -1.1130  0.5048
18577SOL    HW257886   9.583   5.932   4.117  0.5476 -1.4258  0.5866
18578SOL     OW57887   5.939   7.398   9.117 -0.8103 -0.4891  0.7458
18578SOL    HW157888   5.926   7.491   9.136  0.6637 -0.4382  1.6777
18578SOL    HW257889   5.898   7.352   9.192  0.5040 -0.4783  1.4993
18579SOL     OW57890   0.640   2.357   7.404 -1.0724 -0.0220 -0.2965
18579SOL    HW157891   0.627   2.265   7.381  1.0600  0.0414 -1.9872
18579SOL    HW257892   0.585   2.405   7.342 -0.6684 -0.0914 -0.7090
18580SOL     OW57893   2.006   7.916   7.049  0.3515 -0.4120  0.1399
18580SOL    HW157894   2.072   7.974   7.087 -1.3962  1.8935 -0.1791
18580SOL    HW257895   2.043   7.892   6.963  1.3861 -0.3594  0.5499
18581SOL     OW57896   7.007   6.367   6.419 -0.0625  0.0691 -0.3711
18581SOL    HW157897   7.066   6.367   6.343 -1.1254  3.1960 -1.3396
18581SOL    HW257898   6.966   6.280   6.417  1.8058 -0.8609 -1.8083
18582SOL     OW57899   2.536   2.263   5.129 -0.4352  0.0155 -0.3684
18582SOL    HW157900   2.514   2.330   5.194  0.2508 -0.1473  0.0448
18582SOL    HW257901   2.451   2.237   5.092 -0.6115  2.1130 -1.5822
18583SOL     OW57902   5.594   2.082   1.343  0.0491  0.4098 -0.0620
18583SOL    HW157903   5.618   2.054   1.255 -0.1020  0.8013 -0.2291
18583SOL    HW257904   5.597   2.178   1.340 -1.6372  0.4841 -0.1192
18584SOL     OW57905   2.847   6.596   0.261 -0.5920 -0.0144 -0.5821
18584SOL    HW157906   2.926   6.563   0.220 -0.3884  0.2974 -0.4471
18584SOL    HW257907   2.868   6.687   0.284 -0.9356  0.0249 -0.4127
18585SOL     OW57908   3.244   5.068   8.377 -0.0183  0.5205 -0.0104
18585SOL    HW157909   3.266   5.146   8.326 -0.8604 -0.0138 -1.2412
18585SOL    HW257910   3.314   5.061   8.441  1.4207  0.9048 -1.4669
18586SOL     OW57911   4.012   1.925   7.893 -0.1854 -0.0301 -0.3134
18586SOL    HW157912   4.029   1.855   7.830 -2.4812  0.0655 -1.1396
18586SOL    HW257913   4.066   1.998   7.863  2.0525 -1.2841  0.4111
18587SOL     OW57914   8.297   3.281   4.700  0.2067 -0.0095  0.0196
18587SOL    HW157915   8.318   3.375   4.699 -0.9599  0.2615 -0.3737
18587SOL    HW257916   8.208   3.277   4.734  0.1322 -0.9508 -0.2752
18588SOL     OW57917   5.326   1.580   8.872  0.1718  0.3478  0.0287
18588SOL    HW157918   5.341   1.485   8.869 -4.0057 -0.5401  0.6891
18588SOL    HW257919   5.390   1.613   8.934  0.0063 -2.5582  1.9392
18589SOL     OW57920   7.918   0.166   5.902 -0.4959  0.0550  0.0674
18589SOL    HW157921   7.863   0.147   5.826 -0.0542  1.3287 -0.5946
18589SOL    HW257922   7.861   0.212   5.962 -0.8476 -0.9590  0.5408
18590SOL     OW57923   9.543   3.342   2.238  0.3900  0.5188 -0.1869
18590SOL    HW157924   9.467   3.394   2.263  2.4327  3.2269  0.7894
18590SOL    HW257925   9.580   3.313   2.321  0.6955 -0.4168 -0.6420
18591SOL     OW57926   3.263   0.463   1.978  0.4349 -0.1279  0.8610
18591SOL    HW157927   3.353   0.486   1.954  0.2996  0.4998  0.9437
18591SOL    HW257928   3.268   0.370   2.000  0.6409 -0.6564 -1.2134
18592SOL     OW57929   3.777   6.298   0.246  0.0454  0.3290  0.2789
18592SOL    HW157930   3.863   6.289   0.287  0.5705 -0.4227 -0.9236
18592SOL    HW257931   3.723   6.233   0.290  0.0955  0.7697  1.0089
18593SOL     OW57932   3.211   7.972   4.849  0.8149  0.3289 -0.5284
18593SOL    HW157933   3.293   8.016   4.824  0.0500  0.5599 -2.8772
18593SOL    HW257934   3.147   8.042   4.852  0.5072  0.0150  0.3918
18594SOL     OW57935   1.512   8.274   1.439 -0.1802  0.6403  0.2248
18594SOL    HW157936   1.461   8.224   1.503  1.6360 -1.2469  0.3219
18594SOL    HW257937   1.533   8.356   1.484  1.4826 -0.8467  2.3466
18595SOL     OW57938   1.042   1.386   7.582 -0.6961 -0.0587 -0.3264
18595SOL    HW157939   0.989   1.309   7.603 -1.1074 -0.2395 -1.9106
18595SOL    HW257940   0.994   1.459   7.622 -0.3060 -0.5878  1.1873
18596SOL     OW57941   1.130   9.523   6.778  0.0337 -0.8211  0.4016
18596SOL    HW157942   1.209   9.481   6.811  0.5645 -0.2604 -0.1181
18596SOL    HW257943   1.089   9.456   6.723  1.6327 -0.2584 -1.6126
18597SOL     OW57944   5.304   2.553   6.517 -0.0431 -0.6218  0.1233
18597SOL    HW157945   5.372   2.538   6.452 -0.3298 -0.1323 -0.3025
18597SOL    HW257946   5.305   2.648   6.531 -0.1186 -0.7017  0.6825
18598SOL     OW57947   6.425   2.043   8.810 -0.1944 -0.3780  0.7958
18598SOL    HW157948   6.362   1.974   8.830 -0.0025 -1.6285 -2.3757
18598SOL    HW257949   6.510   2.003   8.828 -0.1422  0.1809  1.9150
18599SOL     OW57950   9.051   6.129   3.178  0.5583  0.3324  0.8689
18599SOL    HW157951   9.020   6.163   3.094  2.1928  0.9764  0.4914
18599SOL    HW257952   8.990   6.166   3.242 -1.7115 -1.4672 -0.0981
18600SOL     OW57953   2.662   6.822   3.578  0.0067 -0.2263  0.0972
18600SOL    HW157954   2.633   6.812   3.488  0.1386  0.0856  0.0191
18600SOL    HW257955   2.756   6.840   3.572  0.6439 -3.0233  0.4218
18601SOL     OW57956   2.396   5.246   4.135  0.1246 -0.5642 -0.5527
18601SOL    HW157957   2.450   5.322   4.116  0.7407 -0.6144  0.8928
18601SOL    HW257958   2.449   5.171   4.108  0.4618 -0.5746  0.1190
18602SOL     OW57959   2.012   6.843   2.755  0.2984  0.0383  0.0277
18602SOL    HW157960   2.099   6.828   2.792  0.8372 -0.5695 -1.4196
18602SOL    HW257961   2.025   6.911   2.689 -0.4357  0.3484  0.1891
18603SOL     OW57962   0.386   3.700   2.132  0.1770 -0.5259 -0.0879
18603SOL    HW157963   0.427   3.786   2.126 -0.7146 -0.0046  1.0352
18603SOL    HW257964   0.431   3.656   2.204 -0.7990 -0.1833  0.7424
18604SOL     OW57965   1.877   1.876   3.852 -0.0560  0.0617  0.1256
18604SOL    HW157966   1.806   1.812   3.849 -0.1770  0.1335  1.2169
18604SOL    HW257967   1.893   1.890   3.945  1.0136  0.4689 -0.1076
18605SOL     OW57968   8.326   3.723   5.610 -0.0011 -0.5329 -0.3013
18605SOL    HW157969   8.401   3.726   5.669 -1.3397 -0.7806  1.5393
18605SOL    HW257970   8.255   3.763   5.661 -0.5674  2.0946 -2.9015
18606SOL     OW57971   1.462   1.379   0.635  0.7312 -0.1278 -0.3961
18606SOL    HW157972   1.487   1.324   0.561  1.1152 -0.0404 -0.3354
18606SOL    HW257973   1.545   1.415   0.667  0.5340  0.0961 -0.1304
18607SOL     OW57974   4.784   1.871   2.505 -0.0940 -0.0795 -0.6919
18607SOL    HW157975   4.725   1.916   2.444 -0.4293  0.4259 -0.0086
18607SOL    HW257976   4.784   1.780   2.475  1.0676  0.4612 -2.4771
18608SOL     OW57977   0.888   2.437   5.049 -0.2518  0.3172  0.1503
18608SOL    HW157978   0.928   2.350   5.045  1.2525  0.9726  0.3367
18608SOL    HW257979   0.878   2.454   5.142 -0.4792  0.3811  0.1151
18609SOL     OW57980   0.043   4.830   9.204 -0.2551  0.0915 -0.5224
18609SOL    HW157981  -0.050   4.806   9.203 -0.3598  0.4846 -1.2168
18609SOL    HW257982   0.048   4.905   9.145  0.4451  0.3122 -0.1853
18610SOL     OW57983   3.004   6.674   3.126 -0.2725 -0.1584  0.2637
18610SOL    HW157984   3.033   6.713   3.209 -1.5092 -2.3080  1.7935
18610SOL    HW257985   2.919   6.713   3.109  0.3479  0.9226 -0.5095
18611SOL     OW57986   3.871   0.828   1.434  0.3726 -0.1822 -0.1213
18611SOL    HW157987   3.825   0.786   1.507  0.2843  0.6235  0.2917
18611SOL    HW257988   3.818   0.806   1.357 -0.1506 -0.1012  0.2114
18612SOL     OW57989   8.132   9.616   5.934  0.0009  0.5124 -0.6472
18612SOL    HW157990   8.048   9.654   5.906 -1.5736 -1.4398  1.1161
18612SOL    HW257991   8.142   9.537   5.881  1.0246  0.9810 -1.1901
18613SOL     OW57992   5.733   2.189   7.127 -0.4614  0.7711 -0.1264
18613SOL    HW157993   5.711   2.274   7.166  0.6698  1.7244 -1.4687
18613SOL    HW257994   5.728   2.204   7.033 -1.8660 -1.1290 -0.4092
18614SOL     OW57995   5.647   0.059   6.727  0.4009  0.1861  0.0755
18614SOL    HW157996   5.623  -0.032   6.711 -0.7835  0.2855  1.1245
18614SOL    HW257997   5.711   0.055   6.799  1.4880  0.1033 -0.8758
18615SOL     OW57998   2.885   6.683   2.663 -0.4696  0.2696 -0.1884
18615SOL    HW157999   2.941   6.691   2.741 -0.4002 -0.9055 -0.0971
18615SOL    HW258000   2.924   6.611   2.614 -2.0050 -0.6937 -0.0338
18616SOL     OW58001   8.377   7.022   5.472  0.0792 -0.0670 -0.4651
18616SOL    HW158002   8.307   6.966   5.506 -0.7863  1.0988 -0.2681
18616SOL    HW258003   8.456   6.968   5.477 -0.6391 -1.0818  0.2023
18617SOL     OW58004   8.025   2.751   0.666  0.0298 -0.4833  0.0805
18617SOL    HW158005   8.084   2.716   0.599  1.0428 -0.9510  1.1868
18617SOL    HW258006   8.025   2.684   0.735 -0.2329  0.4206  0.9737
18618SOL     OW58007   5.038   2.676   6.436 -0.2407 -0.3245  0.5847
18618SOL    HW158008   5.072   2.604   6.382 -2.1770 -1.3953  0.6699
18618SOL    HW258009   5.071   2.658   6.524  1.0419  0.1259  0.2118
18619SOL     OW58010   0.705   3.303   0.491  0.2556  0.4706 -0.2590
18619SOL    HW158011   0.648   3.328   0.564  0.9326 -0.5250  0.6284
18619SOL    HW258012   0.783   3.357   0.502  0.2750  0.4671 -0.3833
18620SOL     OW58013   5.725   4.392   1.646  0.3063 -0.0437 -1.0873
18620SOL    HW158014   5.654   4.456   1.657  0.2298 -0.2590 -0.2424
18620SOL    HW258015   5.699   4.318   1.700  1.6725  0.2965  0.1127
18621SOL     OW58016   4.061   3.737   7.726  0.0090  0.0573  0.1562
18621SOL    HW158017   4.064   3.738   7.822 -0.9428  0.2752  0.1942
18621SOL    HW258018   4.123   3.806   7.700  0.6717 -0.3561  0.5882
18622SOL     OW58019   6.838   5.247   9.390  0.9241  0.0132 -0.1568
18622SOL    HW158020   6.831   5.196   9.471  1.3479 -1.1125 -0.8093
18622SOL    HW258021   6.823   5.337   9.418 -1.5798 -0.6126  0.7685
18623SOL     OW58022   1.721   8.175   0.409  0.2912 -0.3169  0.0968
18623SOL    HW158023   1.650   8.127   0.452  1.4261  0.1095  2.6079
18623SOL    HW258024   1.701   8.267   0.425  1.5399 -0.2009  1.1525
18624SOL     OW58025   9.146   6.324   7.423 -0.4359  0.4989 -0.1697
18624SOL    HW158026   9.104   6.410   7.427 -0.2123  0.5674  1.1390
18624SOL    HW258027   9.077   6.266   7.391 -0.7256  1.0810 -0.6316
18625SOL     OW58028   0.498   7.267   3.588  0.4314 -0.1827  0.1207
18625SOL    HW158029   0.453   7.202   3.533 -0.7981  0.2503  0.5665
18625SOL    HW258030   0.516   7.220   3.670  0.2079 -0.1835  0.1715
18626SOL     OW58031   3.367   8.773   5.398 -0.0314 -0.2647 -0.4160
18626SOL    HW158032   3.316   8.809   5.470  1.5288 -0.7270  0.9894
18626SOL    HW258033   3.320   8.799   5.319 -0.9191  1.6860  0.6895
18627SOL     OW58034   0.598   3.286   7.870  0.8295  0.2067  0.0717
18627SOL    HW158035   0.656   3.300   7.945 -0.2138  0.5706  0.8506
18627SOL    HW258036   0.510   3.294   7.907  0.2628 -1.2247 -0.8918
18628SOL     OW58037   0.042   5.145   1.661  0.5113 -0.6730 -0.2563
18628SOL    HW158038  -0.050   5.137   1.635 -0.3647  1.0920  1.9231
18628SOL    HW258039   0.044   5.112   1.751  1.8317  0.0680  0.0078
18629SOL     OW58040   0.749   1.134   2.400 -0.7541 -0.2230  0.5891
18629SOL    HW158041   0.767   1.043   2.425 -2.1184 -0.2019  1.7449
18629SOL    HW258042   0.833   1.168   2.371 -0.2935 -1.9734 -0.2619
18630SOL     OW58043   6.678   3.824   2.407  0.3443 -0.1680 -0.2381
18630SOL    HW158044   6.642   3.887   2.468 -0.0993 -0.7039  0.0611
18630SOL    HW258045   6.605   3.800   2.350 -0.1883 -2.2870  1.2325
18631SOL     OW58046   5.189   7.638   8.694 -0.0932 -0.3780 -0.1410
18631SOL    HW158047   5.250   7.647   8.768  0.3528 -0.4059 -0.5047
18631SOL    HW258048   5.237   7.587   8.629 -0.4289 -0.2206 -0.5186
18632SOL     OW58049   8.469   0.704   3.341 -0.1325  0.7900  0.4014
18632SOL    HW158050   8.463   0.759   3.263  1.1782  1.6374  0.8637
18632SOL    HW258051   8.524   0.631   3.314  0.7715  1.3590  0.6563
18633SOL     OW58052   3.856   1.319   4.667 -0.3781 -0.5788  0.4699
18633SOL    HW158053   3.889   1.312   4.578  0.0428  0.3638  0.5393
18633SOL    HW258054   3.780   1.378   4.661  1.4123  1.9667  1.1161
18634SOL     OW58055   3.862   2.692   7.659 -0.0900 -0.5315  0.3619
18634SOL    HW158056   3.915   2.616   7.637  0.7722 -0.1750  1.1479
18634SOL    HW258057   3.802   2.702   7.585  0.6140 -1.2340 -0.3158
18635SOL     OW58058   5.983   9.161   0.281  0.6646  0.0737  0.2429
18635SOL    HW158059   5.888   9.172   0.279  0.6611  0.1413 -2.3443
18635SOL    HW258060   6.016   9.243   0.318 -0.2352  0.7383 -0.3844
18636SOL     OW58061   7.540   7.957   1.823  0.3095  0.3404 -0.1917
18636SOL    HW158062   7.508   8.026   1.880  0.7667 -0.1581  0.6827
18636SOL    HW258063   7.480   7.957   1.749 -0.0954  1.2107  0.1312
18637SOL     OW58064   9.592   3.791   2.506 -0.2523  0.1536  0.5343
18637SOL    HW158065   9.549   3.716   2.546 -0.1884  0.1742  0.6407
18637SOL    HW258066   9.629   3.756   2.424 -0.1890  0.0598  0.6025
18638SOL     OW58067   4.243   6.584   1.990  1.4083 -0.2035  0.0424
18638SOL    HW158068   4.192   6.609   1.913  0.5945 -0.2462  0.5639
18638SOL    HW258069   4.236   6.488   1.994  1.1739 -0.1718  0.3664
18639SOL     OW58070   5.016   4.949   2.293  0.2428  0.1182 -0.6554
18639SOL    HW158071   5.096   4.942   2.345  1.5220 -0.5493 -2.6241
18639SOL    HW258072   4.996   5.043   2.291  1.2652  0.3434 -0.5669
18640SOL     OW58073   5.650   8.639   7.718 -0.2411  0.5258 -0.3405
18640SOL    HW158074   5.625   8.693   7.793 -1.4708 -0.0745 -0.3020
18640SOL    HW258075   5.602   8.675   7.644 -1.0648 -0.4700 -0.3176
18641SOL     OW58076   9.531   5.708   3.403 -0.0234  0.1441  0.0750
18641SOL    HW158077   9.561   5.770   3.469  0.4313 -1.4165  1.3909
18641SOL    HW258078   9.441   5.688   3.427  0.8191 -2.1327  1.6619
18642SOL     OW58079   6.529   7.151   1.536 -0.0767 -0.0361  0.4481
18642SOL    HW158080   6.476   7.227   1.559 -0.1844 -0.0671  0.3068
18642SOL    HW258081   6.477   7.076   1.566 -0.0650 -0.0619  0.4032
18643SOL     OW58082   7.914   2.418   0.045  0.3395  0.2809  0.2849
18643SOL    HW158083   7.908   2.397   0.138  0.8381 -0.4762  0.1492
18643SOL    HW258084   7.992   2.472   0.037  0.1897  0.5053  0.3322
18644SOL     OW58085   7.250   5.624   9.271 -0.5309 -0.4834 -0.4392
18644SOL    HW158086   7.232   5.718   9.279  1.0306 -0.1176 -0.8476
18644SOL    HW258087   7.167   5.587   9.240 -0.9242  0.8982 -1.1441
18645SOL     OW58088   5.737   3.235   4.123 -0.4427 -0.2861 -0.4852
18645SOL    HW158089   5.651   3.266   4.153 -0.1736 -0.8464  0.9373
18645SOL    HW258090   5.716   3.170   4.056 -1.2043 -1.4125  0.7895
18646SOL     OW58091   1.716   3.057   0.850 -0.1761  0.4372 -0.0874
18646SOL    HW158092   1.669   3.111   0.786 -0.8978 -2.5855 -2.3490
18646SOL    HW258093   1.647   3.023   0.907  0.2316  1.5695  1.1161
18647SOL     OW58094   1.890   4.047   8.564 -0.5192  0.4247  0.1243
18647SOL    HW158095   1.811   3.994   8.565 -1.3085  1.5497 -0.3530
18647SOL    HW258096   1.946   4.008   8.631 -0.8237 -1.3437 -0.5830
18648SOL     OW58097   2.548   6.718   0.507 -0.8141 -0.1179 -0.3036
18648SOL    HW158098   2.545   6.709   0.603  0.3226  0.5542 -0.1848
18648SOL    HW258099   2.507   6.803   0.489  0.2355  0.4097 -0.2754
18649SOL     OW58100   0.725   8.312   2.071 -0.4552  0.5813 -0.5876
18649SOL    HW158101   0.775   8.383   2.030  1.4240 -0.5047 -0.2692
18649SOL    HW258102   0.689   8.262   1.997  0.5883  0.2484 -0.8845
18650SOL     OW58103   1.419   4.654   8.762 -0.3830  0.1349  0.4480
18650SOL    HW158104   1.475   4.607   8.824 -1.3688 -1.3011  0.2810
18650SOL    HW258105   1.472   4.658   8.682  0.2359  0.5184  0.8648
18651SOL     OW58106   5.419   1.384   4.037 -0.0525 -0.6316 -0.1117
18651SOL    HW158107   5.503   1.406   3.997  0.2208 -0.1738  0.6878
18651SOL    HW258108   5.369   1.342   3.967  1.0295 -1.3770 -0.4547
18652SOL     OW58109   8.626   2.551   6.743  0.3543 -0.5446 -0.3257
18652SOL    HW158110   8.721   2.565   6.740  0.2225  0.4173 -0.5021
18652SOL    HW258111   8.615   2.472   6.795  1.3386 -1.6574 -1.7363
18653SOL     OW58112   6.076   8.251   2.912  0.2854 -0.0263  0.1975
18653SOL    HW158113   6.052   8.315   2.845 -0.6962  0.8407  1.3311
18653SOL    HW258114   6.166   8.273   2.934  0.8291 -0.6877 -1.1942
18654SOL     OW58115   2.781   6.803   8.323  0.2713 -0.3681 -0.0124
18654SOL    HW158116   2.853   6.839   8.271 -1.2171  1.5411 -0.8751
18654SOL    HW258117   2.788   6.846   8.408  1.5162 -1.9983  0.7683
18655SOL     OW58118   9.264   3.200   7.257 -0.2646  0.1218 -0.5091
18655SOL    HW158119   9.334   3.256   7.225  0.3645 -0.7845 -0.7488
18655SOL    HW258120   9.193   3.212   7.193 -0.3446  1.0484 -0.2581
18656SOL     OW58121   7.564   5.647   5.740  0.3402 -0.0894  0.1627
18656SOL    HW158122   7.612   5.566   5.755 -0.6069 -0.4006  1.7819
18656SOL    HW258123   7.555   5.687   5.827 -0.7291  0.8678 -0.3498
18657SOL     OW58124   9.490   6.478   1.115 -0.2192 -1.0547  0.3992
18657SOL    HW158125   9.490   6.403   1.056  0.7850 -0.6925 -0.0904
18657SOL    HW258126   9.523   6.442   1.198  1.7760 -0.8880 -0.2606
18658SOL     OW58127   8.096   7.814   7.921 -0.0376  0.1248 -0.1526
18658SOL    HW158128   8.023   7.754   7.909  0.3785 -0.4714  0.2299
18658SOL    HW258129   8.070   7.894   7.875 -1.1953  0.1382  0.4876
18659SOL     OW58130   5.172   5.089   2.938  0.0304 -0.0818 -0.0033
18659SOL    HW158131   5.084   5.112   2.969 -0.6204 -2.6555  0.2642
18659SOL    HW258132   5.184   5.143   2.859 -1.5711  0.6773  0.2218
18660SOL     OW58133   0.016   0.786   8.995  0.0501 -0.4268  0.3946
18660SOL    HW158134   0.077   0.735   9.049  0.3936 -0.2932  0.1300
18660SOL    HW258135   0.015   0.873   9.035  0.4114 -0.2873  0.1093
18661SOL     OW58136   3.804   1.620   7.402 -0.0104 -0.2088 -0.3139
18661SOL    HW158137   3.780   1.683   7.470  0.0416 -0.8116  0.2714
18661SOL    HW258138   3.892   1.647   7.375  0.1759 -0.2650  0.2173
18662SOL     OW58139   8.410   7.289   7.607  0.1220  0.3094 -0.5430
18662SOL    HW158140   8.441   7.268   7.519 -1.4653 -1.7637 -0.6988
18662SOL    HW258141   8.318   7.313   7.595 -0.5008 -1.2878  0.6284
18663SOL     OW58142   6.845   1.215   6.245  0.1789 -0.5972 -0.2857
18663SOL    HW158143   6.815   1.142   6.191 -0.3113 -0.6041 -0.0084
18663SOL    HW258144   6.765   1.263   6.267  0.6478  1.0104 -1.8469
18664SOL     OW58145   2.342   0.167   6.992 -0.6455 -0.2836 -0.3510
18664SOL    HW158146   2.325   0.261   6.994  0.4617 -0.0253 -1.5439
18664SOL    HW258147   2.291   0.132   7.065 -2.3414  1.0119 -0.8533
18665SOL     OW58148   5.348   6.941   7.268  0.2494  0.3630 -0.1023
18665SOL    HW158149   5.324   6.982   7.352  1.8889  0.2190  0.4761
18665SOL    HW258150   5.308   6.855   7.272  1.0024  0.0303  0.9474
18666SOL     OW58151   4.747   7.776   2.420 -0.6695 -0.1086 -0.1399
18666SOL    HW158152   4.783   7.773   2.508 -1.7344 -0.0699  0.3108
18666SOL    HW258153   4.697   7.694   2.412 -1.8925  0.6051 -0.1067
18667SOL     OW58154   0.729   1.165   8.226  0.0835 -0.2834  0.6135
18667SOL    HW158155   0.773   1.083   8.202  0.0540  0.2502 -1.4333
18667SOL    HW258156   0.639   1.138   8.246 -0.0158 -0.7449 -0.3584
18668SOL     OW58157   6.377   9.143   5.871 -0.6236  0.7727  0.0176
18668SOL    HW158158   6.367   9.235   5.845  1.4201  1.3805  1.1775
18668SOL    HW258159   6.347   9.094   5.795 -2.6605  2.3526 -0.2909
18669SOL     OW58160   6.138   1.708   0.663 -0.1664 -0.5707 -0.4569
18669SOL    HW158161   6.216   1.761   0.680 -1.6726  1.1091  1.8084
18669SOL    HW258162   6.113   1.730   0.573  0.4061  1.0518 -0.2604
18670SOL     OW58163   5.867   0.337   0.343  0.2993 -0.0894 -0.7941
18670SOL    HW158164   5.815   0.313   0.420  0.8162 -0.5977 -0.5953
18670SOL    HW258165   5.851   0.430   0.332  0.1224 -0.0342 -0.1395
18671SOL     OW58166   4.808   5.694   1.490  0.0863  0.2688  0.2249
18671SOL    HW158167   4.736   5.757   1.496  0.1208  0.2932  0.3863
18671SOL    HW258168   4.773   5.624   1.435 -0.9321 -0.8699  2.2238
18672SOL     OW58169   9.302   6.398   3.998  0.0805 -0.3291 -0.1159
18672SOL    HW158170   9.331   6.439   4.079  0.1924 -2.2885  0.9032
18672SOL    HW258171   9.210   6.375   4.014  0.8161 -3.1562  0.5791
18673SOL     OW58172   4.815   7.652   4.792 -0.0209  0.4187  0.2569
18673SOL    HW158173   4.768   7.665   4.710 -0.6046  0.8045  0.6438
18673SOL    HW258174   4.782   7.721   4.850  1.3587  0.9942  0.3967
18674SOL     OW58175   0.259   3.740   0.640 -0.0547 -0.5708 -0.0560
18674SOL    HW158176   0.186   3.729   0.702 -1.7612  2.8657 -1.2120
18674SOL    HW258177   0.250   3.665   0.581 -1.6311 -1.1286  0.8037
18675SOL     OW58178   0.331   4.754   8.063 -0.4816  0.4870  0.0047
18675SOL    HW158179   0.266   4.738   8.132 -1.2245  2.0968 -0.2876
18675SOL    HW258180   0.400   4.803   8.107 -0.9541  1.5119 -0.3553
18676SOL     OW58181   8.063   9.590   0.830  0.6302  0.2404 -0.3549
18676SOL    HW158182   8.136   9.577   0.891  1.0467  1.1176 -0.6600
18676SOL    HW258183   8.043   9.502   0.798 -0.3476 -0.4119  1.8795
18677SOL     OW58184   8.117   5.096   9.556 -0.4480 -0.3866  0.0427
18677SOL    HW158185   8.171   5.047   9.619 -1.0518 -0.2464  0.6752
18677SOL    HW258186   8.029   5.094   9.593 -0.5208  1.0413  0.0096
18678SOL     OW58187   4.889   8.159   2.296  0.7392  0.0876 -0.0212
18678SOL    HW158188   4.963   8.098   2.302 -0.1210 -0.8317  2.5862
18678SOL    HW258189   4.821   8.110   2.250  0.4668 -0.5313  1.0062
18679SOL     OW58190   3.517   8.760   0.967 -0.4137  0.9206  0.1390
18679SOL    HW158191   3.463   8.804   1.033 -0.1433  0.9805  0.3202
18679SOL    HW258192   3.474   8.780   0.884 -0.6785  0.9576  0.2839
18680SOL     OW58193   8.018   2.494   4.339  0.0114 -0.2115 -0.0135
18680SOL    HW158194   8.085   2.442   4.382  0.3403  0.4787  0.3182
18680SOL    HW258195   8.013   2.459   4.250 -0.5257 -1.5084  0.4979
18681SOL     OW58196   2.473   3.505   9.508 -0.0353 -0.3951  0.0712
18681SOL    HW158197   2.429   3.590   9.518 -3.3487 -1.8818 -0.6040
18681SOL    HW258198   2.504   3.484   9.596  0.8836  1.4598  0.2564
18682SOL     OW58199   3.041   7.325   1.093 -0.0926  0.1005  0.0918
18682SOL    HW158200   3.028   7.407   1.141  1.1889  0.4988 -0.2135
18682SOL    HW258201   3.075   7.352   1.008  1.2517 -0.7937  0.3203
18683SOL     OW58202   1.217   7.284   3.706 -0.1315 -0.3586  0.1144
18683SOL    HW158203   1.128   7.284   3.671  0.2658 -2.6697 -1.0655
18683SOL    HW258204   1.272   7.256   3.633  1.2618 -1.2457  1.4356
18684SOL     OW58205   3.554   8.051   2.536  0.1331  0.1908  0.1115
18684SOL    HW158206   3.520   8.136   2.564 -0.1755  0.3924 -0.8113
18684SOL    HW258207   3.612   8.023   2.606 -1.5820  0.0632  1.5379
18685SOL     OW58208   3.325   2.913   1.525  0.0659 -0.0550 -0.0659
18685SOL    HW158209   3.317   2.903   1.430  2.3907 -0.5141 -0.2777
18685SOL    HW258210   3.324   3.007   1.539  0.1946  0.0345 -0.6118
18686SOL     OW58211   2.184   1.599   0.603  0.1438 -0.0424 -0.3311
18686SOL    HW158212   2.142   1.520   0.637 -1.6840  1.0436  0.0409
18686SOL    HW258213   2.206   1.650   0.680  0.3442  0.2993 -0.6089
18687SOL     OW58214   0.258   5.786   6.338  0.4608 -0.1749  0.0493
18687SOL    HW158215   0.238   5.769   6.430 -2.1196  1.5216 -0.1111
18687SOL    HW258216   0.194   5.733   6.289  0.2233  0.7548 -0.6789
18688SOL     OW58217   4.346   9.130   4.923  0.3796 -0.0819 -0.1878
18688SOL    HW158218   4.282   9.061   4.940 -0.5034  0.5022 -0.9769
18688SOL    HW258219   4.357   9.174   5.007 -1.0749  0.4494 -0.2429
18689SOL     OW58220   9.246   1.262   2.961  0.0697  0.2098 -0.5071
18689SOL    HW158221   9.207   1.219   3.037 -1.6892  1.7158 -0.4800
18689SOL    HW258222   9.334   1.287   2.990 -0.7503  1.2140  1.2670
18690SOL     OW58223   4.406   6.871   1.223 -0.2366  0.1656 -0.1747
18690SOL    HW158224   4.356   6.876   1.142 -1.3199 -0.2714  0.4494
18690SOL    HW258225   4.463   6.948   1.221 -1.2244  0.9025 -0.7039
18691SOL     OW58226   8.088   2.190   8.076 -0.3281  0.3395 -0.1956
18691SOL    HW158227   8.120   2.204   8.166 -1.2045 -1.0223  0.3602
18691SOL    HW258228   8.164   2.209   8.021  0.0980  1.6577  0.7929
18692SOL     OW58229   8.993   6.224   2.942  0.3801 -0.0529  0.1224
18692SOL    HW158230   8.930   6.264   2.883 -0.1329 -0.5517  0.3163
18692SOL    HW258231   9.078   6.253   2.910  0.1465 -0.7595 -1.2050
18693SOL     OW58232   8.005   6.272   7.290 -0.0900 -0.0734  0.1583
18693SOL    HW158233   7.930   6.277   7.349 -1.0856  0.1655 -1.0734
18693SOL    HW258234   8.081   6.273   7.348 -1.0253 -0.3064  1.4466
18694SOL     OW58235   0.220   8.132   6.093  0.5636  0.9819 -0.0725
18694SOL    HW158236   0.307   8.155   6.127  0.5503  0.8776  0.0327
18694SOL    HW258237   0.227   8.039   6.072  0.5786  1.0498 -0.3744
18695SOL     OW58238   0.998   7.625   8.301  0.2658  0.1051 -0.1055
18695SOL    HW158239   1.083   7.589   8.326  1.5389  1.1403 -2.6085
18695SOL    HW258240   0.953   7.553   8.258  0.2203 -0.2044  0.4524
18696SOL     OW58241   0.715   0.480   8.498  0.0230 -0.1957 -0.1316
18696SOL    HW158242   0.777   0.476   8.571 -0.2121  1.3509  0.1713
18696SOL    HW258243   0.659   0.403   8.511  0.7683 -0.6375  0.5944
18697SOL     OW58244   2.834   3.435   1.868 -0.1008  0.2282 -0.5017
18697SOL    HW158245   2.898   3.479   1.812  0.9419  2.0945  1.9219
18697SOL    HW258246   2.765   3.500   1.881  0.0751  0.1629  0.9492
18698SOL     OW58247   8.936   2.899   2.431 -0.4338  0.3878  1.1130
18698SOL    HW158248   8.859   2.870   2.480 -0.3109  1.0380  1.7032
18698SOL    HW258249   8.950   2.989   2.458  0.3874  0.3622  0.8218
18699SOL     OW58250   5.953   8.884   6.970 -0.1210 -0.1118  0.9325
18699SOL    HW158251   6.009   8.962   6.970  1.5101 -1.1746 -1.3307
18699SOL    HW258252   6.010   8.813   6.999 -0.4673 -1.0801 -0.6207
18700SOL     OW58253   7.368   9.332   0.606  0.5427 -0.3798  0.2475
18700SOL    HW158254   7.461   9.352   0.610  0.4777  0.1435 -0.6012
18700SOL    HW258255   7.360   9.267   0.536  0.3611 -1.0032  0.8407
18701SOL     OW58256   1.467   1.385   1.186 -0.2698  0.0168  0.2715
18701SOL    HW158257   1.492   1.430   1.267  1.5584 -0.0066 -0.2364
18701SOL    HW258258   1.435   1.299   1.215  0.9659 -0.2368  0.9411
18702SOL     OW58259   2.792   6.011   2.986  0.1136  0.6540 -0.5668
18702SOL    HW158260   2.769   6.085   2.928 -1.2219 -0.1344 -1.0945
18702SOL    HW258261   2.780   6.046   3.074  0.4452  1.3589 -0.7899
18703SOL     OW58262   9.355   4.860   2.664  0.0778 -0.0819  0.4793
18703SOL    HW158263   9.337   4.932   2.724  0.3872 -0.1884  0.6974
18703SOL    HW258264   9.268   4.825   2.642 -0.2925  1.7627 -1.3811
18704SOL     OW58265   8.892   4.340   8.749 -0.1726 -0.1730  0.0651
18704SOL    HW158266   8.915   4.307   8.836 -1.9144 -1.4439  0.1139
18704SOL    HW258267   8.814   4.289   8.725 -0.2605  0.7966 -1.8548
18705SOL     OW58268   2.392   0.708   3.287 -0.1551  0.1103  0.1980
18705SOL    HW158269   2.384   0.619   3.322  1.4968  0.4242  1.4547
18705SOL    HW258270   2.377   0.698   3.193 -2.0318 -1.1610  0.5631
18706SOL     OW58271   1.491   2.999   2.985  0.1016  0.0800  0.6290
18706SOL    HW158272   1.529   2.915   2.959 -0.2434  0.2014 -0.2878
18706SOL    HW258273   1.450   3.033   2.905  0.3596  1.1910  0.9605
18707SOL     OW58274   0.033   3.784   7.672  0.0064 -0.1732  0.2030
18707SOL    HW158275   0.080   3.801   7.753  0.0650 -0.6339  0.2685
18707SOL    HW258276   0.101   3.786   7.604  0.1915 -1.2224  0.3447
18708SOL     OW58277   2.138   5.289   8.011  0.3219 -0.1930  0.2900
18708SOL    HW158278   2.105   5.256   8.095  0.3068 -1.8677 -0.3351
18708SOL    HW258279   2.060   5.300   7.957  0.4564 -0.6342 -0.0026
18709SOL     OW58280   0.462   9.090   3.618 -0.0333 -0.1638 -0.3987
18709SOL    HW158281   0.417   9.029   3.559 -0.4614 -0.1202 -0.1235
18709SOL    HW258282   0.409   9.089   3.698 -0.7659  1.5037 -0.8217
18710SOL     OW58283   6.834   8.299   0.513 -0.4240  0.0285  0.1674
18710SOL    HW158284   6.765   8.348   0.559 -0.7333 -0.2795  0.0404
18710SOL    HW258285   6.793   8.215   0.492  0.4563 -0.7259  1.3742
18711SOL     OW58286   2.936   9.408   7.789 -0.5828 -0.7017  0.9605
18711SOL    HW158287   2.969   9.472   7.851  0.1080 -0.7598  0.6540
18711SOL    HW258288   3.013   9.375   7.744 -1.0203 -1.0760  0.4640
18712SOL     OW58289   1.770   5.656   3.818 -0.5615  0.2797 -0.7922
18712SOL    HW158290   1.765   5.716   3.892  0.8812 -0.3663 -0.1152
18712SOL    HW258291   1.826   5.584   3.849  0.3351  0.1294 -2.5850
18713SOL     OW58292   3.428   2.445   8.582  0.1368  0.8046  0.2530
18713SOL    HW158293   3.486   2.385   8.630  0.0179  0.1110 -0.4433
18713SOL    HW258294   3.475   2.463   8.501 -0.7257  0.0050 -0.4499
18714SOL     OW58295   8.133   3.719   7.635  0.1840 -0.0963 -0.1636
18714SOL    HW158296   8.161   3.728   7.544 -1.5417  1.9843 -0.5595
18714SOL    HW258297   8.162   3.800   7.677 -0.5487 -0.2836  0.7228
18715SOL     OW58298   7.906   8.667   1.463 -0.1573  0.6778  0.0982
18715SOL    HW158299   7.912   8.572   1.456 -1.8184  0.6482 -1.7568
18715SOL    HW258300   7.835   8.683   1.524  0.7955  0.7795  1.2207
18716SOL     OW58301   5.080   2.103   5.268  0.4972  0.1882 -0.3446
18716SOL    HW158302   5.013   2.167   5.293 -0.6657 -1.1070 -0.0140
18716SOL    HW258303   5.145   2.108   5.338  0.1551  0.6449 -0.0528
18717SOL     OW58304   5.426   5.671   4.062 -0.6783  0.4181 -0.1838
18717SOL    HW158305   5.463   5.583   4.053  0.9390  1.0046  0.3527
18717SOL    HW258306   5.380   5.669   4.146  0.6364  0.4778  0.5673
18718SOL     OW58307   2.483   9.573   9.550  0.2884 -0.0596 -0.1488
18718SOL    HW158308   2.433   9.502   9.592 -0.1353 -1.0934 -2.2154
18718SOL    HW258309   2.442   9.653   9.581 -1.0850 -0.8258  0.1216
18719SOL     OW58310   4.952   3.923   8.780 -0.1443 -0.5949 -0.3160
18719SOL    HW158311   5.047   3.910   8.782 -0.1919 -0.8611  0.7923
18719SOL    HW258312   4.941   4.017   8.768  0.3026 -0.2463  1.6725
18720SOL     OW58313   2.572   0.960   2.794  0.0974  0.2993 -0.0476
18720SOL    HW158314   2.551   0.957   2.887  0.9304  0.7684  0.1677
18720SOL    HW258315   2.660   0.922   2.788 -0.2933 -0.5372 -0.7604
18721SOL     OW58316   8.918   4.506   6.273 -0.3021  0.2697  0.1759
18721SOL    HW158317   8.836   4.472   6.310  0.7456 -1.8544  0.7205
18721SOL    HW258318   8.977   4.431   6.275  0.7122  0.8295 -3.1727
18722SOL     OW58319   5.999   7.764   2.547 -0.2474 -0.4767  0.0244
18722SOL    HW158320   6.066   7.833   2.551  1.2839 -1.8373 -0.9717
18722SOL    HW258321   5.942   7.782   2.622  0.1258  1.8173 -0.1736
18723SOL     OW58322   9.186   3.599   3.219 -0.1906  0.1793  0.1010
18723SOL    HW158323   9.190   3.671   3.156 -0.8405 -1.1884 -1.6118
18723SOL    HW258324   9.109   3.548   3.192 -0.1337 -0.7977  1.6556
18724SOL     OW58325   6.456   4.813   0.737 -0.0498 -0.4198 -0.0640
18724SOL    HW158326   6.435   4.870   0.810  2.1499 -1.3477  1.3881
18724SOL    HW258327   6.386   4.747   0.736 -0.2497 -0.2345  1.0408
18725SOL     OW58328   4.512   4.745   4.109  0.3550 -0.9361  0.3596
18725SOL    HW158329   4.458   4.776   4.182  0.3122 -0.7088  0.2312
18725SOL    HW258330   4.558   4.823   4.078  0.4251 -1.0458  0.1868
18726SOL     OW58331   8.750   1.947   9.138 -0.3222 -0.3623 -0.2586
18726SOL    HW158332   8.814   1.925   9.206  1.8305  1.1269 -1.6721
18726SOL    HW258333   8.747   2.043   9.139 -3.2479 -0.3712  0.2995
18727SOL     OW58334   7.661   0.244   0.867 -0.2647 -0.2142  0.4966
18727SOL    HW158335   7.706   0.239   0.952 -1.5655 -0.8892  1.1837
18727SOL    HW258336   7.677   0.160   0.826  1.1803  0.4695 -0.3823
18728SOL     OW58337   0.734   4.158   2.512  0.3051  0.2574  0.5355
18728SOL    HW158338   0.653   4.132   2.557 -0.0365  3.0808  1.7852
18728SOL    HW258339   0.804   4.124   2.567 -0.0376 -0.6261  0.4402
18729SOL     OW58340   1.093   6.093   1.591  0.2948 -0.4850 -0.1359
18729SOL    HW158341   1.061   6.072   1.504  1.5982 -0.4542 -0.6417
18729SOL    HW258342   1.139   6.014   1.619  3.2772  0.7633 -1.1232
18730SOL     OW58343   6.498   0.736   5.866  0.4764  0.2705 -0.7560
18730SOL    HW158344   6.501   0.829   5.885  2.3847  0.1583 -0.3026
18730SOL    HW258345   6.565   0.698   5.923  0.2125 -1.2894 -1.4294
18731SOL     OW58346   4.749   7.326   5.487  0.0863 -0.1195 -0.2673
18731SOL    HW158347   4.827   7.382   5.483 -1.9148  2.8690 -1.1723
18731SOL    HW258348   4.751   7.288   5.575  1.8344  0.9860  0.2175
18732SOL     OW58349   4.780   0.379   2.734  0.2078  0.3363  0.2826
18732SOL    HW158350   4.872   0.402   2.749  0.0608  0.2937  1.3973
18732SOL    HW258351   4.770   0.377   2.639  1.0234  1.6521  0.1476
18733SOL     OW58352   4.596   9.613   4.202 -0.2033  0.3524  0.1593
18733SOL    HW158353   4.583   9.535   4.257 -2.0297  0.6679  0.2345
18733SOL    HW258354   4.577   9.686   4.260  1.2978  0.8765  0.0277
18734SOL     OW58355   5.421   3.053   8.415 -0.3514  0.0590  0.4077
18734SOL    HW158356   5.386   3.064   8.503 -1.9534  0.3358 -0.2413
18734SOL    HW258357   5.418   3.140   8.376 -1.7574 -0.4321 -0.6560
18735SOL     OW58358   2.441   4.723   2.510 -0.0464 -0.3187  0.7132
18735SOL    HW158359   2.383   4.779   2.459 -0.6830 -1.0702  0.5932
18735SOL    HW258360   2.415   4.634   2.486  1.4494 -0.6748  0.3206
18736SOL     OW58361   8.551   5.048   6.374 -0.0765  0.2191 -0.2480
18736SOL    HW158362   8.630   5.000   6.348 -1.1228 -1.7206  0.0094
18736SOL    HW258363   8.584   5.118   6.430  1.5160 -0.2102 -0.5876
18737SOL     OW58364   8.640   2.181   4.910  0.6829 -0.3550  0.1722
18737SOL    HW158365   8.699   2.113   4.942 -1.0536 -0.6254  3.1226
18737SOL    HW258366   8.690   2.262   4.919  0.8167 -0.6209  2.2671
18738SOL     OW58367   1.452   3.196   5.802 -0.5241 -0.1048 -0.1105
18738SOL    HW158368   1.387   3.231   5.741  0.9286  0.6767 -1.2930
18738SOL    HW258369   1.533   3.192   5.751  0.6282  0.0371  1.6051
18739SOL     OW58370   3.652   4.775   0.110  0.2998 -0.0947  0.0436
18739SOL    HW158371   3.710   4.801   0.182 -1.0483  0.3873  0.9929
18739SOL    HW258372   3.650   4.851   0.051 -1.2943  0.9020  1.2968
18740SOL     OW58373   4.563   2.641   9.531  0.2721 -0.0003  0.1119
18740SOL    HW158374   4.519   2.667   9.450 -0.4364 -1.6811 -0.0779
18740SOL    HW258375   4.560   2.719   9.586 -1.5617  0.3954 -0.4929
18741SOL     OW58376   7.135   6.353   1.996  0.2941 -0.7317  0.3331
18741SOL    HW158377   7.089   6.348   1.913  0.1961 -0.9748  0.4028
18741SOL    HW258378   7.104   6.277   2.046  1.3714 -1.3545  0.0769
18742SOL     OW58379   2.617   0.327   7.941 -0.1423  0.1066  0.0148
18742SOL    HW158380   2.698   0.376   7.953  0.6150 -0.6915 -1.4855
18742SOL    HW258381   2.621   0.255   8.003  1.0447 -0.7868 -1.0484
18743SOL     OW58382   3.425   1.951   8.921 -0.1775  0.3342 -0.3977
18743SOL    HW158383   3.385   1.883   8.866 -1.6690  0.1482  0.8676
18743SOL    HW258384   3.473   1.903   8.988 -1.4907  0.4997  0.6853
18744SOL     OW58385   0.365   3.408   6.144  0.3985 -0.5947  0.2320
18744SOL    HW158386   0.436   3.360   6.102  0.1675 -1.3275  0.6563
18744SOL    HW258387   0.292   3.402   6.081  1.2072  1.7179 -1.0453
18745SOL     OW58388   6.805   7.456   7.379  0.0976 -0.6686  0.0096
18745SOL    HW158389   6.710   7.447   7.382  0.1803 -1.3527  0.9211
18745SOL    HW258390   6.837   7.366   7.372  0.6873 -0.4520 -0.1719
18746SOL     OW58391   5.166   4.468   7.019 -0.1001  0.2030  0.3205
18746SOL    HW158392   5.228   4.404   6.984 -1.8664 -1.2869 -0.2071
18746SOL    HW258393   5.221   4.541   7.047  1.7814 -0.5112 -1.2910
18747SOL     OW58394   1.256   5.204   7.960  0.2331  0.4376  0.2463
18747SOL    HW158395   1.183   5.239   7.909  0.3910 -2.6914 -2.4740
18747SOL    HW258396   1.216   5.175   8.042 -1.1923  0.5609 -0.3697
18748SOL     OW58397   5.471   8.862   6.653  0.1473  0.0664 -0.0490
18748SOL    HW158398   5.563   8.873   6.627  0.0011 -1.1598 -1.1975
18748SOL    HW258399   5.431   8.947   6.639  0.8355  0.2940 -0.6925
18749SOL     OW58400   8.158   7.367   9.330 -0.1273 -0.3153  0.5061
18749SOL    HW158401   8.116   7.333   9.409 -0.8446  0.0541  0.2935
18749SOL    HW258402   8.213   7.438   9.362  0.1770 -0.6630  0.7640
18750SOL     OW58403   7.230   8.349   5.983  0.2598 -0.8148 -0.7218
18750SOL    HW158404   7.161   8.369   5.920 -0.0791 -1.3629 -0.5280
18750SOL    HW258405   7.311   8.373   5.937 -0.1410  2.1631 -0.0765
18751SOL     OW58406   6.628   4.992   2.701  0.0797  0.0454 -0.0566
18751SOL    HW158407   6.585   5.039   2.630 -1.3258  0.6666  1.1542
18751SOL    HW258408   6.594   4.903   2.695  0.4912 -0.0824 -0.5620
18752SOL     OW58409   3.431   4.641   4.360 -0.1633 -0.3409 -0.2789
18752SOL    HW158410   3.483   4.711   4.321  2.1906 -1.3992  0.7518
18752SOL    HW258411   3.346   4.681   4.379  0.9597  2.1059 -0.0722
18753SOL     OW58412   0.520   4.932   4.943  0.1337  0.2667 -0.0911
18753SOL    HW158413   0.444   4.917   4.887 -0.2087  0.6529  0.2702
18753SOL    HW258414   0.532   4.849   4.990 -0.1652  0.2595 -0.0278
18754SOL     OW58415   9.399   1.747   0.533  0.6810  1.0578  0.1824
18754SOL    HW158416   9.445   1.692   0.470  1.9372  0.8899  1.2008
18754SOL    HW258417   9.457   1.821   0.548 -0.3012  1.8916 -0.0112
18755SOL     OW58418   1.830   1.790   9.131 -0.0352  0.3031 -0.0899
18755SOL    HW158419   1.807   1.721   9.193  2.4483  1.1325  1.9180
18755SOL    HW258420   1.837   1.745   9.046 -1.2582 -1.3129  0.6180
18756SOL     OW58421   4.994   8.540   2.462  0.4518 -0.0982 -0.0646
18756SOL    HW158422   5.080   8.542   2.504  2.2016  1.5535 -3.3212
18756SOL    HW258423   4.957   8.627   2.478 -0.7469 -0.8383  1.4246
18757SOL     OW58424   7.468   1.970   7.219 -0.5742 -0.2183  0.1897
18757SOL    HW158425   7.379   1.996   7.193 -0.9342  0.1276  1.6584
18757SOL    HW258426   7.486   1.892   7.166 -0.7814  1.0541 -1.8831
18758SOL     OW58427   5.474   9.156   4.129 -0.1397  0.3095  0.4052
18758SOL    HW158428   5.478   9.063   4.154 -2.2523  0.1847  0.4551
18758SOL    HW258429   5.533   9.200   4.191  0.9787 -0.9904  0.3103
18759SOL     OW58430   6.340   4.007   2.618  0.5387  0.2238  0.2027
18759SOL    HW158431   6.244   4.002   2.619  0.5508 -0.1303  1.3966
18759SOL    HW258432   6.359   4.079   2.558 -0.3226 -1.8802 -2.8242
18760SOL     OW58433   4.903   3.846   3.605 -0.0913 -0.4674 -0.2963
18760SOL    HW158434   4.906   3.840   3.510  0.1193  0.2432 -0.3418
18760SOL    HW258435   4.810   3.853   3.626 -0.0759  1.8918 -0.6515
18761SOL     OW58436   7.053   9.222   4.345 -0.1857 -0.0598  1.0241
18761SOL    HW158437   7.032   9.132   4.371 -1.5930  0.1943  0.8406
18761SOL    HW258438   6.970   9.269   4.350  0.4604  1.1682  0.7964
18762SOL     OW58439   7.228   7.978   0.664  0.2375  0.0197  0.0368
18762SOL    HW158440   7.293   8.022   0.609 -0.3176  1.4098  0.4566
18762SOL    HW258441   7.280   7.921   0.721  0.8109 -1.8164 -2.1445
18763SOL     OW58442   4.174   4.130   9.161  0.3169 -0.1081 -0.3586
18763SOL    HW158443   4.267   4.138   9.140  0.3986  0.3970  0.1667
18763SOL    HW258444   4.134   4.208   9.122  0.2763  0.1896  0.2643
18764SOL     OW58445   2.401   9.325   1.681  0.1599  0.2357 -0.0228
18764SOL    HW158446   2.412   9.345   1.588 -0.4476  0.8631  0.0297
18764SOL    HW258447   2.489   9.329   1.718  0.3163  0.6384 -0.4419
18765SOL     OW58448   9.339   2.257   0.842 -0.9027  0.6016 -0.1436
18765SOL    HW158449   9.285   2.209   0.905 -0.0222  0.5246  0.5843
18765SOL    HW258450   9.418   2.203   0.833 -0.5840  1.1229 -0.5384
18766SOL     OW58451   0.593   6.230   8.110 -0.0080  0.7331 -0.1472
18766SOL    HW158452   0.656   6.291   8.072  0.1510  0.5448 -0.1901
18766SOL    HW258453   0.512   6.281   8.119  0.9828  2.0419  3.0055
18767SOL     OW58454   1.939   7.116   1.175  0.3333 -0.2530 -0.1353
18767SOL    HW158455   1.922   7.189   1.114  1.3167 -0.6877 -0.9604
18767SOL    HW258456   1.910   7.038   1.127  0.4196 -0.5306  0.2572
18768SOL     OW58457   3.062   7.740   9.038 -0.2967 -0.0074 -0.3956
18768SOL    HW158458   2.982   7.792   9.029 -0.2616  0.1606  0.1764
18768SOL    HW258459   3.031   7.655   9.070 -0.6555 -1.3588 -3.9595
18769SOL     OW58460   6.024   6.342   1.648  0.0541 -0.0051 -0.1871
18769SOL    HW158461   6.028   6.438   1.649 -0.2572  0.0072  0.1301
18769SOL    HW258462   5.931   6.322   1.656  0.0048 -0.3252 -1.4582
18770SOL     OW58463   0.938   4.376   8.230 -0.0373  0.0859 -0.2133
18770SOL    HW158464   0.880   4.423   8.170  0.3472 -0.2610 -0.8649
18770SOL    HW258465   0.911   4.284   8.221 -0.5409  0.1191  0.7801
18771SOL     OW58466   9.353   3.164   1.150 -0.3408  0.3304 -0.4993
18771SOL    HW158467   9.369   3.191   1.240 -0.9085 -2.5626  0.5788
18771SOL    HW258468   9.286   3.097   1.157  2.5286 -3.0852 -2.5306
18772SOL     OW58469   9.275   3.351   3.042 -0.3444 -0.0825 -0.5043
18772SOL    HW158470   9.319   3.381   3.122 -0.5891 -0.3187 -0.2768
18772SOL    HW258471   9.232   3.429   3.008 -1.2044 -0.2116  0.2333
18773SOL     OW58472   2.743   0.997   4.553  0.3622 -0.2141 -0.8687
18773SOL    HW158473   2.826   1.034   4.579  0.7745 -1.8389  0.2889
18773SOL    HW258474   2.750   0.904   4.574 -1.3993 -0.5672 -1.6092
18774SOL     OW58475   4.007   5.493   0.191  0.4518  0.2971 -0.2949
18774SOL    HW158476   4.008   5.407   0.150 -1.7911  0.9235 -1.8983
18774SOL    HW258477   4.091   5.533   0.168  0.4167 -0.4759 -1.8791
18775SOL     OW58478   9.009   3.052   5.212 -0.3774  0.0292 -0.4893
18775SOL    HW158479   9.088   3.099   5.186  0.2923 -1.1164 -0.5979
18775SOL    HW258480   8.942   3.082   5.151  0.5029 -0.5643 -1.8079
18776SOL     OW58481   0.170   7.568   4.722  0.1328  0.3976 -0.3904
18776SOL    HW158482   0.223   7.630   4.772 -2.5256  2.7871 -0.2616
18776SOL    HW258483   0.207   7.570   4.634 -1.0492  3.9188 -0.9564
18777SOL     OW58484   3.717   4.829   1.939 -0.2487 -0.1781 -0.0206
18777SOL    HW158485   3.706   4.922   1.919 -0.5591 -0.3762 -0.8043
18777SOL    HW258486   3.628   4.794   1.945 -0.1499 -0.2728  1.0542
18778SOL     OW58487   4.331   7.337   6.042 -0.2929  0.2454  0.2110
18778SOL    HW158488   4.404   7.333   5.981  0.9436  3.0208  1.3077
18778SOL    HW258489   4.369   7.312   6.127 -1.6134 -2.0570  0.2107
18779SOL     OW58490   5.811   3.860   5.034 -0.1787  0.2817 -0.4090
18779SOL    HW158491   5.766   3.876   5.117  2.3776  0.9865  0.9421
18779SOL    HW258492   5.865   3.782   5.051  0.9561  0.8889 -1.1452
18780SOL     OW58493   3.367   7.072   7.705 -0.5118 -0.3939  0.5064
18780SOL    HW158494   3.290   7.044   7.754 -0.1963 -0.7532  0.8031
18780SOL    HW258495   3.337   7.083   7.615 -0.8379 -0.8288  0.5614
18781SOL     OW58496   3.119   6.608   4.210  0.2213  0.3725 -0.0935
18781SOL    HW158497   3.171   6.644   4.139  1.1359  0.2613  0.5057
18781SOL    HW258498   3.038   6.659   4.210  0.6184  1.0064 -0.5979
18782SOL     OW58499   2.781   0.143   7.050 -0.1918 -0.2049  0.5480
18782SOL    HW158500   2.836   0.074   7.012  2.7194  2.2540 -0.0967
18782SOL    HW258501   2.822   0.162   7.134 -0.2705  1.4141  0.2456
18783SOL     OW58502   2.529   4.794   1.706 -0.3558 -0.1542 -0.4791
18783SOL    HW158503   2.542   4.754   1.620  0.6590  3.0147 -1.9627
18783SOL    HW258504   2.459   4.858   1.691  0.2723  0.8909  0.8486
18784SOL     OW58505   3.174   1.702   1.184  0.1570  0.3651  0.0810
18784SOL    HW158506   3.082   1.728   1.194 -0.4083 -1.5007  0.0768
18784SOL    HW258507   3.186   1.692   1.090  0.5943  1.3187  0.0259
18785SOL     OW58508   3.656   5.635   3.235  0.2631  0.2917  0.2061
18785SOL    HW158509   3.649   5.621   3.330  0.5291  0.9535  0.3258
18785SOL    HW258510   3.748   5.654   3.220  0.4473 -0.9165 -0.3486
18786SOL     OW58511   7.237   2.100   8.007  0.4882 -0.0031 -0.4667
18786SOL    HW158512   7.147   2.127   8.024 -0.2164 -1.8286 -1.0131
18786SOL    HW258513   7.283   2.181   7.987 -0.8478  1.0595  0.5557
18787SOL     OW58514   1.567   7.483   7.634  0.3669 -0.7058 -0.1292
18787SOL    HW158515   1.591   7.401   7.591  1.6645 -0.1450 -0.5504
18787SOL    HW258516   1.573   7.549   7.564 -1.3447 -0.3406  0.0336
18788SOL     OW58517   3.554   9.278   4.136  0.3291  0.3565 -0.2424
18788SOL    HW158518   3.589   9.366   4.146 -0.2653  0.4959  0.7192
18788SOL    HW258519   3.463   9.291   4.109 -0.3340  0.1038  1.7248
18789SOL     OW58520   8.806   5.532   0.399 -0.1314 -0.2358 -0.2520
18789SOL    HW158521   8.724   5.565   0.362 -0.6296 -1.6767 -0.5214
18789SOL    HW258522   8.865   5.528   0.324  0.3285  1.1405  0.0080
18790SOL     OW58523   3.600   3.525   9.435 -0.2845 -0.3994 -0.1565
18790SOL    HW158524   3.687   3.497   9.408  0.1936  0.5394  0.3609
18790SOL    HW258525   3.546   3.512   9.357  0.1945 -1.4514 -0.3356
18791SOL     OW58526   8.259   3.365   3.344  0.5670  0.6410 -0.4165
18791SOL    HW158527   8.270   3.270   3.338  3.1059  0.6326  2.2717
18791SOL    HW258528   8.279   3.397   3.255  0.0979 -1.2579 -1.2523
18792SOL     OW58529   5.251   6.700   0.703 -0.1201  0.0926  0.2068
18792SOL    HW158530   5.162   6.707   0.668 -0.2227 -0.9509  0.2232
18792SOL    HW258531   5.301   6.660   0.632  0.3098  0.5582  0.2464
18793SOL     OW58532   5.290   8.147   0.663  0.1500 -0.2656 -0.1009
18793SOL    HW158533   5.195   8.151   0.672 -0.0395 -0.9845 -1.4872
18793SOL    HW258534   5.313   8.057   0.685  0.3819 -0.3590 -0.6875
18794SOL     OW58535   3.381   1.170   4.732 -0.4075  0.0610  0.7228
18794SOL    HW158536   3.416   1.084   4.710 -1.2540 -0.0136 -0.4192
18794SOL    HW258537   3.288   1.153   4.751 -0.4253  0.6265  1.1562
18795SOL     OW58538   6.180   8.848   6.197  0.0719  0.3462 -0.3863
18795SOL    HW158539   6.101   8.800   6.219  0.8607  0.0098  1.9964
18795SOL    HW258540   6.240   8.782   6.162  0.2999  0.0192  0.5892
18796SOL     OW58541   3.077   0.198   4.211  0.1151  1.0504 -0.1915
18796SOL    HW158542   3.105   0.136   4.143  0.2217  0.8281  0.0566
18796SOL    HW258543   3.026   0.146   4.272 -0.3191  1.3298 -0.3074
18797SOL     OW58544   0.725   4.323   4.245  0.7179  0.2947  0.7128
18797SOL    HW158545   0.638   4.285   4.257  0.8062  0.3925  1.7662
18797SOL    HW258546   0.717   4.412   4.279  1.3886  0.0925  1.4347
18798SOL     OW58547   6.773   1.196   5.265  0.4074  0.2865 -0.4406
18798SOL    HW158548   6.801   1.105   5.272 -0.7003 -0.0640 -0.3713
18798SOL    HW258549   6.688   1.192   5.221  1.5306  1.4933 -2.9334
18799SOL     OW58550   4.727   1.061   7.509 -0.3167 -0.8452 -0.1917
18799SOL    HW158551   4.775   1.143   7.518 -0.8775 -0.7197  2.4838
18799SOL    HW258552   4.743   1.033   7.418 -0.3307  2.3097 -1.2627
18800SOL     OW58553   7.872   6.227   7.035  0.4718 -0.3620  0.5134
18800SOL    HW158554   7.813   6.288   7.080  0.8707  1.3864 -1.1755
18800SOL    HW258555   7.933   6.198   7.102 -0.7612 -0.2329  1.7368
18801SOL     OW58556   4.958   2.004   8.999  0.1432  0.0665 -0.1293
18801SOL    HW158557   4.913   1.926   8.966  0.5011  0.0814 -0.6653
18801SOL    HW258558   5.019   2.028   8.929  1.4673 -0.3538  0.8179
18802SOL     OW58559   1.587   6.917   6.059  0.2769  0.3395 -0.0378
18802SOL    HW158560   1.549   6.884   5.978  0.6810  2.4756 -1.1717
18802SOL    HW258561   1.642   6.846   6.091 -0.6910 -0.9214 -1.0672
18803SOL     OW58562   1.681   6.654   3.041 -0.4876 -0.0786  0.1913
18803SOL    HW158563   1.686   6.638   3.136 -1.3479 -2.1230 -0.0460
18803SOL    HW258564   1.763   6.698   3.020 -0.1655  0.2057  1.8471
18804SOL     OW58565   0.153   7.314   3.339 -0.0432 -0.0597 -0.1588
18804SOL    HW158566   0.224   7.366   3.377 -0.8044 -0.3876  1.8674
18804SOL    HW258567   0.152   7.234   3.392 -0.9879 -0.6825 -1.0991
18805SOL     OW58568   3.667   1.409   0.001 -0.3836  0.3029 -0.4475
18805SOL    HW158569   3.582   1.454   0.008 -0.2989  0.3843  0.1411
18805SOL    HW258570   3.670   1.378  -0.089  0.0905  2.5505 -1.2839
18806SOL     OW58571   7.253   4.922   0.091 -0.0572 -0.5116 -0.2144
18806SOL    HW158572   7.202   4.874   0.157  1.0308  0.2242  1.2226
18806SOL    HW258573   7.270   4.858   0.022 -3.5025 -0.6202 -1.1567
18807SOL     OW58574   3.281   4.785   1.206 -0.0337 -0.0450 -0.0309
18807SOL    HW158575   3.300   4.749   1.119 -0.0634  0.0592 -0.0803
18807SOL    HW258576   3.366   4.795   1.248 -0.0215 -0.1255 -0.0357
18808SOL     OW58577   5.981   6.598   1.600 -0.5996  0.0199 -0.0598
18808SOL    HW158578   6.001   6.617   1.508 -0.4486 -0.0818 -0.0472
18808SOL    HW258579   5.930   6.674   1.629  2.5202  1.9854  0.8514
18809SOL     OW58580   3.875   3.325   5.636 -0.3053  0.3227 -0.5016
18809SOL    HW158581   3.832   3.374   5.706 -0.5667  0.0608 -0.4783
18809SOL    HW258582   3.922   3.255   5.681 -1.1858 -0.3791 -0.6443
18810SOL     OW58583   4.223   1.129   7.549  0.0375  0.2878  0.1948
18810SOL    HW158584   4.274   1.131   7.469 -1.5197  2.6330 -0.8714
18810SOL    HW258585   4.259   1.200   7.602  0.1101 -0.3000  0.9547
18811SOL     OW58586   4.219   1.733   1.565  0.2687 -0.5765 -0.2166
18811SOL    HW158587   4.263   1.735   1.480  0.5940 -1.4046 -0.0795
18811SOL    HW258588   4.288   1.711   1.628  0.0016 -0.1157  0.2417
18812SOL     OW58589   4.649   9.221   2.583 -1.0684 -0.0091  0.1842
18812SOL    HW158590   4.638   9.262   2.497 -0.4994  0.2931  0.2486
18812SOL    HW258591   4.718   9.155   2.568  0.3014  1.2246  0.7814
18813SOL     OW58592   6.527   0.903   3.284 -0.2115 -0.0428 -0.0637
18813SOL    HW158593   6.488   0.961   3.218 -1.0829 -2.2305 -1.5828
18813SOL    HW258594   6.458   0.891   3.349 -0.1650  0.3037  0.0524
18814SOL     OW58595   8.796   6.594   4.364  0.4463 -0.9336 -0.5611
18814SOL    HW158596   8.864   6.586   4.431  0.2104  0.0977 -0.1820
18814SOL    HW258597   8.735   6.659   4.399  0.1581 -0.6027 -1.6461
18815SOL     OW58598   4.467   9.283   5.447  0.1350 -0.2189  0.3536
18815SOL    HW158599   4.454   9.209   5.389  0.8819 -0.9832  1.1355
18815SOL    HW258600   4.554   9.317   5.425 -0.6053  1.0903 -0.7045
18816SOL     OW58601   9.286   8.551   4.878  0.7657  0.1354 -0.4386
18816SOL    HW158602   9.331   8.488   4.821  1.8515  0.4726  0.0207
18816SOL    HW258603   9.308   8.522   4.967 -0.2040  0.1268 -0.1896
18817SOL     OW58604   3.471   1.261   9.126 -0.4042  0.1949  0.1994
18817SOL    HW158605   3.509   1.186   9.081  0.3566  0.5120  0.3046
18817SOL    HW258606   3.376   1.252   9.112 -0.1907  0.3176 -1.5478
18818SOL     OW58607   2.464   5.026   1.524  0.0217  0.0070  0.1412
18818SOL    HW158608   2.441   5.057   1.437 -2.3762 -3.2674 -0.6164
18818SOL    HW258609   2.398   5.065   1.582 -0.5282 -0.4696 -0.1468
18819SOL     OW58610   7.041   4.022   8.266 -0.0094 -0.0486  0.5409
18819SOL    HW158611   7.035   3.989   8.176  1.4660 -1.9930  1.0919
18819SOL    HW258612   6.998   3.956   8.319  1.2906 -0.1787  1.4967
18820SOL     OW58613   7.931   6.905   9.508  0.1294 -0.3900 -0.1572
18820SOL    HW158614   7.877   6.828   9.526  0.4012 -0.7034 -0.6335
18820SOL    HW258615   7.977   6.883   9.426  1.4006 -0.3766  0.5162
18821SOL     OW58616   4.800   8.341   2.459 -0.0665 -0.3024 -0.2436
18821SOL    HW158617   4.832   8.279   2.394 -0.6037 -0.4862 -0.3347
18821SOL    HW258618   4.866   8.410   2.460  0.4013 -0.7388 -0.3320
18822SOL     OW58619   6.240   3.348   7.015 -0.2701  0.0224 -0.7474
18822SOL    HW158620   6.186   3.399   6.955 -0.7534  0.7595  0.2870
18822SOL    HW258621   6.177   3.298   7.067 -0.1253  2.0073  1.4886
18823SOL     OW58622   6.256   1.796   3.299  0.4040 -0.0123  0.0561
18823SOL    HW158623   6.301   1.765   3.221  0.9370 -1.2896  0.8258
18823SOL    HW258624   6.206   1.720   3.329  0.6531  0.2686  1.2542
18824SOL     OW58625   4.812   2.442   2.800  0.0018 -0.0262  0.8549
18824SOL    HW158626   4.759   2.402   2.731 -0.5160  1.2928  0.4574
18824SOL    HW258627   4.752   2.456   2.872  0.5230 -1.3089  1.5830
18825SOL     OW58628   4.469   6.172   1.996  0.4719  0.1289 -0.1933
18825SOL    HW158629   4.445   6.093   2.045  0.0232 -0.9272 -1.9965
18825SOL    HW258630   4.562   6.161   1.976  0.8805  0.9888  1.1203
18826SOL     OW58631   5.798   5.363   5.408 -0.1166 -0.3553  0.2691
18826SOL    HW158632   5.829   5.306   5.479 -0.1540 -1.4102 -0.5270
18826SOL    HW258633   5.785   5.303   5.334 -0.1775  0.7023 -0.5971
18827SOL     OW58634   4.351   8.668   3.475 -0.6418 -0.5477 -0.6049
18827SOL    HW158635   4.295   8.722   3.531 -3.6459 -1.6655 -2.3138
18827SOL    HW258636   4.362   8.719   3.395 -0.9822 -1.1895 -1.0705
18828SOL     OW58637   1.197   2.123   8.181 -0.1301 -0.1046 -0.3177
18828SOL    HW158638   1.265   2.093   8.242  0.5228  1.9403  0.0345
18828SOL    HW258639   1.230   2.097   8.095  0.5623 -0.1396 -0.0516
18829SOL     OW58640   3.901   5.735   0.036  0.3813 -0.2378  0.0558
18829SOL    HW158641   3.864   5.797   0.099 -0.0360 -0.1545 -0.2647
18829SOL    HW258642   3.941   5.667   0.090  0.1112 -0.1182  0.4117
18830SOL     OW58643   1.085   7.662   2.947  0.4956  0.5537 -0.1994
18830SOL    HW158644   1.043   7.719   3.011 -3.2177 -0.7929 -1.1530
18830SOL    HW258645   1.153   7.616   2.996  0.8384  2.7708  1.5679
18831SOL     OW58646   6.360   7.940   8.039  0.0594 -0.0879 -0.1808
18831SOL    HW158647   6.373   7.871   7.974  0.0979 -0.3521  0.1087
18831SOL    HW258648   6.277   7.918   8.082 -0.6316  0.7847 -1.0093
18832SOL     OW58649   1.058   4.231   1.377 -0.1144 -0.2183  0.0348
18832SOL    HW158650   1.114   4.305   1.351 -0.0512  0.2933  1.5287
18832SOL    HW258651   0.976   4.246   1.331  0.0484  0.5552 -0.0189
18833SOL     OW58652   9.018   1.279   7.005 -0.4854  0.2210  0.0305
18833SOL    HW158653   8.982   1.364   6.978 -0.9004  0.9480  2.5884
18833SOL    HW258654   8.942   1.224   7.020 -0.2249 -0.5394 -1.2705
18834SOL     OW58655   5.987   0.400   8.255  0.2325  0.0893 -0.0963
18834SOL    HW158656   6.059   0.362   8.305 -0.7025 -1.8959 -0.1339
18834SOL    HW258657   5.914   0.339   8.269 -0.8682  0.9963 -1.5905
18835SOL     OW58658   6.561   2.857   0.337 -0.0681 -0.1096  0.1800
18835SOL    HW158659   6.612   2.849   0.256 -0.1307  0.7333  0.0506
18835SOL    HW258660   6.525   2.945   0.335 -1.3603 -0.5978  0.3782
18836SOL     OW58661   8.530   2.143   2.553  0.1395  0.3120  0.7098
18836SOL    HW158662   8.473   2.104   2.620 -0.5810  0.6841  0.3341
18836SOL    HW258663   8.561   2.068   2.502 -0.4011  0.1310  0.6337
18837SOL     OW58664   3.403   3.126   3.785  0.3042  0.2860  0.2473
18837SOL    HW158665   3.430   3.209   3.824  2.6934 -0.8933  1.2954
18837SOL    HW258666   3.455   3.060   3.831  0.3035 -1.5675 -2.2306
18838SOL     OW58667   3.079   6.413   0.177 -0.2462 -0.6662 -0.0184
18838SOL    HW158668   3.174   6.412   0.172 -0.2848  0.3554 -1.3305
18838SOL    HW258669   3.049   6.403   0.087 -1.3538  0.6033  0.1702
18839SOL     OW58670   3.409   2.226   5.032 -0.6124 -0.4498 -0.4025
18839SOL    HW158671   3.488   2.228   4.976  0.6470 -1.0608  1.2733
18839SOL    HW258672   3.437   2.264   5.115 -2.0182 -0.9607  0.3382
18840SOL     OW58673   6.102   5.632   9.597  0.4556  0.0558  0.0373
18840SOL    HW158674   6.031   5.589   9.549 -0.8391 -0.1944  2.0391
18840SOL    HW258675   6.116   5.714   9.551 -0.6094 -0.2327 -0.8496
18841SOL     OW58676   4.969   9.361   5.349 -0.2823 -0.3719 -0.2294
18841SOL    HW158677   4.941   9.395   5.434  0.5198  2.6269 -1.0504
18841SOL    HW258678   5.059   9.331   5.363  0.5380  1.8509 -0.3333
18842SOL     OW58679   7.520   5.471   3.824  0.0762 -0.1348  1.1268
18842SOL    HW158680   7.554   5.405   3.764  0.1736  1.3099 -0.4655
18842SOL    HW258681   7.543   5.438   3.911  0.6173 -1.8996  0.3620
18843SOL     OW58682   6.325   2.436   1.399 -0.0040  0.5286 -0.0823
18843SOL    HW158683   6.240   2.477   1.417 -0.1008  0.6504 -0.7997
18843SOL    HW258684   6.311   2.343   1.417 -0.2458  0.5713 -0.0482
18844SOL     OW58685   5.920   0.954   4.938 -0.2243  0.2462  0.6315
18844SOL    HW158686   5.836   0.980   4.976 -1.5095 -1.7234 -0.6341
18844SOL    HW258687   5.946   0.876   4.988 -0.3277 -0.4629 -0.3748
18845SOL     OW58688   5.478   8.619   9.304 -0.8669 -0.6637 -0.3054
18845SOL    HW158689   5.531   8.628   9.225 -0.9523  0.0657 -0.2870
18845SOL    HW258690   5.415   8.692   9.299 -0.4563 -0.2220  0.7534
18846SOL     OW58691   5.039   7.615   0.673  0.5678  0.3100 -0.1739
18846SOL    HW158692   4.962   7.671   0.684  0.9990  1.0079 -0.6164
18846SOL    HW258693   5.068   7.595   0.762 -0.4300 -0.4012  0.0046
18847SOL     OW58694   2.429   3.367   3.593 -0.1446  0.1977  0.0567
18847SOL    HW158695   2.455   3.369   3.501  0.3703  2.3850  0.2001
18847SOL    HW258696   2.403   3.276   3.609  1.4543 -0.6420 -1.7623
18848SOL     OW58697   2.453   0.526   5.218  0.3334  0.4297 -0.3373
18848SOL    HW158698   2.522   0.492   5.161 -0.6256  0.7570 -1.7292
18848SOL    HW258699   2.429   0.452   5.273  0.4504 -0.2447 -1.1781
18849SOL     OW58700   4.784   4.010   8.012 -0.5307 -0.1249 -0.4611
18849SOL    HW158701   4.854   4.076   8.017 -0.6738  0.1506 -1.6731
18849SOL    HW258702   4.738   4.031   7.930 -1.4959 -0.8364 -0.1107
18850SOL     OW58703   2.506   1.407   9.332 -0.3252 -0.2668 -0.0040
18850SOL    HW158704   2.414   1.416   9.305 -0.5245 -0.0919  0.7289
18850SOL    HW258705   2.502   1.382   9.424  0.3731  0.9321  0.3749
18851SOL     OW58706   7.158   5.030   3.699 -0.2262  1.2419 -0.6938
18851SOL    HW158707   7.209   4.996   3.625 -2.4598 -0.3442 -1.6065
18851SOL    HW258708   7.079   5.067   3.659 -1.5189  0.2840  0.8669
18852SOL     OW58709   4.004   3.550   5.890 -0.3346 -0.2183  0.0050
18852SOL    HW158710   3.935   3.574   5.951 -0.4463 -1.1157  0.2410
18852SOL    HW258711   3.975   3.585   5.805 -0.2818  0.8368  0.3976
18853SOL     OW58712   4.356   4.173   1.623 -0.0309 -0.2823 -0.3922
18853SOL    HW158713   4.422   4.172   1.554  1.3591 -1.0152  0.8986
18853SOL    HW258714   4.274   4.192   1.577  0.3019 -3.5621 -2.7199
18854SOL     OW58715   9.094   7.865   4.148  0.7167 -0.1591 -0.1469
18854SOL    HW158716   9.102   7.869   4.052 -1.2967 -1.2077 -0.4033
18854SOL    HW258717   9.005   7.895   4.165  1.0178 -0.0929  1.4139
18855SOL     OW58718   9.289   7.330   5.403  0.4912 -0.0549  0.3283
18855SOL    HW158719   9.248   7.365   5.324 -0.6719  1.0937  1.3976
18855SOL    HW258720   9.371   7.291   5.372 -0.7562 -1.2652 -1.6935
18856SOL     OW58721   6.602   8.723   2.540  0.2966  0.4641 -0.0428
18856SOL    HW158722   6.513   8.695   2.560 -0.1241  0.1213 -2.1466
18856SOL    HW258723   6.623   8.788   2.608 -1.3053  0.0986  0.8404
18857SOL     OW58724   0.824   0.674   6.771  0.4059  0.0872  0.8362
18857SOL    HW158725   0.903   0.718   6.803  0.8358  0.6833 -0.9027
18857SOL    HW258726   0.754   0.738   6.785  0.5326  0.2099  0.9110
18858SOL     OW58727   4.215   5.974   0.666  0.1715  0.9317 -0.1208
18858SOL    HW158728   4.121   5.988   0.679 -0.1082 -1.0501  0.2447
18858SOL    HW258729   4.228   5.881   0.681  2.1390  1.0761 -0.6491
18859SOL     OW58730   0.930   7.413   8.747 -0.3267 -0.1637 -0.3378
18859SOL    HW158731   1.009   7.413   8.801  0.2898 -0.8252 -1.2130
18859SOL    HW258732   0.947   7.478   8.679 -0.1859 -0.8938 -1.0124
18860SOL     OW58733   6.952   2.002   5.997  0.1051 -0.5342 -0.2581
18860SOL    HW158734   6.985   2.050   6.073 -0.1049  0.3143 -0.6955
18860SOL    HW258735   6.984   2.051   5.922 -0.1066 -1.0921 -0.7196
18861SOL     OW58736   1.188   6.999   5.830 -0.1800  0.3616  0.2440
18861SOL    HW158737   1.141   6.916   5.841  1.7732 -0.9938 -1.0717
18861SOL    HW258738   1.245   7.005   5.906  0.0435  0.2467  0.0850
18862SOL     OW58739   3.156   1.154   1.928  0.3308  0.0950 -0.0864
18862SOL    HW158740   3.219   1.145   1.857  0.6454 -1.9236  0.4015
18862SOL    HW258741   3.072   1.162   1.884  0.3981 -2.1641 -0.7410
18863SOL     OW58742   2.022   0.675   6.402  0.0926  0.2327  0.3836
18863SOL    HW158743   2.053   0.715   6.320  0.1460  0.3911  0.4786
18863SOL    HW258744   2.099   0.678   6.460 -0.3536  1.5139  0.9482
18864SOL     OW58745   1.200   9.386   0.637 -0.2673 -0.3810  0.3030
18864SOL    HW158746   1.239   9.306   0.602  1.4307  1.0953 -1.3881
18864SOL    HW258747   1.274   9.434   0.676  0.0044  2.7594 -3.4537
18865SOL     OW58748   4.877   8.070   1.868 -0.0071 -0.4383  0.3900
18865SOL    HW158749   4.845   7.981   1.885 -0.4502 -0.0812  1.4967
18865SOL    HW258750   4.808   8.127   1.902 -0.0211  0.3400 -0.8759
18866SOL     OW58751   6.100   3.741   8.163  0.2577  0.6525 -0.1034
18866SOL    HW158752   6.122   3.716   8.252  0.6962  0.9899 -0.1096
18866SOL    HW258753   6.183   3.735   8.115  0.0823  0.7360 -0.4224
18867SOL     OW58754   6.135   3.687   7.183  0.0718  0.7515 -0.1553
18867SOL    HW158755   6.130   3.742   7.106 -2.0784 -0.0370 -0.6338
18867SOL    HW258756   6.045   3.659   7.200  0.9795 -2.6157  0.0085
18868SOL     OW58757   1.051   0.768   2.523  0.1663 -0.7219 -0.2455
18868SOL    HW158758   1.101   0.692   2.553  1.8251 -0.5694 -2.3429
18868SOL    HW258759   1.083   0.840   2.578  1.6199 -0.8164 -0.9151
18869SOL     OW58760   5.991   3.537   0.507 -0.6579  0.4430 -0.5997
18869SOL    HW158761   6.082   3.558   0.485 -0.0966 -0.6608  0.5304
18869SOL    HW258762   5.959   3.613   0.554 -0.0417  0.5018 -0.2740
18870SOL     OW58763   4.162   8.924   4.917 -0.2405  0.1687 -0.7138
18870SOL    HW158764   4.145   8.917   4.823 -4.4273  0.4808 -0.1642
18870SOL    HW258765   4.201   8.840   4.940 -2.5625 -1.4487 -2.2128
18871SOL     OW58766   3.967   7.440   7.696  0.0260  0.4236 -0.0375
18871SOL    HW158767   3.952   7.377   7.767  2.1466 -0.2481 -0.1261
18871SOL    HW258768   3.884   7.487   7.689 -1.4158 -1.8482  0.5378
18872SOL     OW58769   8.416   5.630   2.499 -0.1571  0.2969 -0.0261
18872SOL    HW158770   8.383   5.542   2.480  1.4957 -0.3694  0.0149
18872SOL    HW258771   8.410   5.638   2.594 -2.5050  1.1886 -0.1779
18873SOL     OW58772   5.797   6.126   5.636 -0.3426  0.0154  0.3140
18873SOL    HW158773   5.722   6.180   5.611 -0.6108  0.3682  1.7483
18873SOL    HW258774   5.804   6.139   5.731  0.7497 -1.0186  0.3920
18874SOL     OW58775   3.295   0.909   4.911 -0.2030 -0.4746 -0.4407
18874SOL    HW158776   3.237   0.836   4.930 -0.1116 -0.8384 -1.5153
18874SOL    HW258777   3.373   0.869   4.872  0.5703  0.0469  0.5058
18875SOL     OW58778   2.192   9.013   6.155  0.3699 -1.1030 -0.5467
18875SOL    HW158779   2.261   8.977   6.100  2.3841  2.0550 -0.2983
18875SOL    HW258780   2.230   9.016   6.243 -0.7199 -0.8597 -0.0626
18876SOL     OW58781   2.253   6.721   9.528 -0.3088 -0.6062  0.5473
18876SOL    HW158782   2.242   6.788   9.460 -0.6854 -0.7208  0.4929
18876SOL    HW258783   2.271   6.641   9.480  0.5557 -0.4727  0.6246
18877SOL     OW58784   0.922   4.075   6.990 -0.4757  0.4665 -1.3222
18877SOL    HW158785   0.907   3.980   6.988  0.0757  0.2210  1.5878
18877SOL    HW258786   0.996   4.089   6.932 -0.9922 -0.7633 -2.3368
18878SOL     OW58787   3.153   7.624   4.360 -0.2319 -0.2485 -0.1193
18878SOL    HW158788   3.206   7.558   4.406  0.2964 -1.2408 -2.0740
18878SOL    HW258789   3.178   7.615   4.268  0.5816  3.3572 -0.3844
18879SOL     OW58790   9.403   3.344   0.230  0.4018  0.3373  0.1319
18879SOL    HW158791   9.308   3.342   0.244  0.5436  1.3350  1.3822
18879SOL    HW258792   9.438   3.280   0.292  0.5088 -0.6914 -0.9477
18880SOL     OW58793   9.074   0.326   2.059 -0.3360 -0.4130  0.1775
18880SOL    HW158794   9.152   0.345   2.008 -0.4620  1.2246  0.5561
18880SOL    HW258795   9.097   0.247   2.108  0.6533 -0.6143 -0.5730
18881SOL     OW58796   5.205   4.084   1.285  0.4501  0.0036  0.5942
18881SOL    HW158797   5.191   4.029   1.362  0.4335 -0.3274  0.3562
18881SOL    HW258798   5.185   4.173   1.315 -2.0010 -0.3898  0.3320
18882SOL     OW58799   8.921   5.803   0.123 -0.3670  0.1501  0.3773
18882SOL    HW158800   8.983   5.838   0.186  0.4512  0.8027 -0.7434
18882SOL    HW258801   8.972   5.740   0.072 -0.1509  1.7272 -1.4951
18883SOL     OW58802   5.684   1.983   5.893 -0.3204 -0.9101  0.4945
18883SOL    HW158803   5.723   2.034   5.964 -0.4560  0.5730 -0.4544
18883SOL    HW258804   5.595   2.016   5.885  0.1460  0.0692 -1.3261
18884SOL     OW58805   2.040   7.836   6.184 -0.3181 -0.0650 -0.2405
18884SOL    HW158806   2.064   7.745   6.200 -0.9837 -0.3310 -0.7153
18884SOL    HW258807   2.095   7.863   6.111 -0.6631 -0.3339 -0.6075
18885SOL     OW58808   8.469   3.629   3.788 -0.1333 -0.4534 -0.1850
18885SOL    HW158809   8.457   3.581   3.706  1.4606 -1.2383 -0.0118
18885SOL    HW258810   8.475   3.721   3.762 -0.9619 -0.5655 -0.7922
18886SOL     OW58811   8.027   3.915   6.302  0.1534  0.1853 -0.0166
18886SOL    HW158812   7.971   3.974   6.251  2.4094  2.2390 -0.3322
18886SOL    HW258813   8.047   3.964   6.382  0.6078 -0.9345  0.5681
18887SOL     OW58814   3.491   1.580   7.801 -0.5609  0.2360 -0.4121
18887SOL    HW158815   3.444   1.605   7.722 -0.5444 -1.6948 -1.0821
18887SOL    HW258816   3.448   1.499   7.830  1.4584 -0.8475 -0.2885
18888SOL     OW58817   3.304   0.746   8.471  0.1935 -0.0361 -0.4636
18888SOL    HW158818   3.331   0.711   8.386 -1.9697  1.0544 -1.6739
18888SOL    HW258819   3.322   0.840   8.465 -0.8415  0.1933 -0.0957
18889SOL     OW58820   7.581   4.401   1.394  0.4698 -0.3967 -0.5087
18889SOL    HW158821   7.593   4.458   1.470  0.4527  0.6201 -1.2445
18889SOL    HW258822   7.615   4.316   1.422 -0.3516 -0.2913  0.9360
18890SOL     OW58823   6.008   4.353   1.904 -0.3351 -0.4515 -0.0611
18890SOL    HW158824   5.960   4.284   1.858  0.9128 -1.5770  0.2643
18890SOL    HW258825   6.099   4.322   1.907 -0.3435 -0.6082  3.3431
18891SOL     OW58826   6.227   7.250   3.711 -0.4872 -0.2396 -0.0728
18891SOL    HW158827   6.137   7.281   3.716 -0.3543  0.0650  0.4478
18891SOL    HW258828   6.220   7.155   3.722 -0.9202 -0.4616 -1.9535
18892SOL     OW58829   5.360   3.624   4.104 -0.4003  0.0835  0.2231
18892SOL    HW158830   5.400   3.698   4.058  0.3416 -0.4215  0.0401
18892SOL    HW258831   5.417   3.608   4.179 -1.4171  0.6831  1.1590
18893SOL     OW58832   3.105   8.041   0.076  0.0702  1.0757  0.6152
18893SOL    HW158833   3.124   8.127   0.039  0.5029  1.4529  1.6628
18893SOL    HW258834   3.059   7.993   0.006 -0.6490  2.3313  0.2021
18894SOL     OW58835   4.184   2.001   0.396  0.5843 -0.4995 -0.2775
18894SOL    HW158836   4.149   2.030   0.312 -0.0575 -1.6411 -0.4283
18894SOL    HW258837   4.110   2.006   0.456  0.8259 -0.4695  0.0229
18895SOL     OW58838   6.981   0.053   0.713 -0.3783 -0.5311  0.4462
18895SOL    HW158839   6.982   0.116   0.785 -0.2553 -1.3353  1.1594
18895SOL    HW258840   6.944  -0.026   0.751  3.2461 -2.2860  0.8207
18896SOL     OW58841   7.352   7.046   6.986 -0.3934  0.3188 -0.4207
18896SOL    HW158842   7.315   6.972   7.034 -1.7450 -0.6299 -2.7378
18896SOL    HW258843   7.341   7.121   7.044 -3.5975 -0.4149  0.1021
18897SOL     OW58844   1.577   9.051   3.574  0.5991 -0.6426  0.4381
18897SOL    HW158845   1.663   9.094   3.578  0.3140 -0.0612  0.4296
18897SOL    HW258846   1.586   8.976   3.632  1.6198 -1.5221 -0.7815
18898SOL     OW58847   6.755   8.056   0.904  0.0630  0.4988  0.1140
18898SOL    HW158848   6.718   7.968   0.900 -0.6296  0.8216 -1.7378
18898SOL    HW258849   6.837   8.050   0.855 -0.9203  1.2531 -1.7235
18899SOL     OW58850   1.705   3.903   8.746 -0.0313 -0.2908 -0.0750
18899SOL    HW158851   1.761   3.832   8.776 -2.8081 -1.7088  2.1383
18899SOL    HW258852   1.683   3.952   8.825 -2.4381 -0.2372 -0.7081
18900SOL     OW58853   3.427   0.675   4.038 -0.5362 -0.1293 -0.4944
18900SOL    HW158854   3.428   0.580   4.048  0.3332 -0.1057 -0.2920
18900SOL    HW258855   3.456   0.689   3.948  1.3927 -0.0034  0.1001
18901SOL     OW58856   4.568   5.603   2.410  0.1993  0.6719  0.5073
18901SOL    HW158857   4.662   5.621   2.418 -0.1362  1.8666  2.7328
18901SOL    HW258858   4.529   5.687   2.390 -0.4789  0.3561  0.4710
18902SOL     OW58859   6.409   1.639   0.508  0.1132  0.2364 -0.2963
18902SOL    HW158860   6.370   1.626   0.421  0.2942 -1.4254 -0.1522
18902SOL    HW258861   6.492   1.593   0.504  0.1580  0.2161  0.7471
18903SOL     OW58862   6.439   6.170   1.135  0.2562  0.0357 -0.2668
18903SOL    HW158863   6.485   6.125   1.064  1.2868  0.1232  0.3280
18903SOL    HW258864   6.463   6.262   1.126  0.9568 -0.0501  0.5970
18904SOL     OW58865   1.306   5.184   5.449 -0.0586  0.3732  0.3965
18904SOL    HW158866   1.211   5.190   5.457 -0.0253  0.6234  0.6150
18904SOL    HW258867   1.334   5.272   5.425 -0.0136 -0.0223 -1.1070
18905SOL     OW58868   4.666   4.176   4.638  0.1201 -0.5369  0.5407
18905SOL    HW158869   4.744   4.126   4.662 -0.2216 -1.4401 -0.1648
18905SOL    HW258870   4.699   4.265   4.625  0.6408 -0.4311  2.3502
18906SOL     OW58871   5.169   9.260   0.375  0.0346  0.0499 -0.1347
18906SOL    HW158872   5.104   9.324   0.346  0.6500  0.2615 -1.0761
18906SOL    HW258873   5.253   9.300   0.353  0.4166 -1.6546 -2.0483
18907SOL     OW58874   8.414   5.395   7.609 -0.2829  0.1656  0.4521
18907SOL    HW158875   8.384   5.386   7.519 -0.6288 -0.3289  0.6094
18907SOL    HW258876   8.369   5.473   7.642 -1.3037 -0.4843  0.6400
18908SOL     OW58877   3.919   5.732   6.120  0.1374 -0.0268 -0.0613
18908SOL    HW158878   3.973   5.690   6.186  0.2362 -0.4216 -0.3933
18908SOL    HW258879   3.966   5.813   6.098  0.5676 -0.3440 -0.3151
18909SOL     OW58880   8.407   8.580   4.188 -0.7512 -0.1048  0.4228
18909SOL    HW158881   8.321   8.553   4.155 -1.1957 -1.1418  2.3150
18909SOL    HW258882   8.457   8.499   4.194  0.1595  0.4071 -0.0537
18910SOL     OW58883   1.331   3.743   2.906 -1.0624 -0.0494  0.1735
18910SOL    HW158884   1.406   3.741   2.846 -0.1892  0.1919  1.2375
18910SOL    HW258885   1.294   3.831   2.893 -1.4620 -0.3345 -0.6985
18911SOL     OW58886   3.996   1.566   8.902  0.2448  0.0135  0.4202
18911SOL    HW158887   4.078   1.594   8.942 -0.0661  1.7032 -0.0468
18911SOL    HW258888   3.928   1.605   8.956 -0.1949  1.0020 -0.8041
18912SOL     OW58889   5.410   0.624   0.354 -0.3185 -0.2004 -0.3173
18912SOL    HW158890   5.321   0.651   0.379  0.6176  2.1584  0.8524
18912SOL    HW258891   5.464   0.652   0.428  1.2510 -2.9566 -0.3215
18913SOL     OW58892   3.471   7.228   5.506  0.3664  0.7762 -0.3504
18913SOL    HW158893   3.480   7.279   5.587 -3.0445 -2.5037  2.5065
18913SOL    HW258894   3.549   7.171   5.505  0.2601  0.5677  0.9511
18914SOL     OW58895   5.026   2.480   0.727  0.3443  0.7571 -0.3498
18914SOL    HW158896   5.002   2.546   0.663  0.1101  0.6289 -0.3939
18914SOL    HW258897   4.943   2.440   0.753  0.5868 -0.4188 -1.2814
18915SOL     OW58898   6.031   5.093   6.153  0.1096  0.5362 -0.5562
18915SOL    HW158899   5.944   5.067   6.123  1.1003 -0.9563 -2.3125
18915SOL    HW258900   6.088   5.078   6.078  1.9663  1.1200  0.6695
18916SOL     OW58901   0.305   6.991   9.450 -0.1546  0.0543 -0.3550
18916SOL    HW158902   0.312   7.006   9.356  1.7930  0.8302 -0.1292
18916SOL    HW258903   0.267   7.072   9.484  0.3190  0.2711 -0.3380
18917SOL     OW58904   7.587   9.414   8.869  0.2593 -0.1079 -0.8952
18917SOL    HW158905   7.528   9.402   8.795 -1.4610 -0.8203  0.5193
18917SOL    HW258906   7.674   9.425   8.830 -0.7720  0.8160 -3.0360
18918SOL     OW58907   3.609   8.860   1.488 -0.0473 -0.0150 -0.0815
18918SOL    HW158908   3.567   8.822   1.411 -0.9986  0.7055  0.0705
18918SOL    HW258909   3.702   8.840   1.477 -0.3802 -1.4431 -0.5395
18919SOL     OW58910   7.707   0.035   3.797  0.1049  0.2128  0.1961
18919SOL    HW158911   7.644   0.097   3.835  1.9674  2.1454  0.2528
18919SOL    HW258912   7.788   0.084   3.789  1.2748 -1.8043 -1.1869
18920SOL     OW58913   6.769   5.167   9.124 -0.7328  0.1125 -0.0500
18920SOL    HW158914   6.773   5.072   9.134 -0.5810  0.0306 -0.8562
18920SOL    HW258915   6.788   5.201   9.212  3.0640 -0.5233 -0.4526
18921SOL     OW58916   9.321   3.560   2.114 -0.1540  0.5874  0.1535
18921SOL    HW158917   9.306   3.520   2.200  1.7441 -2.1461 -0.6363
18921SOL    HW258918   9.397   3.617   2.126  1.9498 -1.9649 -0.1530
18922SOL     OW58919   8.496   4.315   8.435  0.0083  0.2769  0.1136
18922SOL    HW158920   8.517   4.295   8.344  1.1548  2.6790 -0.2407
18922SOL    HW258921   8.401   4.317   8.439 -0.0647  1.3227 -1.3681
18923SOL     OW58922   6.430   8.361   5.223  0.1801 -0.3990  0.3518
18923SOL    HW158923   6.336   8.358   5.206  0.0341 -2.2020  1.1787
18923SOL    HW258924   6.466   8.288   5.173  0.8667 -0.8347  1.4444
18924SOL     OW58925   7.140   7.422   9.013  0.0240 -0.1902 -0.1166
18924SOL    HW158926   7.065   7.389   8.963 -0.2616  1.6166 -0.9767
18924SOL    HW258927   7.209   7.435   8.948  0.3898  0.0978  0.3206
18925SOL     OW58928   0.200   8.925   6.701  0.0040  0.3168 -0.0259
18925SOL    HW158929   0.198   8.873   6.782  0.1798  1.4030  0.7078
18925SOL    HW258930   0.116   8.907   6.659  0.6698 -1.7485 -0.6088
18926SOL     OW58931   2.056   2.292   7.447  0.4698  0.0955  0.0105
18926SOL    HW158932   2.017   2.232   7.511  2.6491  0.1818  1.5555
18926SOL    HW258933   2.132   2.244   7.413  1.2721  1.3289  0.0124
18927SOL     OW58934   7.551   8.898   1.741 -0.1902 -0.1622 -0.2357
18927SOL    HW158935   7.514   8.914   1.828 -0.5020 -1.9714  0.0055
18927SOL    HW258936   7.536   8.805   1.726  2.0162 -0.4149 -1.2105
18928SOL     OW58937   5.380   1.661   6.594 -0.7791 -0.7217 -0.3039
18928SOL    HW158938   5.443   1.662   6.521 -0.7084 -0.0828 -0.2376
18928SOL    HW258939   5.333   1.744   6.586  1.5394  1.0247  2.3721
18929SOL     OW58940   0.683   5.952   2.912  0.1738  0.3384 -0.1906
18929SOL    HW158941   0.714   5.941   3.002  2.0515 -0.9678 -0.9425
18929SOL    HW258942   0.603   6.005   2.921 -1.1861 -1.8891  2.4629
18930SOL     OW58943   6.952   2.005   9.426  0.0565 -0.3888  1.1823
18930SOL    HW158944   7.035   1.961   9.442  0.4518  0.2949  1.0409
18930SOL    HW258945   6.932   2.049   9.509  0.0823 -0.1525  1.0639
18931SOL     OW58946   3.331   5.146   1.902 -0.4183  0.6124 -0.3216
18931SOL    HW158947   3.239   5.160   1.880 -1.0573  2.2242  2.9233
18931SOL    HW258948   3.332   5.131   1.996  2.5921 -0.3097 -0.3911
18932SOL     OW58949   5.760   8.895   8.194 -0.1780  0.2062  0.1150
18932SOL    HW158950   5.704   8.973   8.189  1.3006  1.2365 -3.2191
18932SOL    HW258951   5.836   8.923   8.246 -0.7257  0.1826  0.9498
18933SOL     OW58952   6.710   4.858   2.188 -0.1086 -0.5391  0.1633
18933SOL    HW158953   6.747   4.944   2.172  0.8268 -1.0908 -0.7204
18933SOL    HW258954   6.781   4.797   2.171 -0.7330 -1.4996  0.8354
18934SOL     OW58955   8.586   2.115   7.327  0.6147 -0.2232 -0.0916
18934SOL    HW158956   8.492   2.102   7.337  0.6757  0.3792  1.7171
18934SOL    HW258957   8.617   2.035   7.285 -0.9041  0.3007 -2.3697
18935SOL     OW58958   3.132   6.337   2.339  0.4100  0.4997  0.2033
18935SOL    HW158959   3.162   6.306   2.254 -0.3452  0.5969 -0.1121
18935SOL    HW258960   3.072   6.268   2.370 -0.3381  1.0598  0.0469
18936SOL     OW58961   2.810   7.425   0.743 -0.0753  0.4498  0.1757
18936SOL    HW158962   2.822   7.346   0.797 -2.1024 -0.0480 -0.0302
18936SOL    HW258963   2.875   7.487   0.777  0.4604 -0.7469  1.4446
18937SOL     OW58964   5.860   3.803   3.753 -0.0845  0.0548  0.6334
18937SOL    HW158965   5.816   3.792   3.838 -2.8147 -1.5480 -0.8603
18937SOL    HW258966   5.854   3.717   3.711 -2.1019  1.6109 -2.6314
18938SOL     OW58967   1.806   1.995   4.426 -0.0571  0.4117  0.2775
18938SOL    HW158968   1.731   1.941   4.453  0.0234 -0.7538 -1.6355
18938SOL    HW258969   1.771   2.052   4.358  0.8969 -0.6772 -1.1847
18939SOL     OW58970   8.875   0.991   5.972  0.2999 -0.1039 -0.2042
18939SOL    HW158971   8.847   0.903   5.945 -0.4064  0.5668 -1.7929
18939SOL    HW258972   8.906   0.980   6.061 -2.2353 -1.5065  0.6090
18940SOL     OW58973   4.201   8.961   7.727  0.3330 -0.3311  0.6590
18940SOL    HW158974   4.253   8.992   7.652 -0.2761 -1.5686 -0.2992
18940SOL    HW258975   4.250   8.992   7.804  1.1884  0.6100 -0.2284
18941SOL     OW58976   9.499   4.676   2.856  0.1433 -0.7550 -0.2769
18941SOL    HW158977   9.455   4.711   2.934  0.7254 -0.7393  0.0464
18941SOL    HW258978   9.472   4.735   2.785 -0.4201 -0.7934 -0.1005
18942SOL     OW58979   4.856   3.530   6.392  0.2284  0.0016  0.0003
18942SOL    HW158980   4.864   3.457   6.455  0.3078 -0.9013 -1.0224
18942SOL    HW258981   4.800   3.495   6.323  0.8649  0.6725 -0.8693
18943SOL     OW58982   8.243   9.615   7.649 -0.8939 -0.0733  0.6007
18943SOL    HW158983   8.297   9.653   7.719  0.9423 -0.4321 -0.5458
18943SOL    HW258984   8.217   9.530   7.683 -0.5821  0.0231  1.1025
18944SOL     OW58985   1.750   0.346   5.228  0.0595  0.1965 -0.4743
18944SOL    HW158986   1.723   0.432   5.260 -0.0531 -0.2301  0.6248
18944SOL    HW258987   1.669   0.303   5.202  0.0449  0.1667 -0.3782
18945SOL     OW58988   3.304   2.030   5.603  0.0891 -0.1580  0.1992
18945SOL    HW158989   3.358   2.033   5.682  0.2459 -0.4927  0.1067
18945SOL    HW258990   3.339   2.100   5.547 -0.7633  0.8461  0.8909
18946SOL     OW58991   5.452   3.531   6.988  0.1238 -0.1909  0.2164
18946SOL    HW158992   5.496   3.461   7.036  0.1561  1.1038  2.1764
18946SOL    HW258993   5.499   3.536   6.905  1.1813 -1.3762  0.7090
18947SOL     OW58994   0.808   1.413   4.208  0.0259 -0.8773  0.2706
18947SOL    HW158995   0.738   1.356   4.175  2.0282 -2.5660 -1.3823
18947SOL    HW258996   0.816   1.482   4.141  0.0985 -0.8324  0.3252
18948SOL     OW58997   7.677   2.922   6.392 -0.2918  0.0045 -0.0744
18948SOL    HW158998   7.752   2.981   6.380 -1.1122  1.2848  0.8187
18948SOL    HW258999   7.674   2.905   6.486 -0.4572 -0.9481 -0.2442
18949SOL     OW59000   4.627   3.159   8.456  0.1399  0.4477  0.4607
18949SOL    HW159001   4.667   3.223   8.397 -0.3714  1.0735  0.7831
18949SOL    HW259002   4.538   3.190   8.468 -0.6918 -1.2996 -0.7861
18950SOL     OW59003   6.765   0.766   4.640 -0.3101  0.2712  0.1571
18950SOL    HW159004   6.789   0.745   4.550 -2.4829  0.5695 -0.5548
18950SOL    HW259005   6.766   0.861   4.644 -2.1068  0.3571 -0.1984
18951SOL     OW59006   0.313   8.792   2.324 -0.5310  0.5184  0.0812
18951SOL    HW159007   0.377   8.775   2.255 -1.6809 -1.5885 -0.5561
18951SOL    HW259008   0.334   8.879   2.356  0.1185  1.5170 -2.8313
18952SOL     OW59009   2.963   2.877   0.293 -0.5261 -0.2955 -0.0082
18952SOL    HW159010   2.871   2.901   0.307 -0.5926 -0.6996  0.2609
18952SOL    HW259011   2.982   2.814   0.363  0.6502  1.5445  1.4323
18953SOL     OW59012   7.711   9.005   4.238  0.0900 -0.4902  0.1390
18953SOL    HW159013   7.726   9.099   4.250 -0.6510 -0.2049 -1.0415
18953SOL    HW259014   7.767   8.981   4.165 -0.5944 -0.7116 -0.3186
18954SOL     OW59015   5.015   8.503   4.107 -0.2169 -0.1181  0.1158
18954SOL    HW159016   5.082   8.500   4.039 -0.2560 -0.9961  0.0983
18954SOL    HW259017   5.063   8.506   4.189 -0.1081 -2.0002  0.1591
18955SOL     OW59018   9.563   8.646   1.836 -0.2361 -0.8237 -0.3379
18955SOL    HW159019   9.479   8.649   1.881 -0.4429 -2.3773 -0.5622
18955SOL    HW259020   9.616   8.712   1.880 -0.7041 -1.6835  1.6151
18956SOL     OW59021   8.839   7.123   6.030 -0.1701  0.1001  0.3671
18956SOL    HW159022   8.840   7.035   5.993  1.0893 -0.4275  1.5745
18956SOL    HW259023   8.776   7.119   6.101  1.7424 -0.6284  2.1276
18957SOL     OW59024   4.972   3.517   1.590 -0.4082 -0.5626  0.9432
18957SOL    HW159025   4.984   3.425   1.565 -1.2370 -0.3989 -0.1379
18957SOL    HW259026   4.888   3.542   1.551  0.4348  1.0464  0.0648
18958SOL     OW59027   9.454   4.786   7.085  0.0664  0.5189 -0.2001
18958SOL    HW159028   9.497   4.711   7.044 -0.8073  0.5763 -1.2499
18958SOL    HW259029   9.518   4.857   7.077  1.5627 -0.3977  2.1801
18959SOL     OW59030   3.943   2.262   4.287  0.2154  0.0132 -0.2732
18959SOL    HW159031   3.908   2.208   4.358 -1.2247  1.3266  0.0918
18959SOL    HW259032   3.866   2.284   4.234  0.9941  0.4753 -1.2410
18960SOL     OW59033   9.609   3.180   6.431 -0.5601  0.6713 -0.1363
18960SOL    HW159034   9.534   3.147   6.381 -0.1548  0.1305 -0.4089
18960SOL    HW259035   9.669   3.214   6.364  0.1026 -0.2989 -0.0548
18961SOL     OW59036   8.988   0.721   2.088 -0.1412  0.2220  0.1720
18961SOL    HW159037   9.054   0.665   2.130 -0.6528  0.5918  1.5208
18961SOL    HW259038   9.038   0.791   2.048  0.2545  1.5281  2.7441
18962SOL     OW59039   7.903   4.160   3.763 -0.2173 -0.8950  0.2601
18962SOL    HW159040   7.959   4.128   3.835 -1.2708 -1.4649  0.8587
18962SOL    HW259041   7.814   4.156   3.799 -0.5808  0.8119 -0.3720
18963SOL     OW59042   3.304   7.471   5.820 -0.5719 -0.0226  0.3328
18963SOL    HW159043   3.305   7.507   5.731  0.1243 -1.1676 -0.1530
18963SOL    HW259044   3.212   7.464   5.843 -0.7499  0.5433 -0.1991
18964SOL     OW59045   7.754   1.432   6.672 -0.4919 -0.4693 -0.3173
18964SOL    HW159046   7.678   1.376   6.692 -1.1578 -0.5612 -2.7403
18964SOL    HW259047   7.819   1.372   6.638  0.3363 -0.2452  0.8159
18965SOL     OW59048   5.885   8.878   2.630 -0.3635  0.2852 -0.0578
18965SOL    HW159049   5.819   8.835   2.685 -1.9338  0.9984 -1.2879
18965SOL    HW259050   5.886   8.968   2.660 -1.1829  0.6645 -1.0999
18966SOL     OW59051   9.621   1.449   9.539  0.4247 -0.3229  0.0249
18966SOL    HW159052   9.571   1.372   9.567 -2.3582  0.4178 -2.3116
18966SOL    HW259053   9.706   1.414   9.513 -0.1471 -2.3370  0.6274
18967SOL     OW59054   3.802   6.834   3.601 -0.1618 -0.2658 -0.0923
18967SOL    HW159055   3.710   6.805   3.595 -1.0581  2.2351  0.5040
18967SOL    HW259056   3.832   6.836   3.510 -1.2204  0.3463 -0.4510
18968SOL     OW59057   5.887   9.444   5.488  0.5382 -0.2346  0.5085
18968SOL    HW159058   5.872   9.361   5.441 -0.2185  0.1965 -0.0324
18968SOL    HW259059   5.802   9.466   5.526  0.4679  0.8120 -0.2105
18969SOL     OW59060   8.271   2.854   4.600  0.1294  0.5341  0.2102
18969SOL    HW159061   8.277   2.799   4.522 -0.7054 -1.9281  1.7693
18969SOL    HW259062   8.221   2.931   4.572 -0.4630 -0.4552 -1.5864
18970SOL     OW59063   8.804   0.300   9.019 -0.4556 -0.4639  0.7115
18970SOL    HW159064   8.771   0.337   8.936 -1.6807  0.7327  1.6883
18970SOL    HW259065   8.743   0.229   9.039 -0.2318 -0.6731  0.6521
18971SOL     OW59066   1.907   6.364   4.140 -0.0201 -0.5420  0.3762
18971SOL    HW159067   1.876   6.446   4.177 -2.1711 -1.5007  0.8493
18971SOL    HW259068   1.895   6.300   4.210 -0.8777 -1.7381 -0.8064
18972SOL     OW59069   5.044   6.880   4.302 -0.4035  0.4083  0.3271
18972SOL    HW159070   5.122   6.844   4.344  0.0332  3.2571  2.2262
18972SOL    HW259071   4.973   6.862   4.363 -0.3924  1.5915  0.7215
18973SOL     OW59072   9.591   8.471   1.623  0.1464  0.2252  0.3879
18973SOL    HW159073   9.544   8.515   1.552  0.3290  0.2877  0.3050
18973SOL    HW259074   9.575   8.526   1.700  0.6633  0.6260  0.2106
18974SOL     OW59075   6.289   6.133   2.432 -0.1824  0.1753  0.3705
18974SOL    HW159076   6.328   6.059   2.386  0.4833  0.8957 -0.2739
18974SOL    HW259077   6.361   6.197   2.439 -1.2704  1.6500 -1.0885
18975SOL     OW59078   2.969   6.116   1.088 -0.3465  0.4216  0.0186
18975SOL    HW159079   2.921   6.102   1.005 -3.2008  1.0009  1.4325
18975SOL    HW259080   2.962   6.033   1.134 -0.0100  0.5331  0.2714
18976SOL     OW59081   3.731   6.955   2.967 -0.0290 -0.3866  0.3428
18976SOL    HW159082   3.772   6.869   2.963 -2.1507 -1.4719  0.3072
18976SOL    HW259083   3.646   6.939   3.008 -1.3526  1.3035 -1.5226
18977SOL     OW59084   1.611   5.673   8.788 -0.1938 -0.5522  0.3423
18977SOL    HW159085   1.625   5.579   8.774  1.0609 -0.4442  0.7301
18977SOL    HW259086   1.570   5.678   8.874  2.4220 -0.6576  1.7245
18978SOL     OW59087   3.656   3.762   8.207  0.4529  0.2378 -0.2671
18978SOL    HW159088   3.576   3.786   8.255 -0.3088 -0.9182 -0.9002
18978SOL    HW259089   3.725   3.762   8.273  0.4920  3.6163 -0.0978
18979SOL     OW59090   9.144   3.062   8.813 -0.0736 -0.2082 -0.5044
18979SOL    HW159091   9.189   3.038   8.893  1.6487  0.3122 -1.2717
18979SOL    HW259092   9.096   3.142   8.835  0.0593 -0.2938  0.1002
18980SOL     OW59093   9.590   2.279   4.222 -0.3778 -0.3517 -0.2818
18980SOL    HW159094   9.633   2.346   4.167 -0.1213 -0.4117 -0.1554
18980SOL    HW259095   9.662   2.234   4.265 -0.6153  0.2440  0.7546
18981SOL     OW59096   9.262   7.171   1.376 -1.1467  0.1467 -0.5725
18981SOL    HW159097   9.332   7.230   1.404 -0.4766 -0.0683 -1.7355
18981SOL    HW259098   9.249   7.111   1.449  1.4298 -1.2065 -1.1160
18982SOL     OW59099   7.796   6.426   3.209  0.0821 -0.0819 -0.4797
18982SOL    HW159100   7.807   6.371   3.286 -3.1674  1.2453  1.1183
18982SOL    HW259101   7.732   6.380   3.155 -0.5161  0.7462 -0.5011
18983SOL     OW59102   0.925   3.703   0.318 -0.5596 -0.0326  0.0383
18983SOL    HW159103   0.896   3.675   0.405 -1.5325  1.0570  0.0917
18983SOL    HW259104   0.918   3.624   0.264 -2.8267 -0.0730  0.2730
18984SOL     OW59105   8.666   9.112   8.747  0.4767  0.5769  0.1138
18984SOL    HW159106   8.651   9.024   8.779  1.0058  0.3426 -0.2715
18984SOL    HW259107   8.755   9.111   8.712  0.4677  1.2401  0.0397
18985SOL     OW59108   3.557   4.648   7.935 -0.3383 -0.1214 -0.0312
18985SOL    HW159109   3.575   4.732   7.978  0.0433 -0.7807  1.1591
18985SOL    HW259110   3.635   4.630   7.882  0.3952 -0.5764  1.1586
18986SOL     OW59111   0.668   3.564   8.076  0.0584 -0.1340  0.3514
18986SOL    HW159112   0.589   3.512   8.094 -0.2027 -0.0806 -0.5888
18986SOL    HW259113   0.635   3.644   8.037  0.5176  0.4181  1.0731
18987SOL     OW59114   8.354   7.545   3.463 -0.1364 -0.3346 -0.2866
18987SOL    HW159115   8.398   7.555   3.547  1.4488 -0.6812 -1.0305
18987SOL    HW259116   8.367   7.453   3.440 -0.3213 -0.1847 -1.0220
18988SOL     OW59117   3.165   1.010   7.049  0.0305  0.0505  1.0466
18988SOL    HW159118   3.179   1.031   6.956 -1.8668  0.3617  0.7754
18988SOL    HW259119   3.252   1.014   7.088  0.9084 -0.2609 -0.7497
18989SOL     OW59120   8.517   1.998   8.487 -0.2747 -0.0168 -0.5073
18989SOL    HW159121   8.459   1.923   8.479 -1.7985  1.1758 -1.1561
18989SOL    HW259122   8.481   2.049   8.559  0.4035  0.3879 -0.4418
18990SOL     OW59123   8.478   7.481   6.962  0.1780 -0.1100 -0.0691
18990SOL    HW159124   8.524   7.546   7.015 -0.5433  1.2000 -0.9819
18990SOL    HW259125   8.411   7.446   7.019  1.3060 -0.9111  0.7945
18991SOL     OW59126   2.718   1.067   0.912  0.8263 -0.8031 -0.4793
18991SOL    HW159127   2.654   1.035   0.849 -0.1813 -0.3412  0.2820
18991SOL    HW259128   2.711   1.163   0.906 -0.4256 -0.7246  1.4137
18992SOL     OW59129   3.702   9.267   0.846  0.4214  0.0110 -0.5433
18992SOL    HW159130   3.797   9.262   0.835  0.4860  1.2829 -0.8310
18992SOL    HW259131   3.666   9.253   0.758  0.2399 -1.9064 -0.1969
18993SOL     OW59132   3.673   7.092   7.345 -0.3395  0.6276 -0.7245
18993SOL    HW159133   3.756   7.138   7.356 -0.2119  0.2746 -0.1777
18993SOL    HW259134   3.698   7.004   7.315 -0.4595  0.2493  0.2534
18994SOL     OW59135   5.490   0.571   3.085  0.0540 -0.1723  0.5679
18994SOL    HW159136   5.440   0.647   3.116  1.4265  0.3119  1.6825
18994SOL    HW259137   5.564   0.608   3.038  0.4802 -0.8398  0.6977
18995SOL     OW59138   0.458   8.219   6.169 -0.0167 -0.0019  0.1991
18995SOL    HW159139   0.461   8.295   6.227  0.7078  0.0987  0.0411
18995SOL    HW259140   0.532   8.165   6.196  0.0433 -0.1846 -0.3156
18996SOL     OW59141   4.403   6.640   9.467  0.4266 -0.4507 -0.3553
18996SOL    HW159142   4.495   6.640   9.493  0.4381  0.6819 -0.3401
18996SOL    HW259143   4.361   6.701   9.527 -0.2353 -0.5316 -0.7232
18997SOL     OW59144   4.085   4.702   6.752 -0.0576 -0.0138  0.1468
18997SOL    HW159145   4.023   4.745   6.693  0.7307 -0.0016 -0.7014
18997SOL    HW259146   4.154   4.767   6.764 -0.5307  0.2423  1.6541
18998SOL     OW59147   4.365   0.732   4.352  0.3475  0.4236 -0.3828
18998SOL    HW159148   4.290   0.764   4.301  0.4283  1.3259  0.0402
18998SOL    HW259149   4.428   0.804   4.350 -0.1754  1.0602  2.0390
18999SOL     OW59150   9.195   3.617   6.668 -0.4060  0.1574  0.0458
18999SOL    HW159151   9.189   3.544   6.731 -1.5769  0.1146 -0.0903
18999SOL    HW259152   9.113   3.613   6.619  0.9424 -0.5466 -2.3343
19000SOL     OW59153   4.145   7.841   2.359  0.0661  0.5965 -0.2682
19000SOL    HW159154   4.177   7.836   2.449 -0.4348 -0.2222 -0.1295
19000SOL    HW259155   4.058   7.880   2.366  0.0153  0.5077 -0.3933
19001SOL     OW59156   1.199   5.989   2.509  0.0101  0.1129 -0.0622
19001SOL    HW159157   1.248   5.961   2.586 -0.5650  1.4344  0.8293
19001SOL    HW259158   1.123   5.931   2.506 -0.2668  0.4286  0.7216
19002SOL     OW59159   3.116   9.358   1.212 -0.4036  0.5022 -0.7588
19002SOL    HW159160   3.054   9.415   1.167  0.6484  2.2048 -0.1445
19002SOL    HW259161   3.113   9.386   1.303 -2.9010 -3.2321  0.5458
19003SOL     OW59162   6.475   7.991   2.948 -0.2010 -0.6496 -0.0181
19003SOL    HW159163   6.505   7.952   3.030 -0.4906 -0.9352 -0.0442
19003SOL    HW259164   6.555   8.018   2.903 -0.0036 -1.0984  0.0570
19004SOL     OW59165   6.506   3.171   1.510  0.3729 -0.0932 -0.5772
19004SOL    HW159166   6.532   3.255   1.472 -0.7934  0.7392  0.3983
19004SOL    HW259167   6.438   3.138   1.452  0.0320  0.1825 -0.3314
19005SOL     OW59168   1.699   2.502   6.913  0.3582 -0.5872 -0.6501
19005SOL    HW159169   1.622   2.557   6.902 -0.8637 -1.8800  0.8816
19005SOL    HW259170   1.736   2.529   6.996  0.5078 -1.1763 -0.5197
19006SOL     OW59171   0.232   6.537   0.010  0.8477 -0.3843 -0.2109
19006SOL    HW159172   0.159   6.535  -0.052  0.5646 -0.5754  0.1227
19006SOL    HW259173   0.294   6.601  -0.027  1.0055 -1.0078 -1.0346
19007SOL     OW59174   2.602   4.181   8.091 -0.1847 -0.7286 -0.5581
19007SOL    HW159175   2.535   4.169   8.024 -0.5328 -0.9457 -0.1703
19007SOL    HW259176   2.633   4.270   8.078 -0.3666 -0.7128 -0.9016
19008SOL     OW59177   2.276   2.937   0.284  0.4177  0.0485 -0.3844
19008SOL    HW159178   2.256   2.888   0.363  1.1421 -0.0392 -0.2430
19008SOL    HW259179   2.191   2.958   0.245  0.0723 -2.8725 -1.4459
19009SOL     OW59180   0.481   4.883   7.644  0.4206  0.2448  0.3385
19009SOL    HW159181   0.405   4.871   7.701  0.9930  0.8665  1.2566
19009SOL    HW259182   0.557   4.870   7.702  1.0174  0.4216 -0.3834
19010SOL     OW59183   8.483   7.710   4.337 -0.0187  0.2078  0.6457
19010SOL    HW159184   8.532   7.724   4.417  1.3005 -0.3787 -0.0283
19010SOL    HW259185   8.543   7.735   4.267 -0.4653 -1.0364 -0.2244
19011SOL     OW59186   6.487   0.919   8.904  0.0836  0.2119  0.0755
19011SOL    HW159187   6.569   0.898   8.860  0.3094  2.0308 -0.4750
19011SOL    HW259188   6.512   0.935   8.995  0.1852 -0.2093  0.1192
19012SOL     OW59189   7.491   6.594   5.461 -0.8209 -0.8695 -0.4458
19012SOL    HW159190   7.419   6.633   5.412  0.0539 -2.0457 -2.8219
19012SOL    HW259191   7.563   6.657   5.452 -0.3859 -1.4917 -1.5212
19013SOL     OW59192   6.471   5.844   3.293  0.3594 -0.4636  0.1661
19013SOL    HW159193   6.466   5.803   3.206  4.4063  0.6505 -0.8058
19013SOL    HW259194   6.464   5.938   3.275  2.8086 -0.1123  0.7279
19014SOL     OW59195   9.475   7.664   3.694  0.6283 -0.1426  0.0297
19014SOL    HW159196   9.386   7.632   3.680  0.7553 -1.3145  1.6691
19014SOL    HW259197   9.531   7.590   3.670  1.1601  0.4483 -0.5898
19015SOL     OW59198   7.076   8.443   1.844 -0.2920 -0.2010  0.4928
19015SOL    HW159199   7.032   8.525   1.867 -1.0800  0.1577 -2.0740
19015SOL    HW259200   7.167   8.455   1.874 -0.3797  1.6417  0.1054
19016SOL     OW59201   2.485   6.876   1.374  0.6801 -0.2458 -0.0718
19016SOL    HW159202   2.576   6.854   1.355  0.0844 -0.8282 -2.5579
19016SOL    HW259203   2.436   6.796   1.353 -0.5003  0.3149  0.4370
19017SOL     OW59204   1.791   5.809   8.676 -0.2693  0.2668  0.4423
19017SOL    HW159205   1.829   5.728   8.641 -0.0656  0.7450 -0.4783
19017SOL    HW259206   1.724   5.780   8.737 -0.7513 -0.6044 -0.4859
19018SOL     OW59207   8.934   9.187   1.372 -0.5657 -0.4541  0.2427
19018SOL    HW159208   8.979   9.116   1.417  1.2680  1.7544  2.1895
19018SOL    HW259209   8.999   9.220   1.310 -0.9810  0.2006  0.1505
19019SOL     OW59210   3.726   2.758   3.608  0.0948 -0.0150  0.2342
19019SOL    HW159211   3.683   2.802   3.534 -1.3469  0.1253  1.1096
19019SOL    HW259212   3.773   2.828   3.653 -0.8367  0.3529  0.6775
19020SOL     OW59213   8.399   8.421   6.035 -0.4216  0.5836  0.3606
19020SOL    HW159214   8.483   8.382   6.010  0.0341  1.1527  0.9704
19020SOL    HW259215   8.333   8.362   5.998  0.2153 -1.4750  2.2626
19021SOL     OW59216   3.755   2.768   7.226  0.2301 -0.2357 -0.2919
19021SOL    HW159217   3.789   2.774   7.136  2.1151  0.0694  0.4071
19021SOL    HW259218   3.710   2.683   7.228 -1.4210  0.5290 -2.0005
19022SOL     OW59219   4.236   4.535   2.910 -0.0298  0.3276  0.9713
19022SOL    HW159220   4.296   4.608   2.900  1.2209 -0.6530  1.0573
19022SOL    HW259221   4.180   4.539   2.833  0.2531  1.1453  0.7996
19023SOL     OW59222   1.273   7.709   6.750 -0.0702  0.0273  0.0284
19023SOL    HW159223   1.365   7.730   6.737  0.2835 -1.6834 -0.4332
19023SOL    HW259224   1.245   7.671   6.667 -0.8978 -0.4934  0.5301
19024SOL     OW59225   6.359   6.233   0.367 -0.3760  0.0043  0.3426
19024SOL    HW159226   6.370   6.255   0.459 -0.6344 -0.8850  0.5998
19024SOL    HW259227   6.397   6.307   0.319 -1.5515  1.1752  1.1418
19025SOL     OW59228   8.378   7.843   3.351  0.2824  0.0748 -0.2186
19025SOL    HW159229   8.407   7.859   3.262 -0.8373 -0.2876 -0.6683
19025SOL    HW259230   8.403   7.752   3.368  2.8214  0.8710  0.8088
19026SOL     OW59231   4.802   4.094   5.025  0.5168 -0.0131 -0.0391
19026SOL    HW159232   4.801   4.058   5.113 -0.0540  0.2887  0.0829
19026SOL    HW259233   4.894   4.089   4.998  0.5394 -1.0635  0.1698
19027SOL     OW59234   2.472   8.697   0.506 -0.0514  0.2989  0.0969
19027SOL    HW159235   2.446   8.605   0.493  0.0991  0.5869 -3.1164
19027SOL    HW259236   2.540   8.694   0.573 -0.9059 -1.7613  0.9614
19028SOL     OW59237   8.579   1.533   1.239  0.1695  0.0294 -0.3875
19028SOL    HW159238   8.501   1.482   1.216  0.3778 -0.3861 -0.1837
19028SOL    HW259239   8.550   1.590   1.309  0.1708 -0.4842  0.0378
19029SOL     OW59240   1.859   3.353   8.115 -0.1262 -0.2708  0.2224
19029SOL    HW159241   1.907   3.433   8.095 -0.8946 -0.2046 -1.4887
19029SOL    HW259242   1.916   3.283   8.085 -0.8622 -0.2057 -1.4403
19030SOL     OW59243   2.366   0.985   5.476  0.4152 -0.1579 -0.1781
19030SOL    HW159244   2.305   1.012   5.545  0.4577  0.6434 -0.4473
19030SOL    HW259245   2.395   0.898   5.503  0.5117  0.1841  0.8698
19031SOL     OW59246   1.314   1.980   7.431 -0.5621 -0.0290  0.8661
19031SOL    HW159247   1.364   1.922   7.373 -1.7757  0.2596 -0.5345
19031SOL    HW259248   1.225   1.944   7.430 -0.5126 -0.3116  3.0145
19032SOL     OW59249   5.692   9.063   0.318  0.1229 -0.3893 -0.1926
19032SOL    HW159250   5.712   9.125   0.388  0.6895  0.0733 -0.7460
19032SOL    HW259251   5.729   8.980   0.347 -2.8047 -1.1710  1.7155
19033SOL     OW59252   6.318   0.915   4.453  0.0075 -0.1248 -0.3345
19033SOL    HW159253   6.227   0.904   4.482 -0.0105  1.2561  0.2035
19033SOL    HW259254   6.325   0.860   4.375 -1.0520 -0.8760  0.0693
19034SOL     OW59255   8.425   8.159   3.332 -0.5822  0.1656 -0.1961
19034SOL    HW159256   8.358   8.149   3.399  0.4063  0.6644  0.8984
19034SOL    HW259257   8.482   8.083   3.342 -0.1077  0.5292 -0.0846
19035SOL     OW59258   4.121   4.411   4.418  0.8803  0.3278 -0.2312
19035SOL    HW159259   4.065   4.352   4.368  3.4173 -0.4662 -2.3668
19035SOL    HW259260   4.125   4.491   4.366  0.2060  1.1335  0.9113
19036SOL     OW59261   3.913   0.754   0.254 -0.5762 -0.4949  0.2536
19036SOL    HW159262   3.999   0.789   0.279 -0.5950 -0.2534 -0.0187
19036SOL    HW259263   3.912   0.759   0.159 -0.4188 -1.6078  0.1783
19037SOL     OW59264   1.740   3.306   7.807 -0.2441 -0.2906  0.8398
19037SOL    HW159265   1.778   3.269   7.727 -0.0295  1.0797  0.2909
19037SOL    HW259266   1.692   3.383   7.777  0.4361  0.6496  2.1245
19038SOL     OW59267   7.671   2.381   5.186 -0.2431  0.5891 -0.6527
19038SOL    HW159268   7.646   2.455   5.242 -1.3410 -0.8929  0.8993
19038SOL    HW259269   7.760   2.359   5.214 -0.7408 -0.0659  0.4780
19039SOL     OW59270   5.115   7.504   4.405 -0.3812 -0.3630  0.1407
19039SOL    HW159271   5.136   7.566   4.335 -0.8439 -0.6525 -0.2581
19039SOL    HW259272   5.081   7.558   4.476  1.9702  0.1725  0.9403
19040SOL     OW59273   0.068   6.234   1.724 -0.2249 -0.7030 -0.6971
19040SOL    HW159274   0.109   6.256   1.808 -0.1009 -0.7557 -0.7442
19040SOL    HW259275   0.009   6.308   1.707  0.0118 -0.5197 -0.7352
19041SOL     OW59276   2.544   5.148   7.860 -0.2808 -0.5578 -0.1875
19041SOL    HW159277   2.487   5.130   7.786 -0.1283  0.0342 -0.4556
19041SOL    HW259278   2.566   5.241   7.852  1.9444 -1.0843 -0.9754
19042SOL     OW59279   6.928   8.076   6.224  0.0240 -0.0671 -0.1491
19042SOL    HW159280   7.002   8.130   6.197  1.1845 -2.1065 -1.3861
19042SOL    HW259281   6.947   7.990   6.185 -2.6222 -0.8663  0.1526
19043SOL     OW59282   6.976   5.673   1.329 -0.1247 -0.3578  0.0954
19043SOL    HW159283   6.979   5.741   1.261 -3.5960  0.6376  0.7355
19043SOL    HW259284   6.937   5.597   1.285 -0.5670 -0.3516  0.4686
19044SOL     OW59285   6.448   8.673   7.625 -0.0423  0.6526 -0.0023
19044SOL    HW159286   6.392   8.620   7.682 -1.1445 -0.3002 -1.8780
19044SOL    HW259287   6.398   8.752   7.608  0.3677  1.0220  0.5073
19045SOL     OW59288   6.345   8.845   9.278 -0.1709 -0.3456  0.2137
19045SOL    HW159289   6.278   8.791   9.322 -2.6784  2.8087  0.6428
19045SOL    HW259290   6.427   8.801   9.298 -1.8501 -3.1436  1.7440
19046SOL     OW59291   5.679   3.752   7.448  0.3419 -0.4432  0.0078
19046SOL    HW159292   5.604   3.793   7.405 -0.1247 -1.2202  0.0540
19046SOL    HW259293   5.671   3.777   7.540 -0.1602 -0.9578  0.1045
19047SOL     OW59294   8.272   0.230   2.293 -0.0683 -0.3060 -0.0914
19047SOL    HW159295   8.218   0.294   2.339  0.0115  0.0774 -0.5259
19047SOL    HW259296   8.210   0.177   2.244 -0.1200 -0.4653  0.1416
19048SOL     OW59297   9.473   7.218   8.089  0.0914 -0.0397  0.1126
19048SOL    HW159298   9.547   7.209   8.149 -0.6542  1.3512  1.2945
19048SOL    HW259299   9.484   7.305   8.050  0.0024 -0.5157 -1.0155
19049SOL     OW59300   2.389   1.549   3.112  0.0794 -0.5231  0.4287
19049SOL    HW159301   2.483   1.564   3.106  0.0466 -0.0492  0.9032
19049SOL    HW259302   2.354   1.583   3.030  0.2841 -0.3323  0.4184
19050SOL     OW59303   2.658   2.944   7.635 -0.2033  0.3575 -0.0071
19050SOL    HW159304   2.671   2.947   7.730  0.7355 -2.2611  0.0142
19050SOL    HW259305   2.737   2.987   7.600  0.2147 -0.0773  0.3781
19051SOL     OW59306   6.921   5.167   7.810  0.1652 -0.2739 -0.6691
19051SOL    HW159307   6.971   5.086   7.817  0.9444  0.3166  1.2337
19051SOL    HW259308   6.931   5.209   7.896 -2.1304  0.7346 -0.8196
19052SOL     OW59309   4.897   2.132   4.601  0.4147  0.0775  0.2701
19052SOL    HW159310   4.853   2.079   4.667 -0.4882  0.2324 -0.1860
19052SOL    HW259311   4.829   2.191   4.568  0.8234 -0.0254 -0.8263
19053SOL     OW59312   1.395   5.543   7.444  0.4696 -0.2201 -0.1292
19053SOL    HW159313   1.377   5.567   7.535 -0.6338  0.4358 -0.5039
19053SOL    HW259314   1.339   5.468   7.427  0.7997 -0.4483 -0.2302
19054SOL     OW59315   1.274   1.158   0.799  0.1612 -0.6088  0.9337
19054SOL    HW159316   1.194   1.161   0.851 -0.2674  0.3760  0.2660
19054SOL    HW259317   1.285   1.066   0.776 -2.3478 -0.5067 -1.2753
19055SOL     OW59318   5.879   7.917   3.569  0.5018 -0.4531  0.1935
19055SOL    HW159319   5.939   7.943   3.499  0.5974 -1.8036 -0.2602
19055SOL    HW259320   5.907   7.969   3.645  0.9767  0.3681 -0.5162
19056SOL     OW59321   5.115   0.154   7.350  0.3268 -0.1473  0.5671
19056SOL    HW159322   5.178   0.082   7.355 -0.6980 -1.5952 -3.4740
19056SOL    HW259323   5.156   0.218   7.292 -0.8391  0.0917 -0.0223
19057SOL     OW59324   0.462   5.962   0.797 -0.0509  0.3987  0.0235
19057SOL    HW159325   0.476   5.915   0.715  0.8086 -0.9635  0.9267
19057SOL    HW259326   0.390   6.022   0.777 -0.8100 -0.8883 -1.3280
19058SOL     OW59327   2.436   6.004   5.396  0.2778 -0.1273  0.6227
19058SOL    HW159328   2.473   5.923   5.430 -0.7338 -1.1397 -0.5779
19058SOL    HW259329   2.341   5.994   5.407 -0.0811 -0.3559 -1.9919
19059SOL     OW59330   0.201   3.491   4.616  0.1510 -0.1016  0.7908
19059SOL    HW159331   0.158   3.558   4.670 -1.9060 -1.1571  0.5295
19059SOL    HW259332   0.173   3.510   4.527  0.0501 -0.9433  0.6369
19060SOL     OW59333   6.915   8.270   8.386  0.2934 -0.3889 -0.3227
19060SOL    HW159334   7.001   8.278   8.346  0.8442  0.8125  1.0292
19060SOL    HW259335   6.928   8.208   8.458  0.2291  0.3575  0.3481
19061SOL     OW59336   9.005   9.489   0.624 -0.1979 -0.1450  0.2517
19061SOL    HW159337   9.100   9.481   0.615 -0.0868  1.7257 -0.6128
19061SOL    HW259338   8.970   9.449   0.544 -0.0761  0.2088  0.0198
19062SOL     OW59339   7.701   1.605   3.703  0.5601 -0.3360 -0.2758
19062SOL    HW159340   7.736   1.692   3.686 -0.1437  0.1036  0.4835
19062SOL    HW259341   7.648   1.585   3.625 -0.7546  0.6957  0.3068
19063SOL     OW59342   3.294   2.652   8.718  0.2163 -0.2389  0.1202
19063SOL    HW159343   3.346   2.590   8.668  2.7727  2.7340 -1.3014
19063SOL    HW259344   3.215   2.664   8.667  0.5897 -0.8722 -0.6178
19064SOL     OW59345   5.547   1.888   4.717  0.6151  0.6488  0.3474
19064SOL    HW159346   5.533   1.977   4.686  0.8245  0.5432 -0.0726
19064SOL    HW259347   5.639   1.885   4.743  0.7062  0.4610  0.0165
19065SOL     OW59348   1.025   3.512   2.168 -0.1790 -0.3766 -0.7208
19065SOL    HW159349   1.071   3.567   2.105  1.0653 -1.1651 -0.5331
19065SOL    HW259350   0.933   3.517   2.141 -0.0810  1.6196 -0.8038
19066SOL     OW59351   3.281   2.387   2.421 -0.7025 -0.6276  0.4087
19066SOL    HW159352   3.323   2.423   2.500  0.9900  0.1351 -0.7694
19066SOL    HW259353   3.222   2.457   2.392  1.2839  0.6233 -0.8940
19067SOL     OW59354   4.018   2.702   6.754 -0.5329  0.5155  0.5869
19067SOL    HW159355   4.056   2.615   6.748  0.0175  0.8470 -1.3445
19067SOL    HW259356   3.926   2.690   6.729 -0.5983  0.3982  0.8851
19068SOL     OW59357   3.676   0.033   8.130  0.3528  0.0892 -0.0198
19068SOL    HW159358   3.644   0.019   8.041 -1.2852  0.1983  0.5148
19068SOL    HW259359   3.685  -0.055   8.166  1.2626  0.0341 -0.3597
19069SOL     OW59360   9.438   9.440   5.522  0.0215 -0.3400 -0.0987
19069SOL    HW159361   9.518   9.476   5.560 -0.1867  1.4288 -1.1944
19069SOL    HW259362   9.420   9.362   5.573  0.9414  0.7119  1.9482
19070SOL     OW59363   2.524   4.997   6.461 -0.1066 -0.3332  0.3261
19070SOL    HW159364   2.616   5.007   6.435  1.0670 -1.5114  3.5723
19070SOL    HW259365   2.485   5.083   6.444  2.1056  0.8049  0.6552
19071SOL     OW59366   6.419   2.581   2.005 -0.1200  0.2993  0.0325
19071SOL    HW159367   6.494   2.596   1.946 -0.1288 -0.2913 -0.1305
19071SOL    HW259368   6.455   2.594   2.093  0.2942 -0.4605 -0.0195
19072SOL     OW59369   5.657   6.324   2.520  0.0773  0.3102 -0.8015
19072SOL    HW159370   5.656   6.286   2.432  1.5942 -0.7526 -0.4047
19072SOL    HW259371   5.621   6.411   2.509 -1.2512 -0.3754 -2.1889
19073SOL     OW59372   7.770   7.878   9.265 -0.0979 -0.5291  0.7673
19073SOL    HW159373   7.838   7.888   9.199  0.9788  0.1022  1.9190
19073SOL    HW259374   7.689   7.870   9.215  0.4648  1.5825 -0.6347
19074SOL     OW59375   4.194   5.044   3.269  0.2667 -0.4569 -0.2907
19074SOL    HW159376   4.209   4.986   3.194 -0.7777  1.2174 -1.8874
19074SOL    HW259377   4.254   5.117   3.255 -0.2302  0.0732  0.2798
19075SOL     OW59378   8.009   8.816   0.749 -0.4797 -0.5667 -0.0318
19075SOL    HW159379   7.984   8.894   0.800 -0.2733 -0.7210  0.3054
19075SOL    HW259380   8.011   8.745   0.813 -2.9152 -1.3380 -0.7055
19076SOL     OW59381   3.122   1.236   5.515 -0.0221 -0.3041  0.1483
19076SOL    HW159382   3.063   1.261   5.444 -0.6674 -0.9637  0.4422
19076SOL    HW259383   3.147   1.146   5.495  0.1525 -0.3395  0.5187
19077SOL     OW59384   4.518   7.532   4.337 -0.7773  0.4078 -0.0301
19077SOL    HW159385   4.598   7.491   4.370 -0.7385 -0.1164 -0.7573
19077SOL    HW259386   4.530   7.535   4.243 -1.4116  0.7770 -0.1039
19078SOL     OW59387   3.083   0.789   0.465 -0.5698 -0.5303  0.1965
19078SOL    HW159388   2.995   0.764   0.436 -0.4784 -1.3409  0.6117
19078SOL    HW259389   3.121   0.835   0.390 -0.7718 -1.5694 -0.5484
19079SOL     OW59390   6.502   8.820   6.635 -0.2387 -0.0449 -0.3918
19079SOL    HW159391   6.428   8.858   6.683 -0.2740 -0.1670 -0.3470
19079SOL    HW259392   6.464   8.793   6.551 -0.1863  0.1306 -0.4715
19080SOL     OW59393   0.098   4.057   6.389 -0.2359  0.1130  0.0235
19080SOL    HW159394   0.069   4.123   6.325 -0.4683  1.8145  1.7907
19080SOL    HW259395   0.024   3.997   6.395 -1.0819  1.1336  0.2159
19081SOL     OW59396   6.033   2.696   3.986 -0.4543 -0.0120 -0.0096
19081SOL    HW159397   6.085   2.707   4.066  2.5501 -3.7608 -1.0953
19081SOL    HW259398   5.945   2.677   4.016  0.6920 -1.8536  2.5606
19082SOL     OW59399   8.660   3.378   3.377 -0.4012  0.1184 -0.0622
19082SOL    HW159400   8.585   3.436   3.380  0.5528  1.4646 -1.0173
19082SOL    HW259401   8.725   3.420   3.433  1.0156  1.1287 -2.3104
19083SOL     OW59402   8.821   3.105   5.037  0.3218 -0.1524  0.1282
19083SOL    HW159403   8.750   3.048   5.067 -1.3766  1.0308 -1.3524
19083SOL    HW259404   8.814   3.102   4.941  2.1694  0.1690 -0.0474
19084SOL     OW59405   1.044   6.160   3.909 -0.5909 -0.0410  0.4638
19084SOL    HW159406   1.107   6.183   3.977 -1.9673  1.8984  1.1731
19084SOL    HW259407   1.064   6.219   3.837 -0.1773 -0.9826 -0.2114
19085SOL     OW59408   4.661   7.910   7.365 -0.4364 -0.6414 -0.3100
19085SOL    HW159409   4.708   7.970   7.308 -1.4338  1.9689  1.4259
19085SOL    HW259410   4.628   7.842   7.307 -1.1382  1.6883 -2.8119
19086SOL     OW59411   0.473   6.860   5.928 -0.0653  0.4559  0.1124
19086SOL    HW159412   0.508   6.773   5.912  0.2853  0.9586 -2.2648
19086SOL    HW259413   0.380   6.845   5.945 -0.3581 -0.3251 -1.8663
19087SOL     OW59414   6.714   6.048   8.743 -0.1176  0.8808  0.2103
19087SOL    HW159415   6.794   6.099   8.728  0.7262 -0.1447  1.1014
19087SOL    HW259416   6.669   6.050   8.659  0.5061  2.0333 -0.1233
19088SOL     OW59417   8.900   8.276   1.821 -0.2333  0.0738  0.0830
19088SOL    HW159418   8.975   8.216   1.821  0.9194  1.4434  0.9984
19088SOL    HW259419   8.871   8.277   1.730 -0.3928 -1.9407  0.0613
19089SOL     OW59420   3.989   9.024   6.299  0.0964 -0.3542 -0.0014
19089SOL    HW159421   3.962   8.985   6.216  0.1311 -1.7478  0.6054
19089SOL    HW259422   3.932   9.100   6.309 -0.7414 -0.8486 -0.7411
19090SOL     OW59423   2.193   7.166   2.174  0.0316  0.2715 -0.4173
19090SOL    HW159424   2.223   7.076   2.179 -3.5396 -1.2414 -2.4421
19090SOL    HW259425   2.234   7.201   2.095  2.1492  0.8569  0.8610
19091SOL     OW59426   8.550   1.774   1.039  0.4171 -0.1707  0.1169
19091SOL    HW159427   8.573   1.708   1.104 -1.4815 -0.9912  0.0296
19091SOL    HW259428   8.626   1.832   1.036  2.9611 -3.2309 -1.0096
19092SOL     OW59429   8.875   8.483   5.081  0.4884  0.3286 -0.1001
19092SOL    HW159430   8.900   8.503   5.172 -1.1386  2.2578  0.0038
19092SOL    HW259431   8.787   8.520   5.073  0.7178  0.4385 -2.5699
19093SOL     OW59432   2.919   0.131   7.354  0.5954 -0.1761 -0.2054
19093SOL    HW159433   2.968   0.059   7.393 -0.0955 -0.3538  0.3628
19093SOL    HW259434   2.858   0.158   7.423  1.2855  1.4020 -0.1522
19094SOL     OW59435   3.038   1.338   6.387  0.8660  0.6927  0.1304
19094SOL    HW159436   3.090   1.286   6.326  0.1056  0.8882 -0.6955
19094SOL    HW259437   2.971   1.278   6.420 -0.3967  1.2738 -1.2925
19095SOL     OW59438   7.530   8.355   6.123  0.0412 -0.2340  0.7154
19095SOL    HW159439   7.498   8.308   6.046  0.5694  0.1444  0.2572
19095SOL    HW259440   7.451   8.385   6.167 -0.2525  0.8749 -0.5060
19096SOL     OW59441   8.628   3.506   5.212 -0.3443 -0.3058  0.0387
19096SOL    HW159442   8.643   3.573   5.145  1.4726 -0.4039  0.2869
19096SOL    HW259443   8.549   3.535   5.258  0.6613  1.9740  0.4612
19097SOL     OW59444   0.103   8.876   2.909 -0.0515  0.2039 -0.3324
19097SOL    HW159445   0.106   8.781   2.920 -0.4277  0.1734 -0.4656
19097SOL    HW259446   0.150   8.893   2.828  1.0832  0.2494  0.3236
19098SOL     OW59447   9.522   5.323   9.067 -0.3589  0.3357  0.3802
19098SOL    HW159448   9.438   5.366   9.084 -1.4478 -0.5418 -2.2238
19098SOL    HW259449   9.555   5.365   8.988  2.0880  1.1188  1.7052
19099SOL     OW59450   3.379   8.866   9.554 -0.4550  0.2913 -0.0666
19099SOL    HW159451   3.376   8.950   9.600  0.6831  0.4808 -0.3049
19099SOL    HW259452   3.468   8.861   9.518 -0.8949 -0.4551 -1.1155
19100SOL     OW59453   1.586   2.210   2.008  0.3104  0.1742  0.5172
19100SOL    HW159454   1.601   2.141   1.943 -0.2620  1.5551 -1.1666
19100SOL    HW259455   1.668   2.216   2.056  0.5881 -1.2081  0.2621
19101SOL     OW59456   6.365   2.826   1.198 -0.1195  0.1269 -0.4154
19101SOL    HW159457   6.365   2.731   1.187 -0.2957  0.1124 -0.2839
19101SOL    HW259458   6.448   2.855   1.159 -1.3487  0.2248 -3.2086
19102SOL     OW59459   6.192   3.865   3.458  0.0904 -0.1082  0.3580
19102SOL    HW159460   6.275   3.859   3.505 -0.0203  1.2649  0.8006
19102SOL    HW259461   6.216   3.887   3.368  0.2417 -1.1581  0.1280
19103SOL     OW59462   6.559   5.509   4.021 -0.2888  0.4600 -0.1617
19103SOL    HW159463   6.489   5.458   3.980  1.7673 -0.7465 -2.4191
19103SOL    HW259464   6.586   5.571   3.953  1.4712  0.2327  0.2877
19104SOL     OW59465   4.750   0.532   1.062 -0.2394 -0.2491  0.3844
19104SOL    HW159466   4.766   0.516   1.155  0.4106 -0.9809  0.1612
19104SOL    HW259467   4.655   0.525   1.053 -0.2512 -0.8461  0.8855
19105SOL     OW59468   8.310   0.921   8.285 -0.5655 -0.1348 -0.0416
19105SOL    HW159469   8.224   0.896   8.320  0.4548 -0.4589  2.3968
19105SOL    HW259470   8.302   0.906   8.191 -2.5337 -2.0750  0.3469
19106SOL     OW59471   8.466   9.550   1.938  0.2553  0.2483 -1.1401
19106SOL    HW159472   8.559   9.543   1.959 -0.0418  1.1988  0.7062
19106SOL    HW259473   8.462   9.622   1.875  0.5686  2.0803  0.8153
19107SOL     OW59474   0.256   8.900   5.146 -0.2738 -0.0170  0.5747
19107SOL    HW159475   0.209   8.830   5.103  1.0995 -0.6811  0.0925
19107SOL    HW259476   0.315   8.934   5.079 -0.3152  1.0340  1.0503
19108SOL     OW59477   4.553   2.498   2.932  0.1814  0.1848 -0.0270
19108SOL    HW159478   4.488   2.484   2.862 -0.3505  0.5431  0.3902
19108SOL    HW259479   4.529   2.433   2.998  0.7373 -0.2099 -0.2056
19109SOL     OW59480   8.389   5.509   7.356  0.0318 -0.2128 -0.0436
19109SOL    HW159481   8.378   5.575   7.288 -1.6773 -0.3839  0.0347
19109SOL    HW259482   8.388   5.426   7.310 -1.4763 -0.3479  0.1871
19110SOL     OW59483   0.288   2.095   8.526 -0.4458 -0.2354 -0.5115
19110SOL    HW159484   0.372   2.105   8.572 -1.3178 -1.7073  1.5241
19110SOL    HW259485   0.306   2.031   8.457  0.3038  0.1609 -0.6959
19111SOL     OW59486   5.375   7.243   3.883  0.3262 -0.5005 -0.1348
19111SOL    HW159487   5.450   7.260   3.826 -0.5050  3.1682 -0.3816
19111SOL    HW259488   5.413   7.200   3.960  2.0557 -1.9568 -1.7083
19112SOL     OW59489   6.088   7.739   2.982  0.3890 -0.4329 -0.0257
19112SOL    HW159490   6.121   7.821   2.943  0.2093 -0.2935  0.1135
19112SOL    HW259491   6.017   7.767   3.039  1.8406 -0.4359  1.8606
19113SOL     OW59492   7.091   1.561   3.998 -0.3122  0.0762 -0.3812
19113SOL    HW159493   7.071   1.498   3.930 -4.4567  0.9390 -0.2318
19113SOL    HW259494   7.030   1.540   4.069  0.6451  2.0552  1.1301
19114SOL     OW59495   6.850   2.517   7.530  1.0770 -0.0141  0.4604
19114SOL    HW159496   6.827   2.434   7.490  0.6689 -0.2057  1.0849
19114SOL    HW259497   6.786   2.579   7.496 -1.6839 -0.8965  3.5916
19115SOL     OW59498   3.823   6.364   4.945 -0.0579 -0.7339  0.4794
19115SOL    HW159499   3.779   6.337   5.025 -1.1447 -2.4480 -0.6029
19115SOL    HW259500   3.905   6.314   4.945 -0.4279 -1.3654  0.1814
19116SOL     OW59501   1.098   3.640   7.797 -0.5595  0.1304 -0.2928
19116SOL    HW159502   1.077   3.702   7.727 -0.6505  0.1889 -0.2140
19116SOL    HW259503   1.016   3.630   7.845 -0.8588 -0.9648 -1.0201
19117SOL     OW59504   5.739   3.819   2.436 -0.1513 -0.8985 -0.2303
19117SOL    HW159505   5.672   3.885   2.416  0.0915 -1.4172 -3.2465
19117SOL    HW259506   5.731   3.804   2.530 -1.8812  1.6015  0.1148
19118SOL     OW59507   1.571   0.766   2.933 -0.9758  0.6762 -0.5014
19118SOL    HW159508   1.501   0.829   2.950 -0.5253  0.8312  0.9181
19118SOL    HW259509   1.637   0.785   2.999 -0.4330 -0.7066 -0.6027
19119SOL     OW59510   1.610   0.313   6.635  0.0506  0.4530 -0.9091
19119SOL    HW159511   1.661   0.267   6.568  0.7723  2.0107 -1.4762
19119SOL    HW259512   1.649   0.401   6.638 -0.8358  0.8167  0.6200
19120SOL     OW59513   9.192   4.229   6.505  0.3333 -0.1658  0.2863
19120SOL    HW159514   9.274   4.267   6.535  1.3497 -2.4613  0.6352
19120SOL    HW259515   9.138   4.222   6.584  0.2898  0.1766  0.2874
19121SOL     OW59516   0.819   4.524   0.862  0.2728  0.4981  0.0509
19121SOL    HW159517   0.854   4.436   0.877 -1.3267 -0.2261 -0.3165
19121SOL    HW259518   0.896   4.581   0.863  1.2842 -0.8380  0.7674
19122SOL     OW59519   8.348   5.587   5.322 -0.1008 -1.1754 -0.6702
19122SOL    HW159520   8.437   5.575   5.353  0.3417  0.2053 -1.3559
19122SOL    HW259521   8.329   5.508   5.271 -0.3510 -2.8474  1.8512
19123SOL     OW59522   1.020   3.213   6.345  0.0729  0.3662 -0.0134
19123SOL    HW159523   1.063   3.181   6.266  0.9862 -0.1433  0.6712
19123SOL    HW259524   0.992   3.302   6.324 -0.3025 -0.0014 -1.1286
19124SOL     OW59525   9.608   2.462   8.797  0.2937 -0.1684  0.6551
19124SOL    HW159526   9.530   2.455   8.744  0.0884 -0.6629  1.0171
19124SOL    HW259527   9.618   2.556   8.813  0.1186 -0.0559  0.1074
19125SOL     OW59528   5.994   0.212   5.763 -0.3726 -0.0227  0.3270
19125SOL    HW159529   6.030   0.281   5.708  0.5070 -0.3245  0.5048
19125SOL    HW259530   5.992   0.250   5.851 -0.5174  0.0029  0.3126
19126SOL     OW59531   7.261   3.877   5.460  0.3332 -0.2942 -0.4586
19126SOL    HW159532   7.356   3.887   5.458  0.5886 -2.0823  0.7009
19126SOL    HW259533   7.244   3.798   5.409 -0.3507 -0.9495  0.7368
19127SOL     OW59534   5.589   4.429   3.778 -0.2909 -0.6890  0.2152
19127SOL    HW159535   5.606   4.420   3.685 -0.0347 -0.7388  0.2662
19127SOL    HW259536   5.556   4.343   3.805 -2.2216 -0.1140 -0.2136
19128SOL     OW59537   5.505   3.585   4.342 -0.6326  0.2452  0.4352
19128SOL    HW159538   5.444   3.612   4.411  0.5520  1.2687  1.1316
19128SOL    HW259539   5.569   3.656   4.339  1.4327 -1.5197  0.8243
19129SOL     OW59540   7.151   2.033   3.396 -0.0488 -0.3099 -0.6617
19129SOL    HW159541   7.231   1.988   3.366  0.3438  0.2490 -0.4718
19129SOL    HW259542   7.174   2.126   3.395  0.4812 -0.2568  2.6214
19130SOL     OW59543   0.404   2.970   3.141 -0.0141 -0.0452 -0.5006
19130SOL    HW159544   0.351   2.893   3.120 -1.4332  0.1613  1.9414
19130SOL    HW259545   0.344   3.029   3.188  1.6483  1.4888 -0.1740
19131SOL     OW59546   5.407   7.472   2.608  0.1963  0.0594  0.3374
19131SOL    HW159547   5.478   7.530   2.580  1.7358 -1.0974  1.6976
19131SOL    HW259548   5.447   7.411   2.670 -1.5459 -1.9414 -0.3630
19132SOL     OW59549   3.382   2.080   1.845 -0.1986 -0.0001  0.1023
19132SOL    HW159550   3.410   2.076   1.754  0.0345 -0.4804  0.1871
19132SOL    HW259551   3.443   2.142   1.886 -1.1073  1.2068 -0.3325
19133SOL     OW59552   3.245   5.341   8.983 -0.9542 -0.3466 -0.3623
19133SOL    HW159553   3.318   5.384   8.939 -1.3189  0.2650 -0.3705
19133SOL    HW259554   3.179   5.409   8.994 -1.0494 -0.5961  0.7405
19134SOL     OW59555   0.282   5.499   3.093 -0.4541 -0.6568  0.2474
19134SOL    HW159556   0.210   5.516   3.153 -1.1003 -0.2292 -0.6302
19134SOL    HW259557   0.295   5.582   3.048 -1.1909 -1.4427 -1.4881
19135SOL     OW59558   1.599   2.524   8.833  0.2848  0.5132  0.2418
19135SOL    HW159559   1.552   2.474   8.900 -0.0016 -0.5665 -0.7316
19135SOL    HW259560   1.567   2.613   8.843 -0.4395  0.1894  0.9432
19136SOL     OW59561   9.131   9.459   2.362 -0.1328  0.5202  0.4482
19136SOL    HW159562   9.063   9.481   2.299 -0.2831  0.1345  0.4765
19136SOL    HW259563   9.109   9.371   2.393  0.2399  0.4902  0.6398
19137SOL     OW59564   6.004   3.652   5.097  0.3973  0.2420  0.2003
19137SOL    HW159565   6.079   3.653   5.038  0.3355  0.7454  0.1270
19137SOL    HW259566   5.956   3.572   5.074  0.9372 -0.1156  0.2882
19138SOL     OW59567   6.294   2.907   7.906  0.3130  0.0407  0.2295
19138SOL    HW159568   6.221   2.861   7.948  0.3970 -0.4402 -0.1474
19138SOL    HW259569   6.252   2.981   7.860  0.0652 -0.1997  0.0617
19139SOL     OW59570   4.640   4.761   6.662  0.1816  0.1558 -0.2633
19139SOL    HW159571   4.547   4.759   6.639 -0.0448 -0.3354  0.6718
19139SOL    HW259572   4.641   4.786   6.754  0.9340 -0.7590 -0.0171
19140SOL     OW59573   3.827   2.860   8.851  0.5063 -0.1269  0.0009
19140SOL    HW159574   3.745   2.815   8.873  0.5458 -0.9760 -1.4655
19140SOL    HW259575   3.842   2.839   8.759  1.7677  0.9980 -0.0843
19141SOL     OW59576   3.260   9.309   8.429  0.2614  0.1564 -0.2704
19141SOL    HW159577   3.227   9.397   8.411  1.2355  1.0474  2.0002
19141SOL    HW259578   3.348   9.322   8.464 -0.1699 -1.5594  1.6893
19142SOL     OW59579   5.685   3.068   5.694  0.1075  0.5811  0.0799
19142SOL    HW159580   5.593   3.085   5.714 -0.6957  0.9940 -3.2874
19142SOL    HW259581   5.733   3.111   5.765 -2.2274 -0.0132  2.1938
19143SOL     OW59582   0.304   0.334   4.472 -0.2647  0.7640 -0.5775
19143SOL    HW159583   0.247   0.321   4.548 -1.6586 -1.4522 -1.8629
19143SOL    HW259584   0.249   0.379   4.408 -0.5946 -1.2027 -1.7565
19144SOL     OW59585   8.373   3.648   4.471  0.2955 -0.4606 -0.1358
19144SOL    HW159586   8.431   3.724   4.459  0.1936 -0.5036 -0.9566
19144SOL    HW259587   8.392   3.592   4.397 -0.2705 -0.8281 -0.0070
19145SOL     OW59588   8.987   5.040   2.176  0.4238  0.7607  0.0748
19145SOL    HW159589   9.008   5.107   2.241 -1.1956  0.7738  0.6436
19145SOL    HW259590   8.894   5.021   2.191  0.3258 -0.1222 -1.4446
19146SOL     OW59591   5.159   5.040   5.518  0.1943  0.3627  0.3634
19146SOL    HW159592   5.247   5.037   5.482 -0.2385  0.3336 -0.7441
19146SOL    HW259593   5.158   5.118   5.574  0.6149  1.0010 -0.4845
19147SOL     OW59594   4.188   2.793   5.280  0.6427  0.0040  0.0027
19147SOL    HW159595   4.124   2.858   5.309  1.8891  1.4850 -0.4178
19147SOL    HW259596   4.142   2.740   5.216 -0.6076  0.0302  0.8493
19148SOL     OW59597   6.546   4.711   2.687  0.2646  0.2472  0.8060
19148SOL    HW159598   6.635   4.693   2.658  0.1742  0.9052  0.1029
19148SOL    HW259599   6.519   4.631   2.732 -0.0158 -1.2955 -1.9296
19149SOL     OW59600   1.198   2.086   7.627  0.2479  0.2289  0.4222
19149SOL    HW159601   1.249   2.158   7.663  0.6725  0.3458 -0.3913
19149SOL    HW259602   1.248   2.056   7.552  0.2245 -1.1126  0.9096
19150SOL     OW59603   0.036   6.514   3.128  0.7291 -0.3950 -0.1714
19150SOL    HW159604  -0.014   6.496   3.208  1.9267  1.3412  1.0483
19150SOL    HW259605   0.120   6.468   3.141  1.0312  0.1115 -0.2958
19151SOL     OW59606   2.360   8.309   9.012 -0.2195 -0.4143 -0.3419
19151SOL    HW159607   2.372   8.290   8.919 -0.8198  0.1233 -0.5356
19151SOL    HW259608   2.355   8.223   9.054  0.3103 -0.6556 -0.7699
19152SOL     OW59609   1.751   3.852   7.617 -0.2644  0.1676 -0.0860
19152SOL    HW159610   1.763   3.761   7.646  2.4925  0.9498  1.7043
19152SOL    HW259611   1.676   3.849   7.558 -1.1006 -3.0322  0.9195
19153SOL     OW59612   0.501   7.785   2.353  0.6117  0.1533 -0.0257
19153SOL    HW159613   0.555   7.864   2.351  1.6030 -0.5201 -0.9612
19153SOL    HW259614   0.547   7.726   2.413  0.3841 -0.0628 -0.0602
19154SOL     OW59615   2.940   1.037   2.336 -0.4430 -0.4229  0.6888
19154SOL    HW159616   3.016   1.028   2.393 -0.9082 -0.0047  1.3975
19154SOL    HW259617   2.959   1.114   2.282  0.5534 -1.5427 -0.6383
19155SOL     OW59618   8.928   3.073   2.864  0.3576  0.7211 -0.2670
19155SOL    HW159619   8.976   2.992   2.844 -0.1134 -0.0856  1.6414
19155SOL    HW259620   8.844   3.062   2.820  1.1872  1.3456 -2.1208
19156SOL     OW59621   7.162   8.340   3.067  0.4910 -0.0641 -0.2324
19156SOL    HW159622   7.168   8.329   2.972  1.4012  0.7859 -0.2934
19156SOL    HW259623   7.116   8.262   3.097 -0.3124 -0.0877 -1.4256
19157SOL     OW59624   3.337   6.493   6.018  0.2005  0.2185 -0.5291
19157SOL    HW159625   3.263   6.500   6.079 -0.0961 -0.7205 -0.7631
19157SOL    HW259626   3.389   6.571   6.034 -0.1186  0.2123  0.6123
19158SOL     OW59627   9.272   2.999   8.254  0.3517 -0.0880  0.1278
19158SOL    HW159628   9.280   2.962   8.166 -0.0136  0.5371 -0.1755
19158SOL    HW259629   9.349   2.967   8.301  1.2514  0.6367 -0.8132
19159SOL     OW59630   7.765   5.451   3.459  0.4393  0.5401  0.4310
19159SOL    HW159631   7.813   5.513   3.404  0.7952  0.1478  0.2948
19159SOL    HW259632   7.832   5.412   3.516  0.2165  0.3072  0.5363
19160SOL     OW59633   4.042   7.745   9.175  0.0885  0.0038  0.0668
19160SOL    HW159634   3.954   7.721   9.146  0.4306 -0.7362 -0.3833
19160SOL    HW259635   4.069   7.674   9.233  0.8039 -0.3129 -0.6393
19161SOL     OW59636   8.716   2.554   5.302 -0.1761  0.3067 -0.7160
19161SOL    HW159637   8.766   2.618   5.252  0.5773 -0.0012 -0.3614
19161SOL    HW259638   8.778   2.483   5.319 -0.9735 -0.4808 -1.0313
19162SOL     OW59639   0.902   5.875   9.255 -0.4440 -0.0170 -0.1029
19162SOL    HW159640   0.979   5.929   9.270 -1.4323  1.3918  0.1355
19162SOL    HW259641   0.829   5.937   9.254 -1.3864 -1.0760 -2.1706
19163SOL     OW59642   6.147   7.945   1.212  0.4837 -0.2589  0.2503
19163SOL    HW159643   6.096   7.885   1.265  1.5627 -0.8119  0.6784
19163SOL    HW259644   6.101   7.948   1.128 -1.3743  0.8171  1.2524
19164SOL     OW59645   2.848   1.228   9.286 -0.1798  0.1638  0.0403
19164SOL    HW159646   2.921   1.216   9.346 -1.5338  0.4230  1.8446
19164SOL    HW259647   2.877   1.188   9.204  2.2050  0.8705  0.4784
19165SOL     OW59648   5.348   4.669   8.662  0.2970  0.0633 -0.2986
19165SOL    HW159649   5.305   4.593   8.622 -2.4277 -0.5763  3.3246
19165SOL    HW259650   5.287   4.741   8.650  0.7402  0.5395  0.2329
19166SOL     OW59651   8.515   7.389   4.718  0.4692  0.0124  0.1264
19166SOL    HW159652   8.603   7.404   4.682  0.9161 -1.8676  0.3605
19166SOL    HW259653   8.465   7.355   4.644 -0.2728  1.6237 -0.1604
19167SOL     OW59654   8.232   6.644   3.847  0.3525 -0.4356  0.9348
19167SOL    HW159655   8.326   6.647   3.828  0.7345 -0.5290  2.6434
19167SOL    HW259656   8.225   6.674   3.937 -1.0365 -2.3890  1.5521
19168SOL     OW59657   3.046   0.900   3.932 -0.2389  0.0516  0.1252
19168SOL    HW159658   2.992   0.965   3.979 -0.4158 -0.5428  0.7658
19168SOL    HW259659   3.010   0.816   3.959 -0.2692 -0.3125 -1.0191
19169SOL     OW59660   3.460   2.136   7.537 -0.0723 -0.2339 -0.4512
19169SOL    HW159661   3.536   2.093   7.497  0.3684 -1.0000  1.1295
19169SOL    HW259662   3.387   2.079   7.515 -0.1231  0.2328 -1.5442
19170SOL     OW59663   2.324   0.023   2.983  0.6455  0.2941 -0.0487
19170SOL    HW159664   2.339   0.118   2.978 -1.3246  0.7338  1.2041
19170SOL    HW259665   2.249   0.009   2.925 -1.1082  0.0873  2.1354
19171SOL     OW59666   5.790   7.951   2.114  0.0220 -0.1661  0.3458
19171SOL    HW159667   5.726   8.015   2.081 -1.0376  0.0785  2.6961
19171SOL    HW259668   5.829   7.993   2.191  0.8438 -1.5200  0.7033
19172SOL     OW59669   7.489   7.201   0.596  0.2636 -0.2513 -0.0596
19172SOL    HW159670   7.571   7.248   0.583 -0.5338  0.9581 -0.9754
19172SOL    HW259671   7.424   7.270   0.610 -0.5027 -1.2046  1.2900
19173SOL     OW59672   7.043   1.827   5.730  0.6421  0.0144  0.1585
19173SOL    HW159673   7.037   1.898   5.667 -0.1433 -0.2514 -0.0708
19173SOL    HW259674   6.969   1.840   5.790  1.3343  0.2270  0.9950
19174SOL     OW59675   2.135   5.325   2.152 -0.0518 -0.0958  0.2034
19174SOL    HW159676   2.087   5.258   2.102 -1.4545  0.5455  0.6360
19174SOL    HW259677   2.169   5.278   2.228  1.3429 -0.8907 -0.8759
19175SOL     OW59678   7.787   5.795   3.790 -0.1569 -0.0902 -0.4415
19175SOL    HW159679   7.692   5.800   3.775 -0.2472 -0.1910  0.0912
19175SOL    HW259680   7.797   5.814   3.883  0.2540 -1.2266 -0.2476
19176SOL     OW59681   3.212   1.452   8.446 -0.0343  0.5840  0.1284
19176SOL    HW159682   3.181   1.363   8.459 -0.2949  0.8025  1.0393
19176SOL    HW259683   3.153   1.506   8.498 -0.5996  1.4203 -1.3187
19177SOL     OW59684   0.580   0.429   9.032  0.0948  0.4974  0.7045
19177SOL    HW159685   0.636   0.446   9.108 -0.0390  0.5858  0.7840
19177SOL    HW259686   0.529   0.352   9.056  0.5360  0.1152  0.4366
19178SOL     OW59687   6.024   1.447   1.443  0.3275 -0.3239 -0.0895
19178SOL    HW159688   6.061   1.382   1.504 -1.0223  0.3230  1.4994
19178SOL    HW259689   6.096   1.509   1.428  1.2595 -1.5103 -0.6906
19179SOL     OW59690   8.061   1.917   8.012  0.7916  0.0141 -0.2296
19179SOL    HW159691   8.047   2.010   8.030 -0.7308 -0.4946  1.4026
19179SOL    HW259692   7.989   1.893   7.953  2.1167  0.1989 -2.0012
19180SOL     OW59693   2.627   8.424   8.820 -0.2489 -0.4234  0.4497
19180SOL    HW159694   2.583   8.350   8.778  0.3483 -1.8413  2.2479
19180SOL    HW259695   2.713   8.427   8.780 -0.5176 -0.2276 -0.1294
19181SOL     OW59696   9.365   6.629   9.606 -0.0936 -0.3867  0.1022
19181SOL    HW159697   9.314   6.548   9.612  0.0211 -0.5082 -0.5750
19181SOL    HW259698   9.446   6.604   9.563  0.0988  0.0170  0.2243
19182SOL     OW59699   0.852   5.323   0.476  0.2273  0.3998  0.0531
19182SOL    HW159700   0.763   5.288   0.482  0.9672 -1.6962 -0.2921
19182SOL    HW259701   0.893   5.295   0.557  0.4675  1.7302  0.4012
19183SOL     OW59702   7.734   0.654   2.910 -0.2897  0.5011 -0.6073
19183SOL    HW159703   7.651   0.667   2.957  0.1860 -2.7975  1.5399
19183SOL    HW259704   7.798   0.706   2.958 -0.2678 -0.9724  1.0768
19184SOL     OW59705   8.748   8.896   5.120  0.5501 -0.3567  0.4579
19184SOL    HW159706   8.755   8.991   5.126 -0.5480 -0.2939  1.0882
19184SOL    HW259707   8.829   8.868   5.078 -0.1907  1.0808 -2.1716
19185SOL     OW59708   8.595   0.049   7.067  0.1998  0.2846 -0.7015
19185SOL    HW159709   8.543   0.004   7.134  1.0200  0.2189 -0.0949
19185SOL    HW259710   8.666  -0.012   7.048  0.9486  1.0452 -0.3633
19186SOL     OW59711   6.143   6.047   6.320 -0.2219  0.0701 -0.5982
19186SOL    HW159712   6.186   6.117   6.370 -2.8922  2.0450 -0.8709
19186SOL    HW259713   6.216   5.994   6.287  1.8096  1.1469  1.8051
19187SOL     OW59714   5.547   4.136   3.037 -0.2891  0.7729  0.1054
19187SOL    HW159715   5.621   4.171   3.085 -0.6439  2.3048 -0.4192
19187SOL    HW259716   5.556   4.171   2.948 -0.1203 -1.2857 -0.7560
19188SOL     OW59717   8.273   6.284   7.013  0.3290 -0.2373  0.3760
19188SOL    HW159718   8.207   6.229   7.055  1.1660 -2.2055 -0.7581
19188SOL    HW259719   8.228   6.367   6.998 -1.2998 -0.9057  1.2840
19189SOL     OW59720   5.192   1.362   5.503 -0.1211  0.0887  0.0564
19189SOL    HW159721   5.107   1.339   5.541 -0.1942  1.2327  0.6433
19189SOL    HW259722   5.170   1.400   5.417 -0.0713 -1.0310 -0.4706
19190SOL     OW59723   6.067   4.119   9.166  0.4167 -0.0210  0.0852
19190SOL    HW159724   5.989   4.130   9.112  0.0200  1.8755  0.9420
19190SOL    HW259725   6.127   4.187   9.135  1.9366 -1.6917 -0.8266
19191SOL     OW59726   5.248   2.809   6.568 -0.6256  0.4470  0.8275
19191SOL    HW159727   5.213   2.866   6.500 -0.4761 -2.6065 -2.0733
19191SOL    HW259728   5.172   2.786   6.622 -1.4175  0.4951 -0.2341
19192SOL     OW59729   9.594   0.036   0.468  0.7294 -0.2815  0.7556
19192SOL    HW159730   9.573   0.094   0.541  1.3230 -0.3795  1.0115
19192SOL    HW259731   9.535  -0.039   0.479 -0.6237  0.6358 -0.0508
19193SOL     OW59732   3.124   3.111   3.819  0.1687  0.4155  0.1920
19193SOL    HW159733   3.216   3.118   3.843  0.2286  1.7648 -0.3377
19193SOL    HW259734   3.125   3.069   3.733  0.2377 -0.2472  0.5143
19194SOL     OW59735   8.085   9.381   8.483 -0.4237  0.3907  0.2469
19194SOL    HW159736   8.021   9.322   8.523 -1.4413  2.5426  1.9781
19194SOL    HW259737   8.064   9.379   8.390 -2.7951  0.7177  0.7089
19195SOL     OW59738   6.192   8.175   7.747  0.5359 -0.4767 -0.1073
19195SOL    HW159739   6.261   8.128   7.795 -0.3443 -1.3325  0.3579
19195SOL    HW259740   6.133   8.106   7.717  0.3511  0.1712 -1.2908
19196SOL     OW59741   3.501   6.919   8.574  0.3387  0.2737  0.3509
19196SOL    HW159742   3.474   6.855   8.640 -0.6510 -0.3527 -0.6234
19196SOL    HW259743   3.526   6.866   8.498 -1.6404  1.0364 -0.9037
19197SOL     OW59744   7.692   5.560   2.891  0.0856  0.1267 -0.1192
19197SOL    HW159745   7.720   5.527   2.977 -0.6143  2.1273  0.9303
19197SOL    HW259746   7.714   5.653   2.892 -1.6141  0.5857 -1.3800
19198SOL     OW59747   6.777   6.084   2.012  0.6795 -0.2814  0.2248
19198SOL    HW159748   6.716   6.104   1.941 -0.9843 -0.9993  1.4085
19198SOL    HW259749   6.725   6.039   2.078  2.1567  0.4075  1.9606
19199SOL     OW59750   5.332   7.169   4.307  0.1302  0.2636  0.5502
19199SOL    HW159751   5.295   7.080   4.309 -1.3359  0.7155 -1.9106
19199SOL    HW259752   5.293   7.212   4.383 -0.8224 -0.6227  0.6024
19200SOL     OW59753   7.577   4.343   1.739 -0.5714  0.9064  0.2299
19200SOL    HW159754   7.656   4.321   1.789 -0.8391 -2.4119 -0.5800
19200SOL    HW259755   7.556   4.432   1.766  3.0057  1.6553  1.0284
19201SOL     OW59756   2.513   4.850   8.428  0.4702 -0.8770  0.3186
19201SOL    HW159757   2.597   4.850   8.474  1.0163  1.1889 -0.5961
19201SOL    HW259758   2.536   4.831   8.337 -0.2009 -1.4344  0.2597
19202SOL     OW59759   3.138   2.281   6.799 -0.2116 -0.4571 -0.1578
19202SOL    HW159760   3.051   2.292   6.838 -0.4819 -1.2982 -0.5215
19202SOL    HW259761   3.122   2.273   6.705  0.4046  1.0942 -0.4374
19203SOL     OW59762   6.480   5.763   6.033 -0.3034 -0.2226  0.0154
19203SOL    HW159763   6.458   5.672   6.013 -2.3280  0.5338 -1.6214
19203SOL    HW259764   6.575   5.763   6.044 -0.4854 -2.9537  2.8276
19204SOL     OW59765   6.016   5.142   2.776 -0.2534  0.4274  0.1483
19204SOL    HW159766   5.942   5.194   2.806 -1.3885 -0.8691 -0.2792
19204SOL    HW259767   6.020   5.068   2.836 -0.9740 -0.8630 -1.2938
19205SOL     OW59768   8.769   4.649   4.328 -0.2239  0.2167 -0.0076
19205SOL    HW159769   8.838   4.631   4.264  0.5807  1.0545  0.6010
19205SOL    HW259770   8.691   4.664   4.274  0.3695  0.6274 -0.7774
19206SOL     OW59771   1.664   4.601   1.591  0.4070  0.0870  0.3135
19206SOL    HW159772   1.581   4.578   1.632  0.9459 -2.5903  0.1005
19206SOL    HW259773   1.640   4.661   1.520 -1.1736  0.3660  1.0428
19207SOL     OW59774   9.571   1.864   8.255 -0.4113  0.0151  0.6361
19207SOL    HW159775   9.539   1.787   8.301  1.3388  0.2928  2.4521
19207SOL    HW259776   9.660   1.840   8.229 -0.3326  0.9545  0.0170
19208SOL     OW59777   0.269   4.181   7.387 -0.1876 -0.3158 -0.3581
19208SOL    HW159778   0.353   4.207   7.350 -0.4906 -0.7697 -1.3902
19208SOL    HW259779   0.242   4.106   7.335 -0.5828 -1.0536  0.8583
19209SOL     OW59780   6.527   2.147   8.361  0.0278  0.0110  0.2222
19209SOL    HW159781   6.555   2.226   8.315  0.5495  0.0525  0.6039
19209SOL    HW259782   6.445   2.172   8.403  0.1982  0.3639  0.3566
19210SOL     OW59783   8.536   7.299   8.893 -0.2754  0.5820 -0.7769
19210SOL    HW159784   8.624   7.328   8.872 -0.0347 -0.3730 -1.1325
19210SOL    HW259785   8.537   7.204   8.880 -0.0667 -0.2465  3.6144
19211SOL     OW59786   4.939   7.020   3.717 -0.3045 -0.2006 -0.4735
19211SOL    HW159787   4.845   7.028   3.737 -0.2653  0.5035 -0.5480
19211SOL    HW259788   4.980   7.007   3.802 -0.4464 -0.2501 -0.4122
19212SOL     OW59789   1.894   3.709   8.815 -0.3285 -0.1838 -0.1949
19212SOL    HW159790   1.861   3.625   8.846 -0.6352  0.0166  0.0307
19212SOL    HW259791   1.942   3.688   8.735  1.1878 -0.8168  0.8346
19213SOL     OW59792   5.155   6.070   1.225  0.1301 -0.0032 -0.0455
19213SOL    HW159793   5.128   6.005   1.290 -1.0063 -0.7700 -1.2195
19213SOL    HW259794   5.134   6.029   1.141 -0.4850  1.8140 -0.8264
19214SOL     OW59795   7.192   4.899   1.306 -0.5681 -0.0970 -0.3250
19214SOL    HW159796   7.183   4.811   1.270 -1.6431 -0.3649  0.5571
19214SOL    HW259797   7.272   4.933   1.267  0.0071 -1.5662 -0.4727
19215SOL     OW59798   2.791   7.563   4.190 -0.1830  0.6116 -0.6429
19215SOL    HW159799   2.798   7.509   4.112 -1.7325 -1.2632  0.4036
19215SOL    HW259800   2.774   7.651   4.157 -0.6039 -0.0948 -2.4318
19216SOL     OW59801   6.259   4.646   9.424  0.5651  0.4285  0.3013
19216SOL    HW159802   6.215   4.725   9.394  0.8471  0.8914  1.0691
19216SOL    HW259803   6.297   4.671   9.508  0.9354 -0.4297  0.3946
19217SOL     OW59804   0.517   5.422   2.682 -0.7538 -0.7064  0.4475
19217SOL    HW159805   0.596   5.435   2.630 -1.1556 -3.2831 -0.9573
19217SOL    HW259806   0.540   5.355   2.745 -1.5005 -0.6376  0.8100
19218SOL     OW59807   4.152   2.915   0.363 -0.3606  0.7821 -0.4097
19218SOL    HW159808   4.089   2.866   0.309  0.2345 -0.6933  0.1765
19218SOL    HW259809   4.101   2.943   0.439 -0.7386  1.1817 -0.8029
19219SOL     OW59810   6.443   5.503   5.949  0.7023  0.1370 -0.2298
19219SOL    HW159811   6.400   5.471   5.870 -0.1403 -0.6123  0.5196
19219SOL    HW259812   6.510   5.437   5.968  1.8081  0.9768 -1.0293
19220SOL     OW59813   7.150   3.060   4.577 -0.0886  0.1529  0.6432
19220SOL    HW159814   7.184   3.131   4.632 -0.7117  1.0022 -0.0450
19220SOL    HW259815   7.216   2.990   4.585  0.4697  0.7538  1.4281
19221SOL     OW59816   4.597   0.823   9.155  0.1158  0.3873 -0.0276
19221SOL    HW159817   4.602   0.729   9.138  1.2770  0.4975 -0.3973
19221SOL    HW259818   4.610   0.864   9.069  0.6163  0.8939  0.2835
19222SOL     OW59819   3.560   0.978   6.094 -0.0460 -0.3990  0.2966
19222SOL    HW159820   3.592   0.974   6.184 -0.5731  2.0130  0.6558
19222SOL    HW259821   3.493   1.047   6.096 -0.6478 -0.8679 -1.7823
19223SOL     OW59822   5.302   2.783   6.956  0.7583  0.2678 -0.3351
19223SOL    HW159823   5.388   2.743   6.967 -0.4662 -2.2902  0.9391
19223SOL    HW259824   5.282   2.771   6.863  0.3413 -2.5520  0.0341
19224SOL     OW59825   7.279   4.600   2.655  0.0627 -0.0812 -0.8569
19224SOL    HW159826   7.331   4.596   2.735 -0.8574 -0.8074 -0.2663
19224SOL    HW259827   7.301   4.520   2.608 -1.4911 -1.0942  0.0534
19225SOL     OW59828   9.628   9.590   1.308  0.5327 -0.1179 -0.3183
19225SOL    HW159829   9.576   9.532   1.363 -2.7766  1.8775 -1.0804
19225SOL    HW259830   9.632   9.672   1.355 -0.5604  0.9942 -2.0613
19226SOL     OW59831   5.745   2.737   0.953 -0.0521 -0.1277  0.4052
19226SOL    HW159832   5.675   2.722   0.889  0.3036 -1.0245  0.2058
19226SOL    HW259833   5.701   2.731   1.038  0.2710 -4.5082  0.5027
19227SOL     OW59834   0.236   3.951   4.708  0.5231 -0.1226 -0.0486
19227SOL    HW159835   0.274   3.894   4.641 -0.4308 -0.5467 -0.2589
19227SOL    HW259836   0.164   3.995   4.663  0.6585  0.5331  0.3699
19228SOL     OW59837   3.215   1.655   2.584 -0.6253  0.5709 -0.5013
19228SOL    HW159838   3.230   1.744   2.616 -0.2937  0.0344  0.9258
19228SOL    HW259839   3.290   1.639   2.526 -1.0298  1.4342 -1.2915
19229SOL     OW59840   5.421   6.582   6.337 -0.3445  0.0680 -0.0108
19229SOL    HW159841   5.439   6.516   6.271 -1.6789 -1.1283  0.7597
19229SOL    HW259842   5.507   6.601   6.376  0.0148 -1.5727  0.0669
19230SOL     OW59843   6.770   0.186   4.121  0.2420 -0.2283 -0.3944
19230SOL    HW159844   6.847   0.179   4.066 -0.3706  0.9833 -1.4555
19230SOL    HW259845   6.753   0.096   4.149  3.9850 -0.2123  2.7591
19231SOL     OW59846   8.598   8.905   2.264  0.0408 -0.2798  0.2191
19231SOL    HW159847   8.677   8.894   2.212 -0.5411  0.3464 -0.8328
19231SOL    HW259848   8.619   8.867   2.350  1.8385  0.8126  0.3035
19232SOL     OW59849   0.337   3.174   0.446 -0.4214  0.0266  0.2410
19232SOL    HW159850   0.319   3.155   0.538 -0.3590  1.8239  0.6564
19232SOL    HW259851   0.251   3.195   0.409 -0.3873 -0.2985 -0.0383
19233SOL     OW59852   6.534   0.778   2.569 -0.1858 -0.2510  0.5608
19233SOL    HW159853   6.528   0.717   2.643 -1.4116 -1.3053 -0.3517
19233SOL    HW259854   6.449   0.823   2.569  0.2940  0.6749  0.5552
19234SOL     OW59855   5.974   7.500   4.236  0.5210 -0.3158 -0.8014
19234SOL    HW159856   5.968   7.589   4.270 -2.0170 -0.1570 -1.4222
19234SOL    HW259857   6.067   7.486   4.219  1.3676  1.0905  2.1144
19235SOL     OW59858   8.776   7.213   3.672 -0.2860  0.0927  0.0576
19235SOL    HW159859   8.823   7.189   3.751  0.8907  0.4788 -0.4885
19235SOL    HW259860   8.778   7.309   3.671  0.9872  0.0982 -1.1185
19236SOL     OW59861   0.505   4.565   7.307 -0.3777  0.0588  0.1480
19236SOL    HW159862   0.457   4.506   7.248 -0.2300 -0.3873  0.4737
19236SOL    HW259863   0.477   4.539   7.395  1.2907 -0.9541  0.4157
19237SOL     OW59864   9.165   1.178   6.563  0.5721  0.5496 -0.2115
19237SOL    HW159865   9.210   1.247   6.611 -0.8800  1.1610  0.3329
19237SOL    HW259866   9.099   1.144   6.624  0.7044 -0.7569 -0.7517
19238SOL     OW59867   7.137   1.169   2.729  0.1461 -0.4498  0.1031
19238SOL    HW159868   7.118   1.177   2.636  1.2188 -0.0596 -0.0990
19238SOL    HW259869   7.150   1.259   2.760  1.6623 -0.6634  0.1919
19239SOL     OW59870   8.838   6.471   6.099  0.2186  0.1738 -0.2193
19239SOL    HW159871   8.765   6.484   6.158  2.4611  2.0901  2.3988
19239SOL    HW259872   8.810   6.509   6.016 -1.2972  2.1172  1.1058
19240SOL     OW59873   7.150   7.938   2.082  0.1768 -0.2728 -0.2313
19240SOL    HW159874   7.148   7.892   1.998 -0.6036 -1.0597  0.2065
19240SOL    HW259875   7.120   7.874   2.145  0.5100  0.3945  0.6239
19241SOL     OW59876   0.507   2.888   9.484  0.5468 -0.1495 -0.4401
19241SOL    HW159877   0.459   2.967   9.510  0.8422  0.1289 -0.7444
19241SOL    HW259878   0.573   2.877   9.552  0.1497 -0.4568 -0.0932
19242SOL     OW59879   4.468   9.279   0.376 -0.2493 -0.1751 -0.1941
19242SOL    HW159880   4.434   9.238   0.296 -1.7792  1.3344 -0.3620
19242SOL    HW259881   4.435   9.368   0.374  1.1758  0.4459  1.2623
19243SOL     OW59882   6.436   2.365   5.807  0.1627 -0.0594 -0.5358
19243SOL    HW159883   6.514   2.333   5.761 -0.0157  1.1538 -1.7808
19243SOL    HW259884   6.366   2.360   5.742 -0.4618  0.2762  0.0920
19244SOL     OW59885   3.948   6.712   6.875  0.3228 -0.2375 -0.0591
19244SOL    HW159886   3.999   6.632   6.870 -1.2235 -1.1816 -1.7620
19244SOL    HW259887   3.880   6.702   6.809 -0.0791  2.3911 -0.1570
19245SOL     OW59888   2.585   7.876   1.440  0.0981 -0.1935  0.7062
19245SOL    HW159889   2.508   7.829   1.407 -0.4523  0.2375  1.3422
19245SOL    HW259890   2.602   7.837   1.526  1.4314 -1.2081  0.0136
19246SOL     OW59891   7.122   5.458   8.839  0.0211  0.5479  0.1964
19246SOL    HW159892   7.041   5.435   8.884 -0.0377 -0.1191 -0.2345
19246SOL    HW259893   7.173   5.377   8.836  1.1105  1.1535  1.2557
19247SOL     OW59894   5.539   8.089   4.867  0.9930 -0.7828 -0.3401
19247SOL    HW159895   5.583   8.173   4.877  0.8744 -0.9090  1.7016
19247SOL    HW259896   5.543   8.050   4.954 -2.1723 -1.2829 -0.2984
19248SOL     OW59897   1.979   3.859   8.360 -0.4032  0.8343 -0.0079
19248SOL    HW159898   1.943   3.941   8.392  0.2286  1.6870 -1.3885
19248SOL    HW259899   1.903   3.800   8.354 -0.9191  1.4186  0.6210
19249SOL     OW59900   0.023   3.976   2.881  0.2988  0.2948  0.3011
19249SOL    HW159901   0.001   4.070   2.882  1.3155  0.5722 -0.7993
19249SOL    HW259902  -0.059   3.932   2.905 -0.3965  1.4394  0.1213
19250SOL     OW59903   5.636   1.814   3.848 -0.7297  0.7305  0.1948
19250SOL    HW159904   5.542   1.815   3.830 -1.0297  0.9968  1.6784
19250SOL    HW259905   5.644   1.851   3.936  0.5934 -1.1002  0.8899
19251SOL     OW59906   1.981   9.194   9.458 -0.0670  0.0915  0.1387
19251SOL    HW159907   1.994   9.282   9.495 -0.6449  0.8276 -1.3230
19251SOL    HW259908   1.926   9.209   9.381 -0.3811 -1.6000  0.0054
19252SOL     OW59909   0.567   3.634   2.336 -0.0029 -0.0772  0.0348
19252SOL    HW159910   0.502   3.669   2.397 -2.3781 -2.1585 -1.1141
19252SOL    HW259911   0.625   3.582   2.390  0.9324  1.9840  1.1190
19253SOL     OW59912   3.885   5.391   6.814  0.3658  0.6130  0.1225
19253SOL    HW159913   3.864   5.422   6.903  1.0242  1.5779 -0.0436
19253SOL    HW259914   3.978   5.373   6.817  0.7071  2.0669 -0.7616
19254SOL     OW59915   3.844   0.070   4.139 -0.3597 -0.2985 -0.0427
19254SOL    HW159916   3.927   0.104   4.104  0.2857 -0.2072  1.4953
19254SOL    HW259917   3.864   0.048   4.230 -1.6293 -1.7443 -0.0704
19255SOL     OW59918   0.483   6.864   6.583  0.1517 -0.4953  0.0428
19255SOL    HW159919   0.577   6.848   6.586  0.0268 -1.7128  4.3298
19255SOL    HW259920   0.468   6.934   6.647 -1.8685 -0.2621 -0.6011
19256SOL     OW59921   6.586   0.695   7.271  0.4106 -0.9863  0.3267
19256SOL    HW159922   6.615   0.786   7.279 -1.6177 -0.2696 -0.0458
19256SOL    HW259923   6.615   0.669   7.183  1.3217 -0.8456  0.5734
19257SOL     OW59924   6.234   4.848   5.682 -0.0975  0.5610  0.3530
19257SOL    HW159925   6.259   4.899   5.605  0.2521 -0.0932  0.0273
19257SOL    HW259926   6.280   4.891   5.755 -0.6823  1.3748  0.2554
19258SOL     OW59927   3.932   6.067   3.904  0.6550 -0.2103 -0.0292
19258SOL    HW159928   4.027   6.074   3.912  0.5518 -0.5813  1.9430
19258SOL    HW259929   3.898   6.086   3.992 -1.1563  0.6612 -0.8516
19259SOL     OW59930   3.241   5.804   1.929 -0.2723  0.2425  0.1904
19259SOL    HW159931   3.181   5.765   1.865  0.2686  0.0926 -0.2338
19259SOL    HW259932   3.279   5.729   1.976  1.7244  0.1197 -1.4818
19260SOL     OW59933   2.188   5.896   5.452  0.4464 -0.4937 -0.4531
19260SOL    HW159934   2.213   5.806   5.475  1.8433  0.1378  0.6836
19260SOL    HW259935   2.133   5.925   5.525 -0.9230 -0.7609 -1.3482
19261SOL     OW59936   7.165   2.306   3.740 -0.1105  0.3177 -0.3549
19261SOL    HW159937   7.077   2.287   3.772 -0.9322 -2.6207 -3.7390
19261SOL    HW259938   7.223   2.256   3.798 -0.9348 -0.2170  0.0160
19262SOL     OW59939   5.736   1.323   2.116  0.0829 -0.2591  0.1227
19262SOL    HW159940   5.729   1.418   2.115 -1.4523 -0.3549 -0.6146
19262SOL    HW259941   5.711   1.298   2.205 -0.1150 -0.0125  0.1376
19263SOL     OW59942   6.378   7.555   6.692  0.0128 -0.2500  0.0730
19263SOL    HW159943   6.435   7.558   6.616 -0.7791  0.3470 -0.5237
19263SOL    HW259944   6.410   7.482   6.744  1.4656  0.2209 -0.1102
19264SOL     OW59945   5.247   9.276   3.667  0.1700 -0.1061 -0.3235
19264SOL    HW159946   5.191   9.202   3.643 -1.6282  1.4043 -0.9559
19264SOL    HW259947   5.259   9.267   3.761 -2.7053  0.5044  0.1795
19265SOL     OW59948   1.169   6.525   7.930  0.3744 -0.3338 -0.5508
19265SOL    HW159949   1.078   6.506   7.905  0.5667 -0.6920 -0.9938
19265SOL    HW259950   1.165   6.612   7.970 -0.0022  0.1503 -1.6025
19266SOL     OW59951   0.246   5.745   8.161  0.4546 -0.4562  0.1832
19266SOL    HW159952   0.168   5.691   8.178  1.3952 -2.0654 -0.3801
19266SOL    HW259953   0.258   5.795   8.242 -0.4965 -1.0346  0.7072
19267SOL     OW59954   2.678   7.463   2.620 -0.4605  0.2536 -0.1926
19267SOL    HW159955   2.720   7.521   2.557 -1.5397  0.9629 -0.2736
19267SOL    HW259956   2.727   7.381   2.613 -0.1385  0.5418 -1.4510
19268SOL     OW59957   2.749   6.332   8.571 -0.0471  0.0231 -0.2234
19268SOL    HW159958   2.696   6.252   8.575  0.8582 -0.6167 -0.6656
19268SOL    HW259959   2.696   6.393   8.520 -0.0235 -0.8808 -1.3738
19269SOL     OW59960   2.732   7.427   5.151  0.2103 -0.0642 -0.1578
19269SOL    HW159961   2.685   7.344   5.153  1.8712 -1.0516  2.5629
19269SOL    HW259962   2.796   7.417   5.081  0.6846 -1.2783  0.4290
19270SOL     OW59963   4.425   0.907   6.992 -0.1450  0.0630  0.5566
19270SOL    HW159964   4.478   0.935   6.916 -1.1482 -0.1516 -0.2425
19270SOL    HW259965   4.468   0.948   7.067  1.2938 -0.3008 -0.0341
19271SOL     OW59966   6.846   6.355   5.137  0.0147 -0.0134  0.5566
19271SOL    HW159967   6.794   6.280   5.107  0.4022  0.6594 -2.0339
19271SOL    HW259968   6.935   6.319   5.147  0.6505  0.3718 -2.6179
19272SOL     OW59969   2.538   7.083   3.211 -0.4695  0.4160 -0.8417
19272SOL    HW159970   2.483   7.064   3.134 -0.2081 -1.1342 -0.6885
19272SOL    HW259971   2.542   6.999   3.258  1.2157  0.7541 -0.3200
19273SOL     OW59972   1.291   0.643   7.443  0.1826  0.2676 -0.6491
19273SOL    HW159973   1.260   0.619   7.531  0.2633 -2.1237 -1.2157
19273SOL    HW259974   1.378   0.681   7.458  0.8989 -1.5861  0.2450
19274SOL     OW59975   3.567   0.063   1.041 -0.7698  0.1078 -0.0597
19274SOL    HW159976   3.566  -0.028   1.010 -1.0383  0.0740  0.0424
19274SOL    HW259977   3.655   0.094   1.020  0.0891 -0.8577  1.8606
19275SOL     OW59978   8.049   9.399   4.846 -0.2815 -0.5895 -0.1715
19275SOL    HW159979   7.988   9.453   4.796 -0.3188 -1.1274 -0.7171
19275SOL    HW259980   7.993   9.351   4.908 -0.0243  1.8657  2.1507
19276SOL     OW59981   6.229   2.962   6.647 -0.4338  0.1792 -0.0821
19276SOL    HW159982   6.278   2.883   6.669 -0.4838  0.1926  0.0778
19276SOL    HW259983   6.296   3.030   6.638 -0.4042  0.1509 -0.0775
19277SOL     OW59984   6.765   6.588   7.939  0.3648  0.6666  0.0963
19277SOL    HW159985   6.739   6.679   7.927 -1.1999  0.0507 -1.8469
19277SOL    HW259986   6.682   6.541   7.947  0.9066 -0.9492 -2.5141
19278SOL     OW59987   3.930   7.221   5.344  1.1319  0.4212  0.6942
19278SOL    HW159988   3.897   7.144   5.299  0.5992  1.0885 -0.0976
19278SOL    HW259989   3.873   7.231   5.420 -0.9824  1.8787 -0.9471
19279SOL     OW59990   4.234   6.764   3.409 -0.1424  0.2710 -0.4499
19279SOL    HW159991   4.167   6.827   3.384 -0.0047 -0.5464 -3.1682
19279SOL    HW259992   4.287   6.752   3.330  2.1988 -0.3677  1.1206
19280SOL     OW59993   6.197   1.745   7.001 -0.1270 -0.0915  0.2973
19280SOL    HW159994   6.127   1.685   7.027 -0.5249  0.2898  0.1079
19280SOL    HW259995   6.254   1.750   7.079 -0.6619  0.1121  0.6807
19281SOL     OW59996   9.158   1.967   6.100 -0.3851  0.2805 -0.2790
19281SOL    HW159997   9.121   1.890   6.057  1.2507 -0.9437  0.3904
19281SOL    HW259998   9.232   1.933   6.151  0.1379  2.2409  0.3647
19282SOL     OW59999   7.283   7.580   2.221  0.4400  0.0389  0.2070
19282SOL    HW160000   7.289   7.651   2.158  0.2303 -1.5262 -1.6920
19282SOL    HW260001   7.371   7.542   2.223  0.4382  0.0544  0.8535
19283SOL     OW60002   4.827   0.727   2.964 -0.3120 -0.7543 -0.2805
19283SOL    HW160003   4.916   0.729   2.929 -0.5160  1.4727 -0.7780
19283SOL    HW260004   4.774   0.774   2.900 -1.4967 -0.3228  0.9593
19284SOL     OW60005   0.745   9.544   6.952 -0.3508 -0.0343 -0.5484
19284SOL    HW160006   0.725   9.635   6.929 -1.3741  0.1406  0.9126
19284SOL    HW260007   0.788   9.550   7.038  0.9264 -0.8335 -1.1114
19285SOL     OW60008   2.547   6.848   8.767  0.3591  0.1045 -0.1539
19285SOL    HW160009   2.506   6.928   8.802  0.6930  0.9221 -1.5398
19285SOL    HW260010   2.569   6.797   8.845 -1.8691  0.3187  0.7093
19286SOL     OW60011   6.480   6.822   4.081 -0.2419  0.0030  0.2927
19286SOL    HW160012   6.550   6.885   4.093  0.0328 -0.3762  0.6925
19286SOL    HW260013   6.400   6.875   4.083 -0.0258  0.3169  0.8147
19287SOL     OW60014   8.284   4.934   8.947  0.5529  0.3617 -0.5586
19287SOL    HW160015   8.213   4.977   8.900  0.5605  0.2433 -0.6809
19287SOL    HW260016   8.262   4.841   8.945  0.2932  0.4030  0.1247
19288SOL     OW60017   1.676   4.331   9.370  0.0384  0.4006  0.1249
19288SOL    HW160018   1.595   4.281   9.356 -0.0013  0.2674  0.7773
19288SOL    HW260019   1.659   4.416   9.330 -0.8973  0.8002  1.3075
19289SOL     OW60020   0.273   9.239   5.449  0.5461  0.0404 -0.1174
19289SOL    HW160021   0.317   9.197   5.522 -1.5318  1.0310  1.8514
19289SOL    HW260022   0.253   9.327   5.481  0.2205  0.7627 -2.1668
19290SOL     OW60023   9.327   2.274   4.199  0.0183  0.1904  0.1462
19290SOL    HW160024   9.315   2.367   4.180  0.6541  0.2741  0.1625
19290SOL    HW260025   9.420   2.257   4.183  0.0493 -0.2882  0.8075
19291SOL     OW60026   9.005   7.146   7.709  0.1393 -0.0685  0.2646
19291SOL    HW160027   8.960   7.063   7.725 -1.5004  0.4971 -1.2013
19291SOL    HW260028   8.963   7.183   7.632  0.9317  2.0702  0.7718
19292SOL     OW60029   7.715   3.621   6.096  0.1714 -0.4235  0.2680
19292SOL    HW160030   7.784   3.578   6.045 -0.9112 -0.7677 -0.9846
19292SOL    HW260031   7.730   3.714   6.083  0.3384 -0.4987 -0.0896
19293SOL     OW60032   2.997   2.274   0.475 -0.5856 -0.2909 -0.5779
19293SOL    HW160033   3.019   2.283   0.383  0.5466 -1.7613 -0.4882
19293SOL    HW260034   2.921   2.217   0.477 -0.3157 -0.6544 -0.5888
19294SOL     OW60035   4.408   9.286   7.701 -0.4078 -0.5543  0.3778
19294SOL    HW160036   4.344   9.311   7.635  1.0111  0.3567 -0.7166
19294SOL    HW260037   4.361   9.226   7.759 -2.3789  0.4609 -0.0752
19295SOL     OW60038   8.879   0.331   7.675  0.2091  0.0156  0.1993
19295SOL    HW160039   8.872   0.404   7.614  1.8583 -0.3468 -0.4611
19295SOL    HW260040   8.963   0.290   7.655  0.6883 -0.2949  2.5112
19296SOL     OW60041   4.718   9.093   6.756 -0.3667  0.8430 -0.1185
19296SOL    HW160042   4.729   8.998   6.756  0.7268  0.9635  0.0334
19296SOL    HW260043   4.623   9.105   6.762 -0.6619 -0.2519 -1.6735
19297SOL     OW60044   3.447   7.578   8.605  0.1898  0.2882 -0.2264
19297SOL    HW160045   3.448   7.608   8.514 -0.8980 -1.2778 -0.7922
19297SOL    HW260046   3.366   7.613   8.642  0.6942  1.0364  0.2140
19298SOL     OW60047   4.013   1.886   5.134 -0.2934 -0.2318  0.7628
19298SOL    HW160048   4.072   1.959   5.120  0.1944 -0.7321  0.1316
19298SOL    HW260049   4.026   1.861   5.225 -1.0033  0.9195  1.1965
19299SOL     OW60050   8.138   6.589   5.095 -0.3081  0.5576  0.2879
19299SOL    HW160051   8.100   6.604   5.181 -0.5720  1.8167 -0.0308
19299SOL    HW260052   8.147   6.676   5.057 -0.3006  0.0189 -1.0026
19300SOL     OW60053   1.799   8.290   3.104  0.0222 -0.3743 -0.5004
19300SOL    HW160054   1.833   8.210   3.064  2.8857 -0.3941  1.6514
19300SOL    HW260055   1.752   8.259   3.182 -0.0346 -0.0337 -0.3961
19301SOL     OW60056   9.174   7.889   3.895  0.3464 -0.2291  0.0110
19301SOL    HW160057   9.183   7.878   3.801 -0.6530 -2.1320  0.0964
19301SOL    HW260058   9.249   7.843   3.932  0.2183 -0.2993  0.1842
19302SOL     OW60059   1.071   0.555   6.249  0.1123 -0.1657 -0.4211
19302SOL    HW160060   1.133   0.485   6.268  1.1142  0.7937 -0.0657
19302SOL    HW260061   1.028   0.528   6.168 -0.7798 -2.0212  0.6086
19303SOL     OW60062   5.621   2.154   6.776 -0.1131  0.1310  0.1389
19303SOL    HW160063   5.528   2.172   6.760 -0.2285 -0.1461  0.5021
19303SOL    HW260064   5.657   2.137   6.689 -0.3418  0.5183 -0.0365
19304SOL     OW60065   4.273   0.411   1.421 -0.1878  0.1273 -0.0059
19304SOL    HW160066   4.321   0.330   1.439 -0.6200  0.4041  2.6728
19304SOL    HW260067   4.186   0.381   1.394 -0.8950 -0.3740  2.6084
19305SOL     OW60068   8.357   1.916   4.779  0.5312  0.1983 -0.1010
19305SOL    HW160069   8.315   1.926   4.694  0.4049  0.1007 -0.0528
19305SOL    HW260070   8.316   1.836   4.815 -0.4797  1.0299  0.6602
19306SOL     OW60071   4.663   7.227   7.282  0.5895 -0.2088 -0.2439
19306SOL    HW160072   4.705   7.142   7.274  2.0934  0.1588  2.4704
19306SOL    HW260073   4.733   7.290   7.270 -0.0276  0.5679  0.1091
19307SOL     OW60074   5.807   0.030   6.153  0.1176  0.2900 -0.1085
19307SOL    HW160075   5.761   0.069   6.078  1.0816  2.1502  0.1979
19307SOL    HW260076   5.853  -0.045   6.117 -1.0768 -0.0734 -0.9420
19308SOL     OW60077   5.996   4.509   2.816 -0.3132 -0.0009  0.5276
19308SOL    HW160078   6.091   4.515   2.808 -0.4675  1.3645 -0.7015
19308SOL    HW260079   5.969   4.459   2.739 -0.6090 -0.2114  0.7687
19309SOL     OW60080   2.225   6.831   3.526  0.1434  0.0373 -0.6142
19309SOL    HW160081   2.290   6.821   3.456  0.2161  0.8673 -0.6728
19309SOL    HW260082   2.168   6.902   3.496 -0.4568 -0.3056 -0.3054
19310SOL     OW60083   6.354   6.343   7.811 -0.0259  0.0849 -0.6937
19310SOL    HW160084   6.392   6.423   7.847 -1.3625  0.4399  0.0174
19310SOL    HW260085   6.393   6.272   7.862 -1.1995  0.5230  0.9076
19311SOL     OW60086   6.710   3.567   0.241  0.2396  0.7858  0.0248
19311SOL    HW160087   6.784   3.628   0.240 -0.2583  1.3900 -0.1547
19311SOL    HW260088   6.635   3.620   0.215 -0.1566  0.0416 -0.3787
19312SOL     OW60089   0.709   2.429   8.805 -0.4925  0.0464 -0.0395
19312SOL    HW160090   0.617   2.404   8.803 -0.6574  0.3472  1.8121
19312SOL    HW260091   0.710   2.513   8.852  0.6519  0.4236 -0.7029
19313SOL     OW60092   5.112   3.318   0.821  0.3077 -0.1991 -0.6722
19313SOL    HW160093   5.019   3.308   0.803 -0.5239 -1.6875  3.5022
19313SOL    HW260094   5.153   3.246   0.774 -1.1164 -1.5444  0.0647
19314SOL     OW60095   2.998   8.928   4.443  0.8132  0.5720  0.1869
19314SOL    HW160096   3.067   8.880   4.398  0.9641  1.6887 -0.8165
19314SOL    HW260097   2.917   8.892   4.409  0.9198  0.4231  0.0902
19315SOL     OW60098   3.886   5.908   3.078  0.4929 -0.2742  0.3197
19315SOL    HW160099   3.907   5.823   3.116 -0.6400 -1.1524 -0.9054
19315SOL    HW260100   3.951   5.968   3.115 -0.4432 -1.0347  3.5182
19316SOL     OW60101   8.089   6.160   1.498 -0.5899 -0.1553 -0.0607
19316SOL    HW160102   8.060   6.159   1.406 -2.2217 -1.4274  0.4320
19316SOL    HW260103   8.185   6.160   1.492 -0.6093  1.8378 -1.7495
19317SOL     OW60104   3.303   2.356   4.384 -0.0247  0.3354 -0.6545
19317SOL    HW160105   3.250   2.279   4.404 -0.2888  0.0617 -2.2487
19317SOL    HW260106   3.383   2.344   4.435 -1.2888  0.5731  1.5164
19318SOL     OW60107   1.918   9.303   7.908  0.1801  0.1252 -0.6906
19318SOL    HW160108   1.998   9.289   7.857 -0.0597  1.3989 -1.4778
19318SOL    HW260109   1.942   9.280   7.998  1.6484  1.1788 -0.7817
19319SOL     OW60110   4.154   9.239   4.638  0.1664  0.0682 -0.1198
19319SOL    HW160111   4.059   9.238   4.627  0.2115 -1.7865 -0.7837
19319SOL    HW260112   4.176   9.149   4.665  1.3743  1.3570  3.8915
19320SOL     OW60113   7.521   1.762   1.774 -0.4294 -0.7062  0.1940
19320SOL    HW160114   7.444   1.753   1.831 -0.5887  1.5202  0.4342
19320SOL    HW260115   7.565   1.841   1.806  1.0687 -1.0191 -0.9862
19321SOL     OW60116   0.020   4.772   0.414 -0.6331 -0.7218  0.0259
19321SOL    HW160117   0.016   4.676   0.410  0.5229 -0.7780 -0.0788
19321SOL    HW260118   0.048   4.791   0.503 -0.4621 -0.4987 -0.0753
19322SOL     OW60119   6.239   2.530   2.411 -0.6035  1.1589 -0.1306
19322SOL    HW160120   6.214   2.612   2.454 -0.3870  0.5048  1.3227
19322SOL    HW260121   6.320   2.503   2.455 -1.0513 -0.1834 -0.0721
19323SOL     OW60122   4.333   5.128   3.605 -0.0583  0.5307 -0.1752
19323SOL    HW160123   4.398   5.078   3.652 -2.7300 -1.1081  2.0874
19323SOL    HW260124   4.290   5.064   3.547 -1.6901  0.7420  0.7245
19324SOL     OW60125   2.867   2.358   5.905  0.5744  0.6128 -0.3374
19324SOL    HW160126   2.839   2.302   5.978  1.9156 -0.0313 -0.2995
19324SOL    HW260127   2.827   2.443   5.925  0.8054  0.4213  1.1001
19325SOL     OW60128   0.168   2.773   5.291  0.7240 -0.1271  0.8206
19325SOL    HW160129   0.264   2.779   5.295  0.9237 -1.5508 -0.7991
19325SOL    HW260130   0.140   2.852   5.246  1.0813  0.4880  1.6526
19326SOL     OW60131   8.298   5.861   2.134 -0.0355 -0.4556  0.1318
19326SOL    HW160132   8.221   5.815   2.102  0.5120 -1.9237  0.8272
19326SOL    HW260133   8.356   5.865   2.058 -0.5075  0.0388 -0.2094
19327SOL     OW60134   7.877   9.556   4.394 -0.5327 -0.0525 -0.3475
19327SOL    HW160135   7.818   9.491   4.355  0.7287 -1.4453 -0.0246
19327SOL    HW260136   7.843   9.640   4.363 -1.3476 -0.9241 -1.9807
19328SOL     OW60137   7.899   1.120   2.426  0.0446 -0.0613 -0.9884
19328SOL    HW160138   7.900   1.124   2.522 -0.1041  1.9423 -1.0345
19328SOL    HW260139   7.812   1.086   2.405 -0.2288  0.2645 -0.4220
19329SOL     OW60140   5.103   0.414   3.994 -0.4186  0.2161  0.5601
19329SOL    HW160141   5.010   0.424   4.014 -0.1685 -1.6510  3.1455
19329SOL    HW260142   5.133   0.344   4.052  2.6108  0.7100 -0.2266
19330SOL     OW60143   1.104   6.978   5.327 -0.0003  0.0482  0.3450
19330SOL    HW160144   1.158   7.056   5.316  0.3073 -0.2728 -0.4282
19330SOL    HW260145   1.020   7.012   5.357  0.1547  0.6728  0.0898
19331SOL     OW60146   7.321   1.963   8.736 -0.4282 -0.1911 -0.1677
19331SOL    HW160147   7.360   2.022   8.800  0.6082  0.9369 -1.7588
19331SOL    HW260148   7.358   1.991   8.652 -2.4373 -0.9874 -1.3969
19332SOL     OW60149   8.320   6.143   6.799 -0.0811 -0.0425  0.4780
19332SOL    HW160150   8.307   6.200   6.875 -0.9126 -0.1115  0.3961
19332SOL    HW260151   8.297   6.198   6.724 -1.3346 -0.6011  0.4257
19333SOL     OW60152   7.587   0.705   2.358 -0.4415  0.7332  0.6069
19333SOL    HW160153   7.511   0.715   2.301 -0.4430 -1.3104  0.1805
19333SOL    HW260154   7.556   0.648   2.429  0.8504 -0.7733  0.0192
19334SOL     OW60155   2.685   8.170   3.749 -0.4736 -0.5822 -0.2302
19334SOL    HW160156   2.639   8.118   3.683  0.7545 -0.4668 -1.2044
19334SOL    HW260157   2.772   8.186   3.711  0.2851 -0.5604  1.4441
19335SOL     OW60158   8.785   1.093   4.665 -0.4862  0.5825 -0.7198
19335SOL    HW160159   8.823   1.089   4.578  0.4932  1.8809 -0.3938
19335SOL    HW260160   8.857   1.125   4.721 -0.9460 -0.6420  0.6459
19336SOL     OW60161   6.707   8.836   1.855  0.5561 -0.4766 -0.2426
19336SOL    HW160162   6.658   8.773   1.908  0.0302  0.4743  0.4438
19336SOL    HW260163   6.790   8.847   1.901  0.3130 -0.0526  0.1038
19337SOL     OW60164   3.605   1.901   6.075 -0.4018  0.2632 -0.2912
19337SOL    HW160165   3.625   1.974   6.133 -0.5611 -0.0559  0.1752
19337SOL    HW260166   3.679   1.841   6.085  1.5688  1.9167 -3.3566
19338SOL     OW60167   1.974   1.705   8.475 -0.4004  0.6589 -0.2905
19338SOL    HW160168   2.017   1.647   8.411 -0.8125 -0.5618  0.5002
19338SOL    HW260169   2.034   1.779   8.484  0.1059  0.4124 -1.3993
19339SOL     OW60170   2.016   7.332   5.936 -0.2313 -0.2742 -0.2961
19339SOL    HW160171   1.986   7.241   5.930  0.1660 -0.3364 -2.0009
19339SOL    HW260172   2.109   7.325   5.957 -0.4894 -0.2088  0.9023
19340SOL     OW60173   1.266   8.276   1.800  0.1392  0.6236 -0.0471
19340SOL    HW160174   1.190   8.331   1.818 -0.2239 -0.0199  0.4038
19340SOL    HW260175   1.341   8.328   1.830 -0.0576  1.4844 -0.9808
19341SOL     OW60176   1.773   2.989   6.343  0.2835  0.9147 -0.0898
19341SOL    HW160177   1.798   2.949   6.259  0.3970  0.2818  0.2385
19341SOL    HW260178   1.712   2.926   6.382  0.7294  0.8981  0.5934
19342SOL     OW60179   5.057   4.122   8.568  0.1974 -0.1946 -0.1528
19342SOL    HW160180   5.082   4.208   8.602  0.8332 -0.2503 -0.4776
19342SOL    HW260181   5.133   4.066   8.585  0.3951 -0.3144 -1.3232
19343SOL     OW60182   4.374   1.368   6.148 -0.3007 -0.2332  0.2899
19343SOL    HW160183   4.400   1.456   6.120 -1.5223  0.5081  1.3504
19343SOL    HW260184   4.454   1.317   6.143  0.9232  1.4473  1.5142
19344SOL     OW60185   3.572   7.247   2.459  0.7155 -0.4015 -0.4163
19344SOL    HW160186   3.578   7.154   2.438  0.2121 -0.5000 -0.1517
19344SOL    HW260187   3.486   7.257   2.499  1.3981 -0.1213  1.0525
19345SOL     OW60188   9.477   0.351   0.421  0.2315 -0.1085 -0.0919
19345SOL    HW160189   9.454   0.441   0.401 -3.0664 -0.5290  1.2784
19345SOL    HW260190   9.479   0.346   0.516 -1.6818 -1.8702 -0.0730
19346SOL     OW60191   0.319   0.975   0.159 -0.2705  0.5996 -0.6303
19346SOL    HW160192   0.385   0.926   0.110 -1.3496 -2.0666  0.4175
19346SOL    HW260193   0.286   1.039   0.096  0.1301 -1.0371 -2.6053
19347SOL     OW60194   7.128   8.836   3.086 -0.4861  0.1165 -0.1138
19347SOL    HW160195   7.113   8.861   3.177  0.0053 -0.0656  0.0223
19347SOL    HW260196   7.212   8.875   3.064 -0.4413 -0.1258 -0.3811
19348SOL     OW60197   4.866   3.751   0.431  0.1463 -0.4800 -0.1200
19348SOL    HW160198   4.801   3.769   0.363 -0.8260  1.9754  1.3360
19348SOL    HW260199   4.930   3.822   0.421 -0.0421 -0.0493  1.5211
19349SOL     OW60200   2.301   1.087   4.290 -0.8441  0.3256 -0.1632
19349SOL    HW160201   2.258   1.162   4.250 -2.1844 -0.2719  0.1168
19349SOL    HW260202   2.371   1.064   4.229 -0.0540  2.1049  0.0033
19350SOL     OW60203   3.027   7.297   4.578  0.6908 -0.2305 -0.1815
19350SOL    HW160204   3.004   7.315   4.487  0.6678 -0.0981 -0.1496
19350SOL    HW260205   3.020   7.382   4.622  1.2911 -0.1791 -0.1795
19351SOL     OW60206   9.051   9.576   2.591 -0.2200 -0.1322 -0.5898
19351SOL    HW160207   9.010   9.542   2.511 -0.2730  1.1671 -1.1407
19351SOL    HW260208   9.142   9.547   2.585 -0.4051 -0.7016 -0.7303
19352SOL     OW60209   4.050   6.095   2.073 -0.1697 -0.5853  0.5008
19352SOL    HW160210   4.011   6.091   2.160 -1.5708 -0.3874 -0.0784
19352SOL    HW260211   3.975   6.087   2.013  0.8127 -1.2388 -0.6820
19353SOL     OW60212   6.510   7.194   9.575 -0.2500  0.1838 -0.0501
19353SOL    HW160213   6.486   7.212   9.665 -0.1163  0.6486 -0.1043
19353SOL    HW260214   6.533   7.101   9.574  0.7953  0.4226  0.6249
19354SOL     OW60215   3.545   7.024   4.886  0.4951  0.2795 -0.1779
19354SOL    HW160216   3.620   6.965   4.878  0.4544 -0.1424  1.8728
19354SOL    HW260217   3.487   6.979   4.947 -0.5425  1.4728 -0.2599
19355SOL     OW60218   5.963   5.548   7.901  0.5103  0.1265  0.2772
19355SOL    HW160219   5.870   5.564   7.883  0.9557  2.7622 -0.1607
19355SOL    HW260220   6.002   5.531   7.816  1.0501  3.2899 -0.2358
19356SOL     OW60221   6.816   5.973   7.102  0.2233  0.4414  0.0476
19356SOL    HW160222   6.743   5.969   7.164 -0.7005  1.2011 -0.9514
19356SOL    HW260223   6.846   6.064   7.107 -1.1376  1.0666 -1.9871
19357SOL     OW60224   5.771   8.412   0.627  0.4590  0.0658  0.0836
19357SOL    HW160225   5.788   8.349   0.697  2.2275  0.8232  0.3836
19357SOL    HW260226   5.680   8.438   0.641  0.3673 -0.7778  1.2947
19358SOL     OW60227   0.056   3.173   4.434 -0.1671 -0.1422 -0.0177
19358SOL    HW160228   0.028   3.244   4.491 -0.4405 -0.1132 -0.1878
19358SOL    HW260229   0.033   3.202   4.345  2.1601  0.7583 -0.3886
19359SOL     OW60230   6.611   1.124   5.001 -0.6253  0.3147  0.0400
19359SOL    HW160231   6.549   1.096   4.933 -0.7372  0.2050  0.1866
19359SOL    HW260232   6.638   1.042   5.043  1.7222  0.0323 -1.8115
19360SOL     OW60233   5.234   7.057   0.148 -0.0669  0.0012 -1.0719
19360SOL    HW160234   5.274   6.993   0.089 -0.9136  0.4205 -2.1245
19360SOL    HW260235   5.309   7.103   0.187  0.5163 -0.1042 -2.0295
19361SOL     OW60236   5.029   7.656   4.610 -0.3240  0.0062 -0.2386
19361SOL    HW160237   5.103   7.717   4.617 -1.8435  1.8224  1.3833
19361SOL    HW260238   4.968   7.685   4.678 -2.0827 -2.0659 -0.8258
19362SOL     OW60239   5.302   5.074   8.099 -0.3483 -0.0859  0.5550
19362SOL    HW160240   5.318   5.044   8.010 -0.5041 -0.6987  0.7271
19362SOL    HW260241   5.382   5.119   8.125 -0.3484  0.1986  0.0693
19363SOL     OW60242   2.823   1.490   1.177 -0.7335  0.7338  0.5172
19363SOL    HW160243   2.731   1.499   1.199 -0.3703 -0.0574  2.6631
19363SOL    HW260244   2.868   1.557   1.228  0.2570 -1.8088  3.3335
19364SOL     OW60245   4.420   9.390   2.663  0.5165 -0.4213  0.2612
19364SOL    HW160246   4.366   9.311   2.668  0.0273 -0.3880 -2.5542
19364SOL    HW260247   4.510   9.357   2.663  0.3112 -1.1752 -1.8562
19365SOL     OW60248   1.872   3.115   1.272 -0.9885  0.5533  0.0018
19365SOL    HW160249   1.959   3.154   1.280 -0.9039  0.0001  3.6997
19365SOL    HW260250   1.820   3.180   1.224  0.2559  3.1875  1.9805
19366SOL     OW60251   5.065   1.680   0.276  0.0105 -0.1223  0.3062
19366SOL    HW160252   5.039   1.698   0.366  0.3105 -2.4890  0.9324
19366SOL    HW260253   5.154   1.716   0.269 -0.3837  0.9474  0.6143
19367SOL     OW60254   0.219   3.788   8.666 -0.6287  0.4671 -0.5077
19367SOL    HW160255   0.314   3.789   8.657 -0.5393  1.4747  0.3484
19367SOL    HW260256   0.201   3.717   8.727 -0.1819  1.8250  1.3020
19368SOL     OW60257   9.316   3.011   9.049 -0.4269  0.4152  0.2036
19368SOL    HW160258   9.320   3.099   9.085  1.4242  0.3651  0.2431
19368SOL    HW260259   9.325   2.953   9.125  0.2622  0.2469  0.0046
19369SOL     OW60260   4.317   4.409   0.811 -0.0889  0.6237  0.1615
19369SOL    HW160261   4.257   4.478   0.785  0.3040  1.8911  2.3890
19369SOL    HW260262   4.267   4.328   0.799 -1.1261  1.4042 -0.9370
19370SOL     OW60263   5.247   4.808   1.910 -0.2125  0.3030 -0.4620
19370SOL    HW160264   5.276   4.835   1.997 -2.3689 -1.0121  0.7381
19370SOL    HW260265   5.328   4.800   1.860  1.4926 -1.8943  2.2956
19371SOL     OW60266   6.542   0.790   9.428  0.3796 -0.3223  0.1860
19371SOL    HW160267   6.474   0.851   9.458  0.8023  0.4785 -0.4295
19371SOL    HW260268   6.572   0.746   9.508  0.8801  1.1289  0.8339
19372SOL     OW60269   2.139   7.913   7.647  0.4399  0.0955 -0.1098
19372SOL    HW160270   2.174   7.993   7.686  1.7569 -0.2209 -0.5845
19372SOL    HW260271   2.199   7.894   7.574  0.2024 -1.3614  0.0389
19373SOL     OW60272   2.718   6.486   1.187  0.3266  0.0099 -0.0908
19373SOL    HW160273   2.623   6.497   1.193  0.2357 -0.0910 -1.1713
19373SOL    HW260274   2.730   6.411   1.129  1.0655 -0.2343  0.3646
19374SOL     OW60275   0.102   7.682   2.231  0.2389  0.4863  0.2556
19374SOL    HW160276   0.060   7.596   2.237 -0.4251  0.7908  0.0146
19374SOL    HW260277   0.163   7.674   2.158 -1.3335  0.8356 -1.1636
19375SOL     OW60278   9.188   6.731   2.184 -0.1257  0.0556  0.4415
19375SOL    HW160279   9.180   6.683   2.102 -1.5231  1.2771 -0.1831
19375SOL    HW260280   9.209   6.821   2.158 -0.5288  0.4495  1.4113
19376SOL     OW60281   1.304   5.972   7.166  0.2403  0.8139  0.1459
19376SOL    HW160282   1.343   5.922   7.095  0.9353  2.6362 -0.8120
19376SOL    HW260283   1.375   5.981   7.230  0.3479  1.1969 -0.0247
19377SOL     OW60284   6.365   4.222   2.437  0.6903  0.0191  0.3402
19377SOL    HW160285   6.418   4.226   2.358  1.7962 -0.0492  1.0516
19377SOL    HW260286   6.427   4.242   2.508 -0.1922 -0.2883  1.2155
19378SOL     OW60287   3.279   3.709   1.260 -0.4096  0.0155 -0.5310
19378SOL    HW160288   3.247   3.619   1.265 -1.8737  0.5114 -0.6314
19378SOL    HW260289   3.328   3.713   1.178  0.3374 -0.8748 -0.1521
19379SOL     OW60290   9.531   3.207   3.130 -0.1273 -0.0699  0.0865
19379SOL    HW160291   9.585   3.128   3.133  0.8519  0.3974 -2.3887
19379SOL    HW260292   9.498   3.217   3.219  1.3125 -2.1565  0.9404
19380SOL     OW60293   3.376   9.192   9.087  0.5772 -0.1969 -0.2639
19380SOL    HW160294   3.368   9.097   9.076 -0.5251 -0.1326 -0.0865
19380SOL    HW260295   3.329   9.229   9.012  0.5494  0.2083 -0.0503
19381SOL     OW60296   5.426   7.368   7.706 -0.8150  0.3052 -0.4139
19381SOL    HW160297   5.429   7.460   7.733 -2.8612 -0.1656  1.7240
19381SOL    HW260298   5.362   7.328   7.765  0.0582 -2.5251 -1.2548
19382SOL     OW60299   2.760   9.004   5.494  0.2964 -0.0818  0.6112
19382SOL    HW160300   2.792   9.041   5.412  0.9949 -1.9967 -0.0318
19382SOL    HW260301   2.820   8.931   5.513 -1.3852 -1.3338  1.4204
19383SOL     OW60302   1.951   3.091   9.309  0.0522  0.2438 -0.4791
19383SOL    HW160303   1.993   3.093   9.395  1.6121 -0.6977 -1.1586
19383SOL    HW260304   2.023   3.104   9.247 -0.3289 -2.9581 -1.7878
19384SOL     OW60305   2.329   4.032   1.924 -0.2288  0.7510  0.1927
19384SOL    HW160306   2.350   3.950   1.879  0.0965  0.1727  1.3464
19384SOL    HW260307   2.371   4.100   1.873 -0.2751  0.1643 -0.6373
19385SOL     OW60308   1.488   1.043   6.916 -0.5977 -0.5120  0.4903
19385SOL    HW160309   1.558   1.105   6.939 -2.1138  1.0283  1.1079
19385SOL    HW260310   1.491   0.977   6.986 -0.1409 -0.1527  0.8161
19386SOL     OW60311   4.455   2.069   0.323  0.0054 -0.0192  0.5344
19386SOL    HW160312   4.365   2.041   0.339  0.0606 -0.5462 -0.0436
19386SOL    HW260313   4.467   2.059   0.229  0.6525  0.1120  0.5987
19387SOL     OW60314   5.192   0.044   5.888 -0.0437  0.1132 -0.9930
19387SOL    HW160315   5.224   0.025   5.976 -0.4974 -1.1450 -1.0797
19387SOL    HW260316   5.272   0.058   5.836  0.2441  0.2994 -0.5060
19388SOL     OW60317   0.409   2.175   4.942  0.1436  0.1601  0.5471
19388SOL    HW160318   0.354   2.243   4.981  0.8180  0.7598  0.4738
19388SOL    HW260319   0.407   2.103   5.006 -0.7879  0.1337  0.5005
19389SOL     OW60320   2.249   5.864   5.165  0.5472  0.0517  0.3434
19389SOL    HW160321   2.265   5.837   5.256 -0.5102 -0.6905  0.3235
19389SOL    HW260322   2.223   5.783   5.120 -1.9894  0.9244  0.0933
19390SOL     OW60323   1.593   2.025   2.913  0.0876 -0.3847  0.1600
19390SOL    HW160324   1.598   2.114   2.948 -1.5171  0.4386 -1.5079
19390SOL    HW260325   1.638   2.030   2.829  0.8420 -1.4410  0.4720
19391SOL     OW60326   4.789   0.901   0.454 -0.1115  0.3710 -0.4369
19391SOL    HW160327   4.745   0.933   0.533 -0.4129 -0.4666 -0.2510
19391SOL    HW260328   4.842   0.828   0.484 -0.4284 -0.1185 -1.0503
19392SOL     OW60329   3.331   9.204   0.096  0.5064  0.0429  0.0531
19392SOL    HW160330   3.417   9.208   0.138  0.7289 -0.2759 -0.3670
19392SOL    HW260331   3.283   9.137   0.145  0.4270  0.3502  0.4047
19393SOL     OW60332   6.874   3.867   5.086  0.0232  0.7212  0.0929
19393SOL    HW160333   6.924   3.915   5.152 -0.5875  1.8066 -0.1983
19393SOL    HW260334   6.802   3.827   5.134  0.5933 -0.0147  0.3544
19394SOL     OW60335   3.838   6.170   5.575  0.3144  0.6643 -0.3650
19394SOL    HW160336   3.846   6.231   5.501  0.2858 -1.0611 -1.8453
19394SOL    HW260337   3.750   6.134   5.568  0.5406 -0.0135  0.1209
19395SOL     OW60338   8.741   5.087   7.703  0.6033  0.5634 -0.0239
19395SOL    HW160339   8.757   5.145   7.778  0.0036 -0.6458  1.1001
19395SOL    HW260340   8.722   5.002   7.743  1.0913 -0.3252 -1.5996
19396SOL     OW60341   4.643   8.987   1.487 -0.1920  0.2849 -0.2374
19396SOL    HW160342   4.614   9.066   1.534 -1.9079 -0.6409  0.3640
19396SOL    HW260343   4.563   8.953   1.446  0.0909 -2.1174  1.0202
19397SOL     OW60344   3.168   1.146   3.189 -0.0701  0.2561 -0.4350
19397SOL    HW160345   3.196   1.179   3.104  1.0788 -0.8684 -0.5233
19397SOL    HW260346   3.248   1.144   3.241 -0.4003 -0.8452  0.0671
19398SOL     OW60347   2.652   8.694   7.297  0.4521  0.0206 -0.7905
19398SOL    HW160348   2.715   8.631   7.334 -0.9220 -2.5996 -2.6222
19398SOL    HW260349   2.571   8.645   7.288 -0.5620  1.8961 -2.8774
19399SOL     OW60350   7.315   3.783   6.145  0.4265  0.0651  0.0047
19399SOL    HW160351   7.263   3.704   6.161 -0.3713  0.6947  0.6615
19399SOL    HW260352   7.355   3.803   6.230 -1.8868  2.0746  0.7462
19400SOL     OW60353   9.386   3.612   2.593  0.2740  0.1160 -0.6300
19400SOL    HW160354   9.357   3.532   2.548  0.8297  0.2938 -1.3198
19400SOL    HW260355   9.319   3.677   2.571  0.0406 -0.0494 -0.4105
19401SOL     OW60356   9.132   9.625   7.395 -0.0681 -0.0007  0.2879
19401SOL    HW160357   9.092   9.571   7.464 -0.3356 -2.0041 -1.3506
19401SOL    HW260358   9.066   9.628   7.326  0.9980  0.2460 -0.7295
19402SOL     OW60359   0.889   5.069   3.698  0.4087 -0.5769 -0.3522
19402SOL    HW160360   0.837   4.990   3.682  0.5228 -0.7333  0.0345
19402SOL    HW260361   0.889   5.078   3.794 -0.1363  0.2487 -0.4286
19403SOL     OW60362   0.438   1.004   7.768 -0.3276  0.3567  0.5595
19403SOL    HW160363   0.369   0.946   7.800 -0.9749  0.4985 -0.5177
19403SOL    HW260364   0.398   1.091   7.770 -0.3280  0.3920 -0.4328
19404SOL     OW60365   4.588   2.511   5.234  0.0087 -0.2038  0.5718
19404SOL    HW160366   4.607   2.466   5.152 -2.5175 -1.6188  0.6401
19404SOL    HW260367   4.610   2.603   5.217 -0.3261 -0.4744 -1.6724
19405SOL     OW60368   8.823   8.044   0.084 -0.2429  0.3479 -0.0050
19405SOL    HW160369   8.749   8.027   0.142  0.3102 -0.0415  0.5992
19405SOL    HW260370   8.783   8.061  -0.001 -0.9690 -1.9456 -0.1941
19406SOL     OW60371   4.278   8.482   3.093 -0.3470  0.5980  0.8720
19406SOL    HW160372   4.351   8.461   3.150 -1.4209 -0.3835  1.9527
19406SOL    HW260373   4.204   8.432   3.128 -0.9536 -0.4923 -1.6758
19407SOL     OW60374   6.668   8.846   8.127 -0.0507  0.6343  0.0418
19407SOL    HW160375   6.740   8.790   8.101 -0.3305  1.1268 -2.0153
19407SOL    HW260376   6.672   8.850   8.222  0.0511 -2.7244  0.2696
19408SOL     OW60377   7.736   3.408   2.041  0.0860  0.4069  0.0811
19408SOL    HW160378   7.683   3.369   1.971 -0.2038 -0.1542  0.5998
19408SOL    HW260379   7.673   3.428   2.110  0.1144  2.4944 -0.4392
19409SOL     OW60380   6.122   2.176   2.131  0.1039 -0.1716 -0.1387
19409SOL    HW160381   6.185   2.242   2.158 -0.2244 -0.1783  0.6883
19409SOL    HW260382   6.114   2.118   2.207 -0.4033 -0.5483 -0.4688
19410SOL     OW60383   8.373   8.862   1.247  0.4111 -0.1227  0.2444
19410SOL    HW160384   8.449   8.895   1.294 -0.7242  2.0028  0.7056
19410SOL    HW260385   8.322   8.814   1.313 -0.4541  1.6219  0.8992
19411SOL     OW60386   0.010   8.653   7.936 -0.4044 -0.0252 -0.3650
19411SOL    HW160387   0.014   8.581   7.873 -2.0103 -1.1160  0.6963
19411SOL    HW260388  -0.035   8.723   7.888  2.1820  0.8029 -1.7904
19412SOL     OW60389   3.425   0.259   8.874 -0.4219 -0.5010 -0.3502
19412SOL    HW160390   3.369   0.335   8.891  2.0838  0.8364  3.1359
19412SOL    HW260391   3.382   0.187   8.919  0.6918  0.6251  2.7464
19413SOL     OW60392   6.672   1.360   1.403 -0.4493  0.2912  0.6072
19413SOL    HW160393   6.728   1.408   1.464  0.3429 -1.6443  1.4629
19413SOL    HW260394   6.724   1.351   1.323 -1.1103  1.9389 -0.0729
19414SOL     OW60395   6.987   8.131   5.205 -0.2141 -0.2845  0.0834
19414SOL    HW160396   7.019   8.067   5.142 -0.8514  0.4454 -1.0193
19414SOL    HW260397   6.971   8.209   5.153  0.4414  0.7523  1.3819
19415SOL     OW60398   7.370   5.544   8.498 -0.3330  0.0339  0.1658
19415SOL    HW160399   7.298   5.484   8.479 -1.1798  1.6847 -2.6286
19415SOL    HW260400   7.354   5.619   8.440  1.3880  2.3596  2.4541
19416SOL     OW60401   0.541   0.744   5.308 -0.4691  0.2154 -0.0599
19416SOL    HW160402   0.525   0.721   5.400 -1.5212  0.7239 -0.0959
19416SOL    HW260403   0.496   0.675   5.258 -0.6225  0.4001 -0.1806
19417SOL     OW60404   4.082   4.650   0.176 -0.2157  0.4087  0.1293
19417SOL    HW160405   4.146   4.693   0.233 -0.6637  0.4935  0.5725
19417SOL    HW260406   3.998   4.690   0.199 -0.3964  0.4906 -0.6396
19418SOL     OW60407   8.996   3.039   0.457  0.3169 -0.6548 -0.8108
19418SOL    HW160408   8.991   3.108   0.523  0.6730 -0.3782 -1.0674
19418SOL    HW260409   8.946   2.966   0.494  1.9368 -1.1247  0.5263
19419SOL     OW60410   7.818   6.431   4.135  0.0713 -0.3483 -0.2138
19419SOL    HW160411   7.752   6.383   4.185  0.5625  0.0151  0.8113
19419SOL    HW260412   7.767   6.491   4.080 -0.4655  0.6481  1.2926
19420SOL     OW60413   2.714   6.280   1.006  0.1976  0.1365  0.1569
19420SOL    HW160414   2.689   6.203   1.057 -1.0613  1.1324  1.1331
19420SOL    HW260415   2.646   6.289   0.940 -0.3365  1.0353  0.7906
19421SOL     OW60416   1.477   4.392   0.689 -0.5044 -0.6110 -0.4037
19421SOL    HW160417   1.420   4.465   0.712 -1.5523 -0.5446 -2.8929
19421SOL    HW260418   1.564   4.430   0.683 -0.9899  0.3983 -1.3621
19422SOL     OW60419   3.341   2.089   0.337  0.5882  0.4271  0.8417
19422SOL    HW160420   3.283   2.033   0.286 -0.0557  0.9997  0.9182
19422SOL    HW260421   3.294   2.104   0.419  1.1866  0.2849  1.2142
19423SOL     OW60422   7.749   3.891   1.509 -0.1643  0.7910 -0.2048
19423SOL    HW160423   7.740   3.817   1.568  2.0628  0.4050 -0.2604
19423SOL    HW260424   7.731   3.855   1.422 -2.8445  1.2290  0.0688
19424SOL     OW60425   6.126   5.650   3.047 -0.2035 -0.0625 -0.1906
19424SOL    HW160426   6.072   5.595   3.103  0.5504 -1.3813 -0.7264
19424SOL    HW260427   6.212   5.650   3.090 -0.7770  2.9109  1.2776
19425SOL     OW60428   4.191   0.328   3.515  0.2992 -0.5297  0.4735
19425SOL    HW160429   4.107   0.318   3.560  0.5256 -0.8037  0.8420
19425SOL    HW260430   4.232   0.403   3.558 -0.4209  0.6334 -0.7652
19426SOL     OW60431   4.313   1.476   2.591 -0.3070  0.2207 -0.2424
19426SOL    HW160432   4.379   1.539   2.562 -0.2065 -0.3391 -1.2592
19426SOL    HW260433   4.250   1.473   2.520 -0.4551 -0.6217 -0.0830
19427SOL     OW60434   6.470   8.124   2.292  0.8883  0.1984  0.2184
19427SOL    HW160435   6.498   8.215   2.302 -2.0347  1.0968  1.3208
19427SOL    HW260436   6.416   8.124   2.213 -0.2496 -0.1896  0.9540
19428SOL     OW60437   4.596   0.539   4.265  0.0905 -0.0403 -0.2981
19428SOL    HW160438   4.521   0.576   4.311  1.3518  1.1582  0.9518
19428SOL    HW260439   4.583   0.563   4.174 -0.3501  1.4625  0.1243
19429SOL     OW60440   5.209   1.856   6.168  0.0239  0.0154  0.1670
19429SOL    HW160441   5.193   1.822   6.257 -3.1662  0.9007  0.0352
19429SOL    HW260442   5.135   1.824   6.116  1.8279 -0.4934 -2.2565
19430SOL     OW60443   3.934   6.055   2.344 -0.2638 -0.0684  0.3550
19430SOL    HW160444   3.853   6.066   2.295  0.2836 -0.1084 -0.5756
19430SOL    HW260445   3.906   6.016   2.427 -1.3277  0.9891  0.5345
19431SOL     OW60446   3.552   2.615   6.948  0.1945  0.3298 -0.0384
19431SOL    HW160447   3.478   2.638   7.005 -1.2089 -1.6251 -0.9737
19431SOL    HW260448   3.524   2.535   6.904  1.9261  0.8461 -2.2308
19432SOL     OW60449   4.703   4.048   0.387  0.4838 -0.4451  0.2341
19432SOL    HW160450   4.795   4.035   0.365  0.7581  0.8565  0.5078
19432SOL    HW260451   4.675   3.966   0.428  1.7304 -0.5853  0.8229
19433SOL     OW60452   1.648   1.116   7.242 -0.3161 -0.3777 -0.4079
19433SOL    HW160453   1.666   1.103   7.335 -0.8139  0.0031 -0.2534
19433SOL    HW260454   1.734   1.106   7.200  0.1210  0.5777  0.2169
19434SOL     OW60455   5.598   4.634   9.041  0.9921  0.4496  0.3784
19434SOL    HW160456   5.597   4.647   8.946  0.4121  0.0956  0.3286
19434SOL    HW260457   5.560   4.713   9.077 -1.5354 -0.5551  0.1401
19435SOL     OW60458   1.212   2.951   6.577 -0.1029 -0.4770 -0.1418
19435SOL    HW160459   1.233   2.858   6.590  0.1036 -0.2273  1.5341
19435SOL    HW260460   1.118   2.953   6.563  0.0475 -1.0284 -1.3644
19436SOL     OW60461   2.644   9.030   6.172  0.1163 -0.2497  0.2999
19436SOL    HW160462   2.706   8.990   6.234  1.1561  0.2513 -0.3845
19436SOL    HW260463   2.663   8.985   6.089 -1.0211 -0.6682  0.2578
19437SOL     OW60464   2.793   0.881   6.500 -0.0101  0.1386  0.4677
19437SOL    HW160465   2.881   0.882   6.460  0.1146 -0.2400  0.7271
19437SOL    HW260466   2.809   0.895   6.593 -0.2956  0.9110  0.4079
19438SOL     OW60467   2.287   4.312   9.569 -0.1717  0.3036  0.2193
19438SOL    HW160468   2.279   4.242   9.634 -0.2100 -0.1370 -0.2589
19438SOL    HW260469   2.349   4.373   9.608  0.0977 -0.1463  0.5059
19439SOL     OW60470   0.841   8.016   4.449 -0.2884  0.1468  0.5172
19439SOL    HW160471   0.842   7.994   4.356 -1.0724  1.8478  0.0549
19439SOL    HW260472   0.781   7.952   4.488 -0.1079 -0.4572 -0.1700
19440SOL     OW60473   6.509   1.526   8.180 -0.2733  0.1179 -0.1443
19440SOL    HW160474   6.556   1.443   8.165  1.7050  1.4914 -2.3229
19440SOL    HW260475   6.501   1.532   8.275  2.6219 -1.0139  0.2807
19441SOL     OW60476   9.104   0.555   2.406 -0.0465  0.2021 -0.2004
19441SOL    HW160477   9.023   0.508   2.386  0.5627 -1.4032  0.8740
19441SOL    HW260478   9.153   0.556   2.324 -0.8952  0.6884 -0.7106
19442SOL     OW60479   8.282   3.914   4.151 -0.1110 -0.1606 -0.1543
19442SOL    HW160480   8.212   3.850   4.146  0.0586 -0.2984 -0.8139
19442SOL    HW260481   8.362   3.863   4.165  0.3781 -0.3515 -2.9632
19443SOL     OW60482   4.592   0.219   4.358 -0.4736  0.1814 -0.3526
19443SOL    HW160483   4.668   0.260   4.399  0.3953  0.2471 -1.9498
19443SOL    HW260484   4.526   0.288   4.355 -0.6290  0.1297  1.0227
19444SOL     OW60485   2.382   7.330   7.526 -0.2563  0.0267 -0.4897
19444SOL    HW160486   2.317   7.295   7.465 -0.7182  0.6319 -0.3526
19444SOL    HW260487   2.450   7.263   7.529 -0.8926 -0.6328 -0.6045
19445SOL     OW60488   7.766   3.907   6.091  0.0184 -0.2232  0.4916
19445SOL    HW160489   7.851   3.891   6.050  0.2496  0.4609  0.7020
19445SOL    HW260490   7.737   3.991   6.055 -0.3250 -0.1970  0.8247
19446SOL     OW60491   8.602   2.177   3.308  0.1198 -0.0839  0.1509
19446SOL    HW160492   8.622   2.088   3.280  0.6725 -0.3017  1.1975
19446SOL    HW260493   8.662   2.232   3.259 -0.3771 -0.2527 -0.6720
19447SOL     OW60494   7.246   1.570   5.345 -0.1764 -0.0025  0.0224
19447SOL    HW160495   7.228   1.563   5.438  0.4627  0.4426  0.1896
19447SOL    HW260496   7.170   1.531   5.302 -1.5095  1.7602  0.6710
19448SOL     OW60497   6.615   6.196   7.463 -0.5429 -0.2952 -0.2760
19448SOL    HW160498   6.527   6.235   7.462 -0.1673  0.6562  1.1454
19448SOL    HW260499   6.605   6.115   7.413 -2.1354 -0.0204 -0.4762
19449SOL     OW60500   1.756   7.070   8.775 -0.3268 -0.0583  0.3937
19449SOL    HW160501   1.798   7.014   8.841 -0.7039 -0.2741  0.4549
19449SOL    HW260502   1.700   7.129   8.825 -0.0119  0.3060  0.3213
19450SOL     OW60503   2.487   5.240   2.959 -0.3320  0.1044  0.2233
19450SOL    HW160504   2.412   5.275   2.911 -1.2483 -1.6645  0.2785
19450SOL    HW260505   2.506   5.157   2.916 -0.7690 -1.2334  2.4629
19451SOL     OW60506   4.852   8.744   7.861 -0.3045 -0.0623  0.5111
19451SOL    HW160507   4.861   8.759   7.955 -0.4917 -1.8522  0.8378
19451SOL    HW260508   4.888   8.657   7.847 -0.1649  0.2334 -1.1073
19452SOL     OW60509   3.940   5.447   1.884  0.1880 -0.0170  0.6061
19452SOL    HW160510   3.937   5.360   1.925  1.3431 -0.6233 -0.5073
19452SOL    HW260511   3.994   5.434   1.806 -0.8659  1.3793 -0.3943
19453SOL     OW60512   4.601   0.101   5.331  0.1443  0.1378  0.0579
19453SOL    HW160513   4.567   0.053   5.406 -1.4893  0.8408 -0.2029
19453SOL    HW260514   4.637   0.033   5.274  0.0693 -0.5341  0.7873
19454SOL     OW60515   6.900   8.786   7.688  0.1865 -0.3419 -0.0510
19454SOL    HW160516   6.827   8.732   7.716 -0.1079 -0.0495 -0.2468
19454SOL    HW260517   6.947   8.807   7.768 -0.3317  0.0311  0.1552
19455SOL     OW60518   2.438   1.850   7.979 -0.5574 -1.0382  0.2015
19455SOL    HW160519   2.400   1.847   7.891 -0.0624 -1.7648  0.0010
19455SOL    HW260520   2.514   1.907   7.970 -0.8550 -0.6177  0.3073
19456SOL     OW60521   3.850   9.291   3.418  0.3470 -0.7123 -0.0684
19456SOL    HW160522   3.779   9.308   3.356  0.8917  3.4676  0.1812
19456SOL    HW260523   3.817   9.221   3.474 -2.3831 -0.8871 -1.7252
19457SOL     OW60524   3.817   6.144   7.565  0.1356 -0.2833  0.1402
19457SOL    HW160525   3.759   6.086   7.614 -1.3240 -0.8014 -2.0703
19457SOL    HW260526   3.785   6.141   7.475  2.7819  0.4669 -0.9493
19458SOL     OW60527   5.474   6.794   7.053  0.2556 -0.2875  0.3053
19458SOL    HW160528   5.474   6.862   7.120  0.9790  2.7180 -2.4851
19458SOL    HW260529   5.386   6.799   7.015  0.5705 -0.3139 -0.4416
19459SOL     OW60530   2.776   4.735   2.234  0.4374 -0.4196 -0.0629
19459SOL    HW160531   2.870   4.754   2.232  0.2367  0.5941 -0.8641
19459SOL    HW260532   2.753   4.739   2.327  1.0457  0.0075  0.0771
19460SOL     OW60533   2.149   5.670   1.948  0.0413 -0.4992 -0.0758
19460SOL    HW160534   2.145   5.629   2.034  1.6808 -1.3815 -0.3667
19460SOL    HW260535   2.159   5.763   1.965 -0.0325 -0.6235  0.6739
19461SOL     OW60536   8.158   0.881   7.739 -0.5006  0.3237  0.1239
19461SOL    HW160537   8.188   0.802   7.784 -1.4641  0.8988  1.8764
19461SOL    HW260538   8.231   0.906   7.682  0.5990 -0.6949  1.0422
19462SOL     OW60539   7.947   3.450   8.777  0.5339 -0.5370 -0.0319
19462SOL    HW160540   8.001   3.394   8.833  0.9732  0.3179  0.4253
19462SOL    HW260541   7.937   3.400   8.696  1.5819 -0.9474  0.0699
19463SOL     OW60542   4.483   8.251   5.352  0.1726 -0.0680 -0.0127
19463SOL    HW160543   4.421   8.285   5.288  0.4225 -1.8546 -1.2508
19463SOL    HW260544   4.435   8.183   5.398 -0.4389  2.0011  2.6958
19464SOL     OW60545   0.531   5.851   6.263 -0.3289  0.1098 -0.1861
19464SOL    HW160546   0.568   5.893   6.341 -0.3654  1.6546 -0.9644
19464SOL    HW260547   0.438   5.843   6.282  0.0956 -2.6719  1.2768
19465SOL     OW60548   4.018   2.578   2.873 -0.4318 -0.2443 -0.8387
19465SOL    HW160549   4.035   2.620   2.957 -0.6550  0.3774 -1.0988
19465SOL    HW260550   3.963   2.640   2.825  1.1616  0.2463 -2.1460
19466SOL     OW60551   4.713   7.144   0.962  0.3518 -0.0501 -0.1605
19466SOL    HW160552   4.801   7.177   0.977  0.2658  0.2489 -0.2888
19466SOL    HW260553   4.670   7.150   1.047  0.3661  0.0864 -0.1620
19467SOL     OW60554   8.524   3.566   5.448  0.3969  0.5575  0.0941
19467SOL    HW160555   8.480   3.563   5.533  1.2717  0.8186  0.5703
19467SOL    HW260556   8.560   3.478   5.437 -1.6022 -0.1974 -1.0759
19468SOL     OW60557   7.722   9.348   5.981 -0.2859  0.3930 -0.2197
19468SOL    HW160558   7.665   9.405   6.033  1.2381  0.4753  1.4513
19468SOL    HW260559   7.771   9.408   5.924  1.5007  0.8976  1.7144
19469SOL     OW60560   8.635   1.246   6.519 -0.1656  0.0024  0.1579
19469SOL    HW160561   8.642   1.170   6.462 -2.0158  0.7106 -1.1159
19469SOL    HW260562   8.660   1.320   6.463 -0.0599  0.5153  0.8702
19470SOL     OW60563   5.899   7.504   8.403  0.0404 -0.4790  0.3865
19470SOL    HW160564   5.962   7.533   8.336 -0.1392 -0.1560  0.3524
19470SOL    HW260565   5.827   7.465   8.352 -0.4913  0.5310  0.3323
19471SOL     OW60566   1.547   1.673   9.286 -0.3282  0.2851  0.2827
19471SOL    HW160567   1.588   1.645   9.204  2.6459 -0.5588  1.9174
19471SOL    HW260568   1.584   1.760   9.302 -2.3755  1.2998 -0.1295
19472SOL     OW60569   7.638   8.985   3.855  0.3293 -0.3868  0.0200
19472SOL    HW160570   7.545   9.006   3.849  0.3032 -0.3023  0.7120
19472SOL    HW260571   7.641   8.903   3.904  0.6542 -0.0330  0.6095
19473SOL     OW60572   3.206   7.141   4.713  0.1542 -0.0963  0.0437
19473SOL    HW160573   3.152   7.200   4.661 -1.7077 -0.2353  1.6781
19473SOL    HW260574   3.153   7.061   4.722  0.8720 -0.4780  1.1758
19474SOL     OW60575   1.937   8.081   3.033 -0.2350  0.4754 -0.3770
19474SOL    HW160576   1.927   7.991   3.002 -0.3998  0.3810 -0.0560
19474SOL    HW260577   2.013   8.077   3.092 -0.3263  0.5183 -0.2562
19475SOL     OW60578   4.253   9.081   2.942 -0.1949 -0.2805  0.2703
19475SOL    HW160579   4.207   9.000   2.918 -0.0927 -0.3986  0.4700
19475SOL    HW260580   4.281   9.118   2.858 -0.4189 -0.3463  0.1642
19476SOL     OW60581   1.750   2.755   1.182  0.3861 -0.0209  0.0238
19476SOL    HW160582   1.807   2.706   1.122  0.3456  0.4186 -0.3822
19476SOL    HW260583   1.677   2.695   1.199  1.2687 -0.8302  1.0567
19477SOL     OW60584   7.133   1.827   7.602  0.1690 -0.0917 -0.0393
19477SOL    HW160585   7.155   1.808   7.694 -1.8399  0.1612  0.5562
19477SOL    HW260586   7.157   1.747   7.555  0.2269 -0.6496  0.9039
19478SOL     OW60587   3.550   1.199   3.150 -0.5751 -0.2462 -0.7460
19478SOL    HW160588   3.629   1.242   3.183 -1.6050  0.5462  0.7714
19478SOL    HW260589   3.498   1.181   3.228 -1.2762 -2.0650 -1.5784
19479SOL     OW60590   6.568   6.780   1.520 -0.2157 -0.1599 -0.4778
19479SOL    HW160591   6.499   6.828   1.564 -0.9468 -1.6573  0.0829
19479SOL    HW260592   6.599   6.717   1.585 -0.4360 -1.5609 -1.6622
19480SOL     OW60593   0.098   2.715   4.486  0.2249 -0.2224  0.6559
19480SOL    HW160594   0.114   2.754   4.400 -1.4061  1.3113  0.9868
19480SOL    HW260595   0.017   2.666   4.475  0.3169 -0.4884  1.1718
19481SOL     OW60596   4.492   5.820   0.965 -0.2631 -0.3070  0.2657
19481SOL    HW160597   4.498   5.857   0.877  0.6903 -1.0696  0.0017
19481SOL    HW260598   4.454   5.891   1.018 -1.3515 -0.0167 -0.8454
19482SOL     OW60599   4.038   7.921   4.024  0.2820 -0.1673  0.2845
19482SOL    HW160600   3.975   7.849   4.023  0.9537 -0.7706 -1.5766
19482SOL    HW260601   4.123   7.878   4.030  0.7200  0.4326 -1.3087
19483SOL     OW60602   3.130   6.273   4.594  0.6340  0.5277  0.2270
19483SOL    HW160603   3.056   6.213   4.602  0.2511  1.0586  0.7471
19483SOL    HW260604   3.134   6.294   4.501 -0.3085  1.0401  0.2886
19484SOL     OW60605   4.529   4.053   8.296 -0.0120  0.2016  0.0333
19484SOL    HW160606   4.616   4.090   8.311  1.2325 -0.4517 -4.3099
19484SOL    HW260607   4.540   3.959   8.310 -0.6865  0.3334  1.6715
19485SOL     OW60608   0.708   9.332   3.410  0.5782 -0.3288 -0.4265
19485SOL    HW160609   0.753   9.403   3.455 -0.0655 -1.5505  2.3812
19485SOL    HW260610   0.628   9.373   3.375  0.4690  0.4525  0.6847
19486SOL     OW60611   8.405   4.136   6.027  0.0450 -0.4519  0.4255
19486SOL    HW160612   8.423   4.137   5.933 -1.0764  1.8201  0.1732
19486SOL    HW260613   8.311   4.121   6.034  0.1170 -0.6137  1.1770
19487SOL     OW60614   7.995   1.022   6.161  0.0233 -0.1622  0.1986
19487SOL    HW160615   8.038   1.100   6.126 -0.9925 -0.2283 -1.2728
19487SOL    HW260616   7.904   1.047   6.172  0.1160 -0.4502  1.9744
19488SOL     OW60617   1.669   1.141   8.919 -0.7548  0.2312 -0.4041
19488SOL    HW160618   1.682   1.094   8.837 -1.2744 -0.3370 -0.1653
19488SOL    HW260619   1.598   1.095   8.963  0.0405  0.0235  0.7274
19489SOL     OW60620   9.435   3.706   8.709 -0.4607 -0.1448 -0.3879
19489SOL    HW160621   9.456   3.754   8.789  0.3840 -1.8409  0.4513
19489SOL    HW260622   9.514   3.712   8.656 -0.7415  0.2987 -0.7665
19490SOL     OW60623   0.911   1.766   4.285 -0.4242  0.5678 -0.0707
19490SOL    HW160624   0.821   1.734   4.292 -0.1660  0.2415  3.2343
19490SOL    HW260625   0.907   1.855   4.322  0.4385  1.0209 -1.0180
19491SOL     OW60626   7.316   7.402   0.961 -0.5231  0.0013  0.5636
19491SOL    HW160627   7.259   7.476   0.983 -0.9853 -0.0111 -0.5256
19491SOL    HW260628   7.275   7.327   1.004 -1.5075 -0.0548 -0.4362
19492SOL     OW60629   7.660   4.190   7.946  0.5912  0.2603 -0.1919
19492SOL    HW160630   7.736   4.204   7.890  0.6776  1.1440  0.1309
19492SOL    HW260631   7.658   4.095   7.961  0.7971  0.0600 -1.3500
19493SOL     OW60632   8.504   8.831   0.435  0.3100 -0.6360 -0.3604
19493SOL    HW160633   8.597   8.822   0.414  0.6184  0.6632  0.3313
19493SOL    HW260634   8.460   8.820   0.351  1.0969 -1.0739 -0.7314
19494SOL     OW60635   6.979   7.978   0.763  0.0450  0.0068  0.7566
19494SOL    HW160636   7.064   7.977   0.720 -0.7046  0.8630 -0.8540
19494SOL    HW260637   6.956   7.886   0.774  0.6828 -0.2356  0.1407
19495SOL     OW60638   4.149   2.968   1.319  0.4805 -0.0637 -0.2920
19495SOL    HW160639   4.210   3.039   1.303  0.1178  1.2338  3.1807
19495SOL    HW260640   4.186   2.921   1.394 -0.2843 -2.3925 -1.2776
19496SOL     OW60641   0.568   5.163   3.987  0.7730 -0.6077  0.0840
19496SOL    HW160642   0.594   5.139   4.076 -0.9798 -0.1261  0.7654
19496SOL    HW260643   0.552   5.079   3.942 -2.4760 -0.9424  1.5651
19497SOL     OW60644   2.906   4.415   0.344  0.2959 -0.0832  0.5361
19497SOL    HW160645   2.984   4.361   0.331  0.9350  0.8672  0.3412
19497SOL    HW260646   2.913   4.446   0.435  1.9265  2.6835 -0.4200
19498SOL     OW60647   0.372   1.627   5.482  0.3520  0.4520 -0.5029
19498SOL    HW160648   0.285   1.607   5.516 -0.4452  1.5910 -1.7799
19498SOL    HW260649   0.406   1.693   5.543  0.7200 -0.6439  0.5141
19499SOL     OW60650   0.659   6.793   8.208 -0.3801  0.2324 -0.1612
19499SOL    HW160651   0.595   6.790   8.137 -1.3707 -0.7259  0.7376
19499SOL    HW260652   0.651   6.882   8.244 -0.6267  0.3783 -0.5725
19500SOL     OW60653   0.191   0.249   0.916 -0.9093  0.4928  0.2617
19500SOL    HW160654   0.145   0.314   0.861  0.2172  0.1037 -1.2131
19500SOL    HW260655   0.157   0.165   0.886 -0.6357  0.2958  0.5090
19501SOL     OW60656   1.700   5.495   8.275 -0.0426  0.0673 -0.4632
19501SOL    HW160657   1.708   5.408   8.315 -2.0746 -0.9531 -2.0855
19501SOL    HW260658   1.664   5.550   8.345 -0.0083 -0.7307  0.2061
19502SOL     OW60659   4.862   6.634   4.616  0.1154  0.4345  0.1310
19502SOL    HW160660   4.837   6.721   4.585 -1.8582 -1.0126 -2.8569
19502SOL    HW260661   4.944   6.616   4.571  1.2412  1.1773  1.7933
19503SOL     OW60662   9.071   1.955   9.459  0.8038  0.5214 -0.0413
19503SOL    HW160663   8.990   1.914   9.428  1.1081 -1.4873  1.5576
19503SOL    HW260664   9.126   1.963   9.381 -0.8964  1.9651 -1.1643
19504SOL     OW60665   6.907   7.892   4.104 -0.2765 -0.4178  0.1851
19504SOL    HW160666   6.911   7.974   4.054  0.1975 -0.5812 -0.0556
19504SOL    HW260667   6.878   7.919   4.191  1.8435  0.3278  0.7432
19505SOL     OW60668   8.749   5.308   9.109  0.2910 -0.4733 -0.0854
19505SOL    HW160669   8.683   5.258   9.060  0.5745 -1.7139  0.7561
19505SOL    HW260670   8.705   5.332   9.191  0.5269 -0.3143 -0.0041
19506SOL     OW60671   7.307   4.648   1.540 -0.2535 -0.1660  0.2994
19506SOL    HW160672   7.292   4.571   1.593  1.2164  1.9903  4.2864
19506SOL    HW260673   7.399   4.641   1.513 -0.3100 -0.1199  0.0905
19507SOL     OW60674   5.959   5.554   5.019 -0.0506 -0.2238 -0.3855
19507SOL    HW160675   5.950   5.618   5.090  0.4097 -0.7359  0.1399
19507SOL    HW260676   6.037   5.504   5.041 -0.4558 -1.0301 -0.7517
19508SOL     OW60677   7.219   3.757   7.391  0.3720 -0.5971  0.0783
19508SOL    HW160678   7.152   3.692   7.369  2.4342 -2.7730 -0.2477
19508SOL    HW260679   7.278   3.756   7.316  0.2120  2.1432 -0.1626
19509SOL     OW60680   2.070   2.759   1.663  0.1643  0.5604 -0.2133
19509SOL    HW160681   2.087   2.749   1.569  1.1994  0.3578 -0.0139
19509SOL    HW260682   1.977   2.738   1.673 -0.8170  3.6083 -1.6634
19510SOL     OW60683   5.873   5.514   6.866 -0.2088  0.7698  0.2628
19510SOL    HW160684   5.957   5.477   6.840 -0.5348 -0.9269  1.4578
19510SOL    HW260685   5.889   5.609   6.870  1.6429  0.4866  0.5120
19511SOL     OW60686   5.418   3.075   5.770 -0.0367  0.3672 -1.0333
19511SOL    HW160687   5.387   3.000   5.720 -2.8228  0.9640 -0.3699
19511SOL    HW260688   5.376   3.066   5.855  2.9141  0.5095  0.5587
19512SOL     OW60689   6.024   4.612   4.258  0.4695  0.7731  0.0933
19512SOL    HW160690   5.981   4.563   4.328 -0.2325  1.8410  0.4267
19512SOL    HW260691   6.059   4.690   4.300  0.5358  1.1550 -0.6420
19513SOL     OW60692   3.770   5.595   9.473 -0.0406  0.0003  0.3579
19513SOL    HW160693   3.678   5.570   9.476 -0.2054  0.3706 -0.9808
19513SOL    HW260694   3.784   5.647   9.552 -0.8032 -0.6192  0.9075
19514SOL     OW60695   6.796   5.510   7.287  0.4281  0.7398  0.1119
19514SOL    HW160696   6.743   5.549   7.218  0.2532 -1.0430 -0.8111
19514SOL    HW260697   6.868   5.468   7.240  0.1632 -0.7251  0.9787
19515SOL     OW60698   8.313   0.541   9.200 -0.7119 -0.4710 -0.6565
19515SOL    HW160699   8.381   0.595   9.158 -1.2511 -1.3164 -2.7083
19515SOL    HW260700   8.344   0.531   9.290  0.5454  1.3555 -0.8222
19516SOL     OW60701   0.600   0.873   3.668  0.0249 -0.1876 -0.0094
19516SOL    HW160702   0.514   0.896   3.706  0.2930  0.1825  0.3912
19516SOL    HW260703   0.658   0.865   3.744  0.4502  0.0265 -0.3080
19517SOL     OW60704   3.296   5.701   8.364  0.1665 -0.1874  0.3747
19517SOL    HW160705   3.273   5.645   8.290 -0.6598  0.6603 -0.0278
19517SOL    HW260706   3.266   5.652   8.441  0.4702 -0.7970  0.1099
19518SOL     OW60707   8.641   3.568   2.856  0.3107  0.4896  0.0502
19518SOL    HW160708   8.734   3.549   2.842  0.2359  0.7421 -0.9190
19518SOL    HW260709   8.632   3.662   2.837  0.1432  0.8575  1.8087
19519SOL     OW60710   8.862   4.758   1.931  0.1219 -0.1258  0.1181
19519SOL    HW160711   8.769   4.736   1.919 -0.4102  2.1540 -0.5493
19519SOL    HW260712   8.896   4.688   1.986 -1.6384 -1.8024 -0.7667
19520SOL     OW60713   4.284   5.381   2.749 -0.9945 -0.2158  0.3036
19520SOL    HW160714   4.215   5.409   2.809 -0.4329 -0.5712  1.1387
19520SOL    HW260715   4.254   5.410   2.663 -2.5553 -1.0548  0.5295
19521SOL     OW60716   3.980   4.652   8.644 -0.9303 -0.7160 -0.2321
19521SOL    HW160717   3.909   4.654   8.580 -0.7685 -0.7201 -0.4132
19521SOL    HW260718   3.939   4.681   8.726 -1.2245 -1.0668 -0.2505
19522SOL     OW60719   0.156   4.050   8.627 -0.3053 -0.4458 -0.1440
19522SOL    HW160720   0.176   3.958   8.642  0.6179 -0.3318 -0.5737
19522SOL    HW260721   0.172   4.093   8.711  0.1938 -0.5291 -0.1975
19523SOL     OW60722   5.855   3.817   5.459  0.8877  0.3072 -0.1742
19523SOL    HW160723   5.927   3.822   5.397  1.8933 -0.8515  0.8564
19523SOL    HW260724   5.837   3.723   5.469 -0.8917  0.5692 -0.5375
19524SOL     OW60725   3.304   9.397   9.249  0.1084  0.0695  0.0034
19524SOL    HW160726   3.336   9.325   9.196  0.3943 -0.9541  1.4944
19524SOL    HW260727   3.297   9.361   9.338 -1.0249  1.4968  0.5506
19525SOL     OW60728   6.716   8.860   3.477  0.4541 -0.1940  0.1041
19525SOL    HW160729   6.687   8.823   3.561  1.2039  0.7978  0.8252
19525SOL    HW260730   6.712   8.955   3.490  0.7772 -0.0378 -0.9127
19526SOL     OW60731   4.940   4.439   7.829  0.0591 -0.0024 -0.3489
19526SOL    HW160732   5.009   4.505   7.817  1.2714 -1.1713 -0.0855
19526SOL    HW260733   4.881   4.452   7.755  1.0443  0.4613 -1.0840
19527SOL     OW60734   4.598   2.261   0.642 -0.2562 -0.0993  0.7322
19527SOL    HW160735   4.514   2.265   0.687 -0.2817  1.9364  0.6074
19527SOL    HW260736   4.663   2.257   0.713 -0.4161 -1.6221  0.8281
19528SOL     OW60737   7.638   9.130   7.107 -0.0415  0.4231 -0.8142
19528SOL    HW160738   7.673   9.188   7.175  1.1849  1.1845 -2.0336
19528SOL    HW260739   7.605   9.054   7.155 -1.5143  1.9930  0.8146
19529SOL     OW60740   2.813   2.450   6.345 -0.5215  0.0950 -0.2404
19529SOL    HW160741   2.840   2.461   6.254 -0.1044  0.6423 -0.0513
19529SOL    HW260742   2.866   2.512   6.394 -0.8415 -0.0994  0.3637
19530SOL     OW60743   4.718   1.892   5.517 -0.3554 -0.5819 -0.8559
19530SOL    HW160744   4.793   1.899   5.458 -1.1941 -0.9461 -1.9826
19530SOL    HW260745   4.736   1.814   5.570 -0.2277 -1.0193 -1.5361
19531SOL     OW60746   8.727   7.129   2.888  0.4353  0.2673  0.5037
19531SOL    HW160747   8.694   7.218   2.871  0.1870 -0.2031 -1.8360
19531SOL    HW260748   8.664   7.092   2.950 -1.5487  0.5721 -1.1890
19532SOL     OW60749   3.940   4.848   1.461  0.4865 -0.2408 -0.2144
19532SOL    HW160750   3.901   4.905   1.396  0.1530 -0.3684 -0.1250
19532SOL    HW260751   3.979   4.777   1.410  0.4089 -0.2300 -0.2876
19533SOL     OW60752   3.585   2.721   3.339 -0.1458 -0.2394  0.3371
19533SOL    HW160753   3.654   2.655   3.340  1.2855  1.2007  0.3703
19533SOL    HW260754   3.575   2.743   3.246  1.0225  1.0955  0.4931
19534SOL     OW60755   2.965   9.249   7.343  0.0415  0.2853  0.7301
19534SOL    HW160756   2.929   9.301   7.271 -1.8985  0.2252  1.5951
19534SOL    HW260757   3.042   9.207   7.306 -0.8776  0.2721 -1.3106
19535SOL     OW60758   0.649   4.063   3.926  0.1283  0.1448 -0.3515
19535SOL    HW160759   0.594   4.058   4.005  2.3370 -0.0467  1.2972
19535SOL    HW260760   0.623   4.144   3.883 -1.0046  0.3604  0.6935
19536SOL     OW60761   2.930   4.606   1.860  0.2563 -0.7598  0.3845
19536SOL    HW160762   2.889   4.581   1.943  1.2112 -0.2822  1.0145
19536SOL    HW260763   2.916   4.531   1.803  1.4811 -2.0337  1.6651
19537SOL     OW60764   4.192   1.463   1.331 -0.3371  0.0146 -0.0841
19537SOL    HW160765   4.151   1.433   1.412  2.0464  0.8433  1.5294
19537SOL    HW260766   4.216   1.383   1.285 -0.3224 -0.4945  0.7894
19538SOL     OW60767   0.148   0.711   4.614 -0.5548  0.1438  0.4485
19538SOL    HW160768   0.105   0.773   4.672 -0.8051  0.4648 -0.0761
19538SOL    HW260769   0.231   0.753   4.589 -0.3024 -0.1279  0.8170
19539SOL     OW60770   6.481   0.554   7.659  0.3419  0.0956 -0.2148
19539SOL    HW160771   6.514   0.510   7.581  1.6010  0.9489 -0.1926
19539SOL    HW260772   6.387   0.538   7.658  0.8060 -3.4931  0.3598
19540SOL     OW60773   0.376   1.338   2.124  0.3871 -0.1510 -0.2906
19540SOL    HW160774   0.438   1.277   2.163 -0.8036 -1.5182 -0.4405
19540SOL    HW260775   0.292   1.317   2.167 -0.3160  0.4644 -1.3195
19541SOL     OW60776   7.676   4.813   1.109  0.3785  0.6346  0.2705
19541SOL    HW160777   7.727   4.741   1.146  1.4232  1.0851 -0.2578
19541SOL    HW260778   7.708   4.891   1.155  1.2674  1.1218 -1.1262
19542SOL     OW60779   8.603   8.297   5.064  0.8461 -0.4642 -0.5043
19542SOL    HW160780   8.688   8.273   5.099  0.9868  1.8589  0.9835
19542SOL    HW260781   8.542   8.284   5.136  0.6331  1.5106 -0.2720
19543SOL     OW60782   8.643   3.082   6.335  0.2949  0.0982  0.3836
19543SOL    HW160783   8.731   3.059   6.366 -0.2137 -0.1182  1.7370
19543SOL    HW260784   8.629   3.171   6.365  0.0264  0.1159  0.2134
19544SOL     OW60785   4.887   2.498   1.493 -0.1733  0.2319  0.2557
19544SOL    HW160786   4.801   2.460   1.512 -1.3583  1.9427 -1.3358
19544SOL    HW260787   4.877   2.591   1.517  2.2627 -0.0793  2.9940
19545SOL     OW60788   8.586   6.327   0.863  0.8151  0.0503 -0.1845
19545SOL    HW160789   8.544   6.335   0.778  0.5153 -0.3490 -0.0785
19545SOL    HW260790   8.521   6.283   0.918  1.0731  0.1407  0.2005
19546SOL     OW60791   0.440   0.222   7.555  0.6857  0.8169  0.3192
19546SOL    HW160792   0.351   0.217   7.519  1.5005 -0.5949 -1.6357
19546SOL    HW260793   0.463   0.314   7.549 -0.5730  1.1841  0.7059
19547SOL     OW60794   1.899   0.415   6.655  0.4078  1.1888  0.0035
19547SOL    HW160795   1.884   0.402   6.561 -1.5212 -0.5016  0.4872
19547SOL    HW260796   1.843   0.488   6.679  0.8039  1.5371 -0.1122
19548SOL     OW60797   7.638   2.715   4.796 -0.2576 -0.4003 -0.2117
19548SOL    HW160798   7.633   2.792   4.741 -0.0665  0.8633  1.4571
19548SOL    HW260799   7.584   2.736   4.872  0.9076 -1.3400  0.9287
19549SOL     OW60800   6.507   2.686   1.469 -0.3307 -0.5193 -0.1404
19549SOL    HW160801   6.566   2.664   1.397 -1.2266 -0.6703 -0.8417
19549SOL    HW260802   6.420   2.687   1.429 -0.9065 -1.1672  1.0600
19550SOL     OW60803   9.563   3.064   2.816 -0.2791  0.2818 -0.0063
19550SOL    HW160804   9.613   3.144   2.803 -0.2479  0.0619 -1.4089
19550SOL    HW260805   9.482   3.092   2.858 -0.5444  1.1472 -1.0624
19551SOL     OW60806   6.577   4.495   0.098  0.4421 -0.2711 -0.1395
19551SOL    HW160807   6.554   4.428   0.033 -2.4647 -0.4113  0.8897
19551SOL    HW260808   6.529   4.469   0.177  1.0940  1.7789  1.0014
19552SOL     OW60809   4.322   6.466   0.043 -0.1469 -0.6159  0.4317
19552SOL    HW160810   4.353   6.522  -0.028 -0.9845 -2.1099 -1.1760
19552SOL    HW260811   4.243   6.510   0.075  0.6377  0.4467  0.9880
19553SOL     OW60812   8.291   9.587   7.235 -0.5898 -0.0988  0.0263
19553SOL    HW160813   8.200   9.572   7.259 -0.6093  0.9189  0.6729
19553SOL    HW260814   8.296   9.681   7.218 -0.1788 -0.4754 -2.3337
19554SOL     OW60815   5.343   7.806   4.511 -0.5723 -0.3735  0.1228
19554SOL    HW160816   5.368   7.825   4.421 -0.9063 -1.1567 -0.1423
19554SOL    HW260817   5.323   7.892   4.549 -1.8713 -0.1465 -0.9852
19555SOL     OW60818   2.655   8.549   4.041 -0.4525  0.0013 -0.3849
19555SOL    HW160819   2.725   8.486   4.030  0.4053  0.7967  0.4005
19555SOL    HW260820   2.634   8.547   4.135 -0.9956  0.2801 -0.4906
19556SOL     OW60821   8.622   1.875   0.769 -0.0327 -0.3089  0.0665
19556SOL    HW160822   8.551   1.925   0.728 -0.8167  1.7015  3.5267
19556SOL    HW260823   8.577   1.820   0.833  1.2300 -2.6382 -0.9281
19557SOL     OW60824   5.338   3.661   7.622 -0.4281 -0.8745 -0.4137
19557SOL    HW160825   5.416   3.612   7.648  0.0984  0.3610  0.4086
19557SOL    HW260826   5.372   3.739   7.577 -1.1009  0.2711  0.9634
19558SOL     OW60827   7.597   4.229   3.235 -0.8204 -0.3484 -0.4917
19558SOL    HW160828   7.629   4.171   3.304 -1.5736 -1.7958 -1.3300
19558SOL    HW260829   7.650   4.309   3.245  0.0189 -1.0408  0.8751
19559SOL     OW60830   3.664   6.938   7.724 -0.1845  0.2492  0.7191
19559SOL    HW160831   3.694   6.941   7.815  1.9663  2.5442  0.0570
19559SOL    HW260832   3.619   7.022   7.711 -1.6031 -0.5939 -0.0274
19560SOL     OW60833   9.563   6.714   4.533  0.2456  0.3670  0.0586
19560SOL    HW160834   9.522   6.762   4.462  0.5039  1.8491  0.8635
19560SOL    HW260835   9.657   6.724   4.518  0.3255  1.5421  1.0862
19561SOL     OW60836   7.102   6.830   5.920 -0.3784 -0.0397  0.2334
19561SOL    HW160837   7.053   6.896   5.969  1.6588  1.7800 -0.0331
19561SOL    HW260838   7.115   6.758   5.983  2.4461  2.3543  2.7130
19562SOL     OW60839   9.594   2.927   5.486 -0.1139  0.1988  0.0812
19562SOL    HW160840   9.563   2.871   5.414  0.1892  1.3594 -0.9993
19562SOL    HW260841   9.551   3.012   5.470  1.2398  0.9509  0.3034
19563SOL     OW60842   4.704   0.997   6.291 -0.8106 -0.0625  0.0671
19563SOL    HW160843   4.659   0.987   6.207  0.4948 -0.7307 -0.5806
19563SOL    HW260844   4.708   0.909   6.326  0.6153 -0.1316 -0.2336
19564SOL     OW60845   8.349   2.419   2.698 -0.0576 -0.6147  0.4805
19564SOL    HW160846   8.272   2.368   2.674 -0.9403  0.2836  1.3147
19564SOL    HW260847   8.369   2.393   2.787  0.0309 -0.1686  0.5950
19565SOL     OW60848   0.831   4.581   8.375 -0.0710 -0.3696  0.0710
19565SOL    HW160849   0.896   4.650   8.387 -2.4132  2.4511 -1.9136
19565SOL    HW260850   0.881   4.506   8.343  2.3506  1.2290 -0.1738
19566SOL     OW60851   7.387   8.037   6.252  0.6948  0.5353 -0.5206
19566SOL    HW160852   7.400   7.962   6.195 -1.5129  0.7492 -1.3878
19566SOL    HW260853   7.325   8.093   6.205  0.1572  1.5664  1.3080
19567SOL     OW60854   8.047   2.892   5.531  0.1690 -0.3995  0.0082
19567SOL    HW160855   8.010   2.813   5.491  0.7001 -0.7575  0.2138
19567SOL    HW260856   8.133   2.902   5.489  0.4616 -0.4130  0.5961
19568SOL     OW60857   9.384   9.437   2.263 -1.1491  0.3503 -0.8925
19568SOL    HW160858   9.369   9.355   2.218 -0.2670 -1.3748  1.7297
19568SOL    HW260859   9.311   9.445   2.324  0.0811  0.1429  0.6693
19569SOL     OW60860   8.671   3.009   4.420 -0.4211  0.2299 -1.0184
19569SOL    HW160861   8.759   3.009   4.383 -0.3943  0.5997 -0.9585
19569SOL    HW260862   8.646   3.102   4.423 -0.1524  0.2802  0.5405
19570SOL     OW60863   4.173   4.200   7.877  0.6723  0.3792  1.2123
19570SOL    HW160864   4.238   4.267   7.852 -0.3252  0.5527 -1.1887
19570SOL    HW260865   4.191   4.127   7.817 -0.4398 -0.1237  1.4816
19571SOL     OW60866   4.030   6.638   1.800 -0.8591  0.2206 -0.3584
19571SOL    HW160867   3.946   6.592   1.802 -0.7321 -0.3838 -3.7009
19571SOL    HW260868   4.026   6.691   1.720  1.8405  0.3849 -0.4685
19572SOL     OW60869   1.939   0.953   5.223  0.2247  0.1110  0.2344
19572SOL    HW160870   1.864   0.992   5.267 -0.4845 -0.6729 -0.2488
19572SOL    HW260871   2.015   0.998   5.260 -0.5651  2.2865 -0.6456
19573SOL     OW60872   7.567   5.289   7.317 -0.2763 -0.0283 -0.2530
19573SOL    HW160873   7.640   5.306   7.376 -0.3484  1.6596 -0.6075
19573SOL    HW260874   7.494   5.264   7.374  0.1111 -0.0344  0.2377
19574SOL     OW60875   3.547   4.162   2.011 -0.2910  0.6432  0.5327
19574SOL    HW160876   3.467   4.210   2.032 -1.1618 -0.9461  1.0070
19574SOL    HW260877   3.570   4.191   1.923 -1.2730  1.2605  0.4631
19575SOL     OW60878   4.343   8.099   0.586  0.0180 -0.1135  0.4942
19575SOL    HW160879   4.304   8.036   0.525  1.9422 -0.9617  0.0657
19575SOL    HW260880   4.295   8.180   0.569 -1.1201 -0.9253 -0.4160
19576SOL     OW60881   5.151   4.079   0.700 -0.4075  0.1018 -0.2321
19576SOL    HW160882   5.224   4.138   0.719 -0.9180  0.0113  2.2543
19576SOL    HW260883   5.192   4.002   0.660  0.6597  0.7359 -0.3793
19577SOL     OW60884   6.259   0.828   3.261 -0.4915 -0.1546 -0.5497
19577SOL    HW160885   6.283   0.735   3.256  1.1866  0.2627 -0.7983
19577SOL    HW260886   6.215   0.837   3.346 -1.2786 -1.2941 -0.8156
19578SOL     OW60887   0.446   5.046   2.135 -0.2618  0.0457 -0.1716
19578SOL    HW160888   0.500   4.991   2.078  0.9375  0.4292  0.5394
19578SOL    HW260889   0.432   5.126   2.085  1.1927  0.5748  0.2217
19579SOL     OW60890   4.900   8.416   9.610  0.6395 -0.1409 -0.6594
19579SOL    HW160891   4.947   8.383   9.687  0.1011  0.7484  0.0634
19579SOL    HW260892   4.933   8.362   9.537  2.0147 -0.2260 -0.0056
19580SOL     OW60893   8.487   0.288   5.157 -0.4638  0.2293  1.0392
19580SOL    HW160894   8.480   0.238   5.076 -2.5284  0.9589  0.6979
19580SOL    HW260895   8.504   0.222   5.225  1.7353 -0.3444  0.0166
19581SOL     OW60896   0.855   9.449   1.851 -0.0805 -0.5715  0.2677
19581SOL    HW160897   0.876   9.387   1.780 -0.8991 -1.0195  0.4078
19581SOL    HW260898   0.760   9.449   1.856 -0.0451 -0.2642  1.1344
19582SOL     OW60899   8.168   4.017   2.540  0.9329 -0.0670 -0.1330
19582SOL    HW160900   8.139   4.074   2.611 -0.0015 -1.0204  0.2789
19582SOL    HW260901   8.230   4.070   2.490 -0.6902  1.6750 -0.3922
19583SOL     OW60902   8.373   1.247   0.753 -0.2083 -0.0453 -0.2458
19583SOL    HW160903   8.420   1.292   0.683 -1.7104  0.8143 -0.7519
19583SOL    HW260904   8.364   1.157   0.722 -0.5311  0.2370 -0.9979
19584SOL     OW60905   5.361   8.420   7.313  0.2843  0.1142  0.0194
19584SOL    HW160906   5.419   8.355   7.274 -2.4858 -2.2969 -0.4331
19584SOL    HW260907   5.326   8.469   7.239 -0.6685 -0.6385 -0.0463
19585SOL     OW60908   0.112   2.047   6.699  0.1038  0.1498  0.1448
19585SOL    HW160909   0.050   2.041   6.772  0.3846 -0.3380  0.3482
19585SOL    HW260910   0.110   2.139   6.674 -1.1842  0.0301 -0.2711
19586SOL     OW60911   0.733   9.508   3.641 -0.1955 -0.0555  0.5382
19586SOL    HW160912   0.773   9.461   3.715  0.7978  0.7993  0.5758
19586SOL    HW260913   0.642   9.478   3.640 -0.1083 -0.4421  1.8149
19587SOL     OW60914   4.088   1.625   8.309 -0.1854 -0.2250  0.3472
19587SOL    HW160915   4.086   1.696   8.245 -1.5983  0.7692  1.4504
19587SOL    HW260916   4.077   1.546   8.256 -0.1188  0.4704 -0.7482
19588SOL     OW60917   7.789   6.866   8.020 -0.1045 -0.0519  0.2165
19588SOL    HW160918   7.729   6.899   8.087  1.4472 -1.2684  2.3213
19588SOL    HW260919   7.808   6.943   7.965  0.0415  1.5168  2.3306
19589SOL     OW60920   0.522   4.109   2.659 -0.1203 -0.2580 -0.3567
19589SOL    HW160921   0.445   4.122   2.715 -1.5819 -1.5446 -1.9770
19589SOL    HW260922   0.537   4.015   2.661 -1.1727 -0.5712 -3.2671
19590SOL     OW60923   2.102   4.720   3.420  0.7350  0.3363 -0.2894
19590SOL    HW160924   2.080   4.633   3.388  0.3508  0.4604 -0.3695
19590SOL    HW260925   2.154   4.705   3.499  0.4953  0.0391 -0.1887
19591SOL     OW60926   2.340   8.227   6.124 -0.2527 -0.1432  0.6025
19591SOL    HW160927   2.282   8.180   6.184 -2.5813 -0.1600 -1.5000
19591SOL    HW260928   2.284   8.293   6.083  1.6006  0.8301 -0.4832
19592SOL     OW60929   4.962   5.971   3.021 -0.2036  0.2169 -0.6524
19592SOL    HW160930   5.032   6.024   3.060 -0.0938  0.2187 -0.8497
19592SOL    HW260931   4.980   5.974   2.927  0.4107 -1.0335 -0.5945
19593SOL     OW60932   8.252   2.421   6.837 -0.1950 -0.6747 -0.4365
19593SOL    HW160933   8.265   2.370   6.916  0.0768 -0.3594 -0.2752
19593SOL    HW260934   8.208   2.362   6.777 -0.1621 -0.9985 -0.1419
19594SOL     OW60935   1.103   9.198   0.379 -0.0023  0.3215  0.4689
19594SOL    HW160936   1.193   9.206   0.409  0.2456  1.5286 -0.5364
19594SOL    HW260937   1.063   9.282   0.399 -1.1644 -0.4529  1.6094
19595SOL     OW60938   2.143   4.557   7.266 -0.6238  1.0309 -0.8510
19595SOL    HW160939   2.179   4.481   7.221 -1.9931 -0.1398 -0.0393
19595SOL    HW260940   2.114   4.616   7.195  0.4501  0.8157 -1.4811
19596SOL     OW60941   6.107   5.927   8.529  0.2414  0.4325  0.2002
19596SOL    HW160942   6.045   5.905   8.459 -0.4996 -1.3309  1.3407
19596SOL    HW260943   6.067   6.002   8.573  0.0375  0.7045 -0.4321
19597SOL     OW60944   4.284   5.287   5.178 -0.0747  0.1490 -0.1091
19597SOL    HW160945   4.323   5.358   5.229  1.2932 -0.6018 -0.0300
19597SOL    HW260946   4.349   5.217   5.183  0.5350  0.2815 -3.5129
19598SOL     OW60947   6.593   5.820   2.981  0.6268  0.4549  0.4802
19598SOL    HW160948   6.518   5.777   2.939  0.6615 -0.0214  0.8894
19598SOL    HW260949   6.624   5.884   2.916  0.1471  0.3370  0.1311
19599SOL     OW60950   0.751   8.714   8.141  0.0450  0.4469 -0.0964
19599SOL    HW160951   0.695   8.789   8.161 -0.4252  0.4061 -1.2104
19599SOL    HW260952   0.697   8.658   8.086  1.3844  0.7379 -1.7834
19600SOL     OW60953   1.340   6.983   0.869 -0.2371 -0.6109 -0.0165
19600SOL    HW160954   1.302   6.917   0.927 -2.9159 -0.5099 -1.4852
19600SOL    HW260955   1.393   6.932   0.807 -1.8556 -1.3813 -0.8183
19601SOL     OW60956   9.251   2.574   3.125  0.0486  0.2755  0.2412
19601SOL    HW160957   9.346   2.591   3.119  0.2578 -0.8259  0.3136
19601SOL    HW260958   9.228   2.604   3.213  0.5536 -0.4631  0.6333
19602SOL     OW60959   7.723   4.880   8.352  0.2449  0.0187 -0.3727
19602SOL    HW160960   7.684   4.812   8.297  1.9163 -1.2772 -0.0661
19602SOL    HW260961   7.751   4.833   8.431  0.1457  1.3651  0.4972
19603SOL     OW60962   4.840   5.244   3.392  0.3493  0.3599  0.1305
19603SOL    HW160963   4.812   5.215   3.305  0.2347  0.0108  0.2829
19603SOL    HW260964   4.763   5.285   3.431  0.7710  1.8086 -0.4694
19604SOL     OW60965   5.546   0.469   7.236  0.6342 -0.2687 -0.0959
19604SOL    HW160966   5.584   0.399   7.183 -1.0430 -1.8900  0.7058
19604SOL    HW260967   5.491   0.423   7.300 -0.4826  1.8002  0.5253
19605SOL     OW60968   2.351   2.228   2.723  0.4011 -0.0477  0.8603
19605SOL    HW160969   2.298   2.149   2.739  0.5628 -0.2564  0.3801
19605SOL    HW260970   2.373   2.260   2.811  1.2169 -1.1381  1.0749
19606SOL     OW60971   6.413   8.366   0.463 -0.3839  0.1997  0.2333
19606SOL    HW160972   6.390   8.277   0.489 -1.8688  0.1923 -1.0090
19606SOL    HW260973   6.463   8.356   0.382 -0.1103  0.4855  0.3612
19607SOL     OW60974   3.265   5.917   1.600  0.2724  0.4102 -0.8668
19607SOL    HW160975   3.348   5.878   1.630  0.8533  0.7695 -1.9397
19607SOL    HW260976   3.204   5.844   1.598  0.6566  0.0639 -0.3994
19608SOL     OW60977   8.076   7.177   5.112 -0.4551  0.8053 -0.4091
19608SOL    HW160978   8.149   7.234   5.089 -1.7280  2.2052 -1.1369
19608SOL    HW260979   8.021   7.175   5.034 -0.8651 -0.7876 -0.1203
19609SOL     OW60980   2.982   8.341   2.800  0.0255  0.2540  0.6681
19609SOL    HW160981   2.925   8.302   2.866 -0.6832 -1.2591 -0.7494
19609SOL    HW260982   2.928   8.345   2.721  0.7501  2.2798  0.2139
19610SOL     OW60983   1.834   6.861   6.505  0.2773 -0.1791  0.4282
19610SOL    HW160984   1.900   6.902   6.449 -1.0312  0.7605 -0.4935
19610SOL    HW260985   1.866   6.875   6.594  1.8354 -0.6979 -0.0208
19611SOL     OW60986   2.233   1.828   1.908  0.2961  0.2807  1.1309
19611SOL    HW160987   2.195   1.894   1.850 -0.4418 -0.6075  0.5830
19611SOL    HW260988   2.263   1.878   1.984 -0.1692  1.2606  0.6881
19612SOL     OW60989   8.346   0.525   7.638 -0.2969  0.0003 -0.1990
19612SOL    HW160990   8.379   0.467   7.570  1.9479  1.2650 -0.3024
19612SOL    HW260991   8.421   0.537   7.697 -1.9552 -0.4785  2.1227
19613SOL     OW60992   2.510   8.846   4.693  0.7557 -0.2469  0.0659
19613SOL    HW160993   2.542   8.830   4.604  1.3207  1.5467 -0.1079
19613SOL    HW260994   2.585   8.886   4.738  0.0573  0.1135  0.9251
19614SOL     OW60995   6.948   0.487   1.711  0.1913  0.8621  0.5499
19614SOL    HW160996   7.004   0.429   1.762  0.2070  0.9906  0.6780
19614SOL    HW260997   7.000   0.512   1.635 -0.1935 -0.1573 -0.0686
19615SOL     OW60998   2.103   1.154   6.205  0.2175  0.6500 -0.3723
19615SOL    HW160999   2.097   1.094   6.130  1.5921  0.6609 -0.5185
19615SOL    HW261000   2.028   1.131   6.260  1.4027 -2.1531  0.2512
19616SOL     OW61001   5.679   8.323   8.740 -0.0461  0.1210 -0.3592
19616SOL    HW161002   5.769   8.302   8.714  0.4158 -0.0752  1.3189
19616SOL    HW261003   5.672   8.418   8.730 -0.0184  0.0222 -1.5143
19617SOL     OW61004   1.527   7.849   1.413  0.2897 -0.3172  0.8830
19617SOL    HW161005   1.473   7.914   1.367  0.2675  0.3314  1.8006
19617SOL    HW261006   1.617   7.869   1.387  0.4100  0.9209  2.1279
19618SOL     OW61007   9.269   5.983   6.405 -0.1892  0.0660 -0.1359
19618SOL    HW161008   9.276   6.069   6.364  1.4835  0.3641  0.6943
19618SOL    HW261009   9.210   5.997   6.479  0.0665  0.5018 -0.0121
19619SOL     OW61010   2.475   0.030   7.283  0.3873  0.2188  0.1038
19619SOL    HW161011   2.551  -0.022   7.310  0.1816 -0.3086 -0.3156
19619SOL    HW261012   2.512   0.097   7.224  0.3462 -0.9803 -1.3335
19620SOL     OW61013   7.031   7.808   8.865 -0.6395 -0.1606 -0.1563
19620SOL    HW161014   6.963   7.873   8.876  0.7209  1.1237  1.0187
19620SOL    HW261015   7.008   7.737   8.925 -2.0939 -0.8126 -1.4077
19621SOL     OW61016   7.202   4.092   1.508  0.2760 -0.1428  0.3129
19621SOL    HW161017   7.136   4.101   1.440  0.1242  0.7631  0.5668
19621SOL    HW261018   7.258   4.169   1.497 -0.2586  0.4815  1.7499
19622SOL     OW61019   3.008   9.540   7.475 -0.5151 -0.0646  0.4147
19622SOL    HW161020   2.945   9.470   7.460 -1.4673  0.0589  3.1712
19622SOL    HW261021   3.043   9.522   7.563  0.1701  2.1774  0.6609
19623SOL     OW61022   4.312   7.776   7.223 -0.0003 -0.0948 -0.0091
19623SOL    HW161023   4.262   7.806   7.147  0.4342  0.8402  0.0559
19623SOL    HW261024   4.297   7.682   7.226  0.3035 -0.2173 -1.5068
19624SOL     OW61025   0.352   8.514   1.968  0.3304  0.3976 -0.1352
19624SOL    HW161026   0.382   8.561   2.046  1.0862  1.5855 -1.0976
19624SOL    HW261027   0.315   8.583   1.912  1.0133 -0.2110 -1.3802
19625SOL     OW61028   9.323   2.511   2.021 -0.0136  0.0888  0.2782
19625SOL    HW161029   9.371   2.471   2.093 -0.9184 -0.6747  0.4767
19625SOL    HW261030   9.369   2.481   1.942  0.3594  0.0913  0.4909
19626SOL     OW61031   0.917   7.078   1.946  0.4294 -0.3451  0.3323
19626SOL    HW161032   0.889   7.119   2.028  1.3117 -0.1654  0.5437
19626SOL    HW261033   1.010   7.099   1.938  0.5533 -1.0745 -0.2948
19627SOL     OW61034   1.768   1.167   8.184  0.6011 -0.0992 -0.2268
19627SOL    HW161035   1.731   1.166   8.273 -0.8903  0.8481 -0.7962
19627SOL    HW261036   1.841   1.227   8.189  0.1972  0.3620  0.2485
19628SOL     OW61037   7.172   6.647   1.946 -0.1402  0.6823  0.4745
19628SOL    HW161038   7.161   6.559   1.981 -0.1081  0.0497 -1.0154
19628SOL    HW261039   7.093   6.663   1.895  0.9442  0.4541 -1.3627
19629SOL     OW61040   1.220   4.183   8.053  0.0587  0.1450 -0.4295
19629SOL    HW161041   1.220   4.089   8.072 -1.8119  0.0034 -0.9396
19629SOL    HW261042   1.292   4.195   7.992  2.1209 -0.4389  1.7492
19630SOL     OW61043   2.465   4.647   3.608  0.0521  0.1209 -0.4242
19630SOL    HW161044   2.371   4.640   3.628 -0.2224 -0.6234 -1.7982
19630SOL    HW261045   2.496   4.718   3.664 -1.1129 -0.2732  0.7957
19631SOL     OW61046   3.016   2.739   9.454  0.4777 -0.0034  0.0500
19631SOL    HW161047   3.034   2.762   9.545  0.8790 -1.3662  0.3393
19631SOL    HW261048   2.975   2.653   9.459  1.3862 -0.5191 -1.1187
19632SOL     OW61049   9.617   2.828   7.959  0.2190  0.3257 -0.1357
19632SOL    HW161050   9.551   2.878   7.912 -0.4177 -0.8999 -0.6032
19632SOL    HW261051   9.575   2.744   7.978  1.9755 -0.9628 -1.4774
19633SOL     OW61052   2.683   5.250   9.583  0.0345 -0.3592 -0.6171
19633SOL    HW161053   2.610   5.200   9.547 -3.3412  2.1321  2.0950
19633SOL    HW261054   2.682   5.232   9.676  2.0674  0.8295 -0.2895
19634SOL     OW61055   1.473   7.803   8.524 -0.4618  0.0519 -0.5492
19634SOL    HW161056   1.490   7.746   8.598  0.1123 -2.1038 -2.2477
19634SOL    HW261057   1.523   7.883   8.543  0.9978 -1.0886  0.5895
19635SOL     OW61058   7.338   4.327   1.257  0.1760  0.8703 -0.3008
19635SOL    HW161059   7.393   4.356   1.330 -0.2525 -0.1727  0.4648
19635SOL    HW261060   7.269   4.392   1.252 -0.7442  0.0925  1.3516
19636SOL     OW61061   6.526   7.715   5.330 -0.7186 -0.5511 -0.0028
19636SOL    HW161062   6.465   7.762   5.273 -1.4812  0.0629  1.2782
19636SOL    HW261063   6.499   7.623   5.323  0.7821 -0.8871 -2.5177
19637SOL     OW61064   4.489   3.362   8.312  0.0559 -0.2511  0.4796
19637SOL    HW161065   4.521   3.396   8.228 -0.6793 -1.0211 -0.1372
19637SOL    HW261066   4.394   3.364   8.303 -0.0412  0.1991  1.5311
19638SOL     OW61067   8.007   2.742   8.302 -0.3637  0.2265 -0.2727
19638SOL    HW161068   7.915   2.747   8.277 -1.1126 -2.6749  1.4008
19638SOL    HW261069   8.016   2.800   8.377 -1.5854 -1.4153  1.2292
19639SOL     OW61070   8.558   8.073   1.773 -0.4178 -0.2156  0.2012
19639SOL    HW161071   8.464   8.057   1.783 -0.5400  0.7294  0.7412
19639SOL    HW261072   8.565   8.169   1.765  0.4059 -0.3472 -0.9123
19640SOL     OW61073   5.250   4.782   2.757  0.0542 -0.0811 -0.7856
19640SOL    HW161074   5.332   4.828   2.772  0.4552 -0.4177 -1.8875
19640SOL    HW261075   5.264   4.695   2.796  0.6089 -0.4936 -1.8656
19641SOL     OW61076   5.764   1.816   7.712 -0.0842  0.0782  0.6508
19641SOL    HW161077   5.814   1.889   7.746  1.9626 -1.2392  0.6189
19641SOL    HW261078   5.710   1.788   7.786 -0.7398  1.4354  0.7221
19642SOL     OW61079   0.626   1.511   7.669 -0.1248 -0.0892 -0.2543
19642SOL    HW161080   0.633   1.460   7.749  0.3140  0.8317  0.3207
19642SOL    HW261081   0.716   1.539   7.651 -0.5223  1.7233  0.3185
19643SOL     OW61082   8.430   8.134   4.958 -0.3915 -0.5474 -0.0083
19643SOL    HW161083   8.490   8.203   4.988 -0.4614 -1.1971  1.7790
19643SOL    HW261084   8.468   8.053   4.992 -0.8238 -1.2993 -1.2525
19644SOL     OW61085   1.422   4.008   9.138  0.4194  0.0682  0.3520
19644SOL    HW161086   1.420   3.912   9.138 -2.0621  0.0587  1.2381
19644SOL    HW261087   1.347   4.033   9.085  1.2180  1.5555 -0.1125
19645SOL     OW61088   1.002   0.104   5.519 -0.1193  0.4457 -1.2108
19645SOL    HW161089   1.025   0.105   5.612 -1.3566  0.7595 -0.8896
19645SOL    HW261090   0.962   0.189   5.503 -3.2300 -0.8602 -1.1052
19646SOL     OW61091   4.445   5.252   0.963  0.0382  0.2854  0.2740
19646SOL    HW161092   4.440   5.188   0.892  0.8624 -1.1001  1.4100
19646SOL    HW261093   4.507   5.318   0.932  0.5110 -0.3816 -0.2275
19647SOL     OW61094   9.049   0.102   0.744 -0.1131 -0.3636 -0.4374
19647SOL    HW161095   9.143   0.113   0.730 -0.1931 -0.6532 -1.2729
19647SOL    HW261096   9.031   0.013   0.713 -0.8269  0.0280 -1.1759
19648SOL     OW61097   4.661   3.985   0.065 -0.3116 -0.3631  0.1923
19648SOL    HW161098   4.667   4.066   0.115 -1.9475 -0.9091  1.3560
19648SOL    HW261099   4.751   3.952   0.063  0.0345  0.3907  1.5868
19649SOL     OW61100   6.465   6.686   6.605  0.1582  0.1986 -0.3254
19649SOL    HW161101   6.439   6.599   6.635  1.1768 -0.8286 -2.2522
19649SOL    HW261102   6.404   6.706   6.534  0.7791  0.4302 -0.8082
19650SOL     OW61103   1.098   3.984   1.939 -0.6845 -0.7888 -0.1818
19650SOL    HW161104   1.113   3.974   1.845  1.2939 -1.5824  0.1584
19650SOL    HW261105   1.097   3.894   1.973 -2.7959 -0.5921  0.4108
19651SOL     OW61106   0.124   4.282   8.033  0.4675 -0.3512 -0.0989
19651SOL    HW161107   0.174   4.201   8.026 -0.1000 -0.6355 -0.9931
19651SOL    HW261108   0.172   4.345   7.979 -0.7691 -0.9585 -1.9723
19652SOL     OW61109   2.812   7.695   0.421 -0.0120 -0.0953  0.1372
19652SOL    HW161110   2.814   7.644   0.340  2.3581  0.8068 -0.4402
19652SOL    HW261111   2.878   7.655   0.477 -0.6202  0.1708  1.0622
19653SOL     OW61112   7.488   1.516   6.103 -0.2322  0.2042 -0.0385
19653SOL    HW161113   7.482   1.449   6.172  0.3332  0.3915  0.2018
19653SOL    HW261114   7.505   1.597   6.150 -1.0752  0.5486 -0.3225
19654SOL     OW61115   1.267   0.135   8.506  0.1562  0.2556  0.4169
19654SOL    HW161116   1.352   0.122   8.547 -0.6131 -1.8951  1.4969
19654SOL    HW261117   1.283   0.127   8.412  0.9553 -1.6313  0.6780
19655SOL     OW61118   2.242   3.752   9.199  0.0501  0.3889 -0.0371
19655SOL    HW161119   2.194   3.711   9.128  0.5550  1.0695 -0.7880
19655SOL    HW261120   2.248   3.844   9.174 -0.1710  0.7404  1.1169
19656SOL     OW61121   1.395   9.247   3.953 -0.1243 -0.2631 -0.7996
19656SOL    HW161122   1.475   9.223   3.999 -0.5146 -0.1823 -0.0697
19656SOL    HW261123   1.423   9.311   3.888  0.4264 -0.3588 -0.6636
19657SOL     OW61124   5.876   5.897   4.018  0.6155 -0.5891  0.1188
19657SOL    HW161125   5.829   5.980   4.031 -0.3036 -1.1828  0.6599
19657SOL    HW261126   5.854   5.872   3.928 -1.2086 -1.5026  0.7606
19658SOL     OW61127   0.920   3.275   8.029 -0.9892 -0.3402  0.3794
19658SOL    HW161128   0.853   3.207   8.025 -2.2004  0.8181 -0.0795
19658SOL    HW261129   0.984   3.250   7.962 -3.5621  1.0584 -2.9134
19659SOL     OW61130   5.557   4.966   6.148  0.1385  0.6029 -0.0975
19659SOL    HW161131   5.585   4.976   6.239  2.0916  2.1872 -0.7973
19659SOL    HW261132   5.553   4.871   6.135  2.2262  0.2954  1.0182
19660SOL     OW61133   2.078   1.227   9.326  0.3115  0.4367  0.1362
19660SOL    HW161134   2.110   1.317   9.326  0.0697  0.5227 -0.0711
19660SOL    HW261135   2.151   1.176   9.362  0.3419  0.7518  0.5354
19661SOL     OW61136   7.634   5.027   4.760 -0.3043  0.0898 -0.4445
19661SOL    HW161137   7.647   5.076   4.679 -2.2530  1.9633  0.2846
19661SOL    HW261138   7.658   5.088   4.830  4.3596 -2.4213  0.5572
19662SOL     OW61139   6.194   2.961   3.953  0.3801 -0.1998  0.1719
19662SOL    HW161140   6.129   2.893   3.969 -0.5326  1.1155  2.5904
19662SOL    HW261141   6.277   2.923   3.983 -0.0129 -0.4852  0.9191
19663SOL     OW61142   0.447   0.286   6.192  0.2826 -0.0876 -0.5209
19663SOL    HW161143   0.384   0.352   6.162  0.7770  0.2918 -0.7440
19663SOL    HW261144   0.439   0.287   6.288  1.1224  1.1609 -0.4384
19664SOL     OW61145   5.160   5.053   9.603  0.4503  0.1620  0.0657
19664SOL    HW161146   5.247   5.042   9.564  0.4261 -0.1055  0.0838
19664SOL    HW261147   5.164   5.003   9.684  0.1090 -0.2900 -0.1948
19665SOL     OW61148   7.772   6.014   3.608 -0.0826 -0.0100 -0.3558
19665SOL    HW161149   7.857   6.056   3.619 -1.7335  3.4804  0.5318
19665SOL    HW261150   7.773   5.940   3.668  2.7746 -1.0181 -1.4883
19666SOL     OW61151   7.517   7.313   9.245 -0.1200 -0.3604  0.7908
19666SOL    HW161152   7.457   7.381   9.277  0.7754  1.4270 -1.0678
19666SOL    HW261153   7.461   7.237   9.232 -1.4356  0.3907  1.7366
19667SOL     OW61154   4.908   6.065   0.184 -0.5806 -1.0932 -0.0581
19667SOL    HW161155   4.931   6.019   0.265  0.4760  0.2043  0.4108
19667SOL    HW261156   4.813   6.070   0.185 -0.5621 -0.5490  1.4317
19668SOL     OW61157   0.320   3.216   7.313 -0.0463  0.0373  0.0461
19668SOL    HW161158   0.294   3.151   7.378  1.1779  0.9098  1.4699
19668SOL    HW261159   0.240   3.234   7.263 -0.6179 -1.8761  0.1909
19669SOL     OW61160   8.872   3.095   4.032 -0.1042  0.1604 -0.1209
19669SOL    HW161161   8.805   3.071   3.967 -0.4872 -0.9959  0.6688
19669SOL    HW261162   8.954   3.092   3.983 -0.3314 -1.1697 -0.4728
19670SOL     OW61163   1.332   7.370   7.127  0.0146 -0.1412  0.2802
19670SOL    HW161164   1.288   7.441   7.081 -0.1343 -1.0703 -1.0610
19670SOL    HW261165   1.420   7.405   7.146  0.0893  0.2545 -0.7442
19671SOL     OW61166   9.336   8.895   9.039 -0.3862  0.3286  0.1933
19671SOL    HW161167   9.426   8.927   9.043 -0.8117  1.5516  0.6454
19671SOL    HW261168   9.339   8.819   8.981  0.8499  0.6460 -0.1725
19672SOL     OW61169   7.321   9.473   9.440 -0.4409  0.0097 -0.2068
19672SOL    HW161170   7.226   9.477   9.445 -0.3718  0.7853  1.1027
19672SOL    HW261171   7.344   9.523   9.361 -1.0475  1.6175  0.5863
19673SOL     OW61172   0.877   7.940   6.663  0.0265  0.1994 -0.2492
19673SOL    HW161173   0.810   7.871   6.667  0.8441 -0.6545 -0.8104
19673SOL    HW261174   0.913   7.943   6.752  0.1312 -0.2659 -0.2695
19674SOL     OW61175   8.211   0.832   4.624  0.0805  0.6597 -0.2209
19674SOL    HW161176   8.239   0.827   4.715  0.0575  0.2835 -0.2327
19674SOL    HW261177   8.244   0.917   4.594 -0.0586  0.8607  0.1838
19675SOL     OW61178   8.973   1.495   8.880  0.0264 -0.3636 -0.3610
19675SOL    HW161179   9.051   1.466   8.832 -0.8127 -2.3144 -0.6339
19675SOL    HW261180   8.904   1.434   8.853 -1.0911  0.0155  1.4724
19676SOL     OW61181   2.308   7.124   2.926 -0.5800 -0.0325 -0.1168
19676SOL    HW161182   2.239   7.111   2.990 -0.3869 -0.1676  0.0655
19676SOL    HW261183   2.326   7.218   2.928 -0.1124 -0.1290  0.5096
19677SOL     OW61184   8.042   4.738   7.376 -0.1325  0.5004  0.5655
19677SOL    HW161185   8.006   4.677   7.441  1.6898  0.1565  1.3046
19677SOL    HW261186   8.129   4.703   7.356 -1.1847 -0.3989 -3.3772
19678SOL     OW61187   0.345   7.257   5.451 -0.0066  0.5804  0.2189
19678SOL    HW161188   0.333   7.211   5.535  0.4783  0.2789  0.1274
19678SOL    HW261189   0.257   7.260   5.413 -0.0484 -0.2878  0.2274
19679SOL     OW61190   2.461   6.488   9.012  0.3470 -0.2571 -0.7498
19679SOL    HW161191   2.386   6.509   8.957 -0.1287 -0.7702 -0.3071
19679SOL    HW261192   2.537   6.514   8.960 -0.1266  0.1704 -1.2436
19680SOL     OW61193   5.687   2.456   7.881  0.0707  0.5537  0.7842
19680SOL    HW161194   5.745   2.419   7.947  0.5374 -1.5104 -0.6827
19680SOL    HW261195   5.632   2.383   7.853 -1.0034  1.6849 -0.1839
19681SOL     OW61196   3.088   1.498   0.356 -0.3329  0.1784  0.5288
19681SOL    HW161197   3.069   1.588   0.381  1.5902  0.8406 -0.2393
19681SOL    HW261198   3.062   1.493   0.263  1.7772  0.7100 -0.1463
19682SOL     OW61199   6.574   2.573   6.988 -1.2328  0.4254  0.2585
19682SOL    HW161200   6.545   2.574   6.897  0.9754  0.5848 -0.5187
19682SOL    HW261201   6.508   2.623   7.035 -1.8721  1.2812 -1.4579
19683SOL     OW61202   7.616   6.087   5.831  0.6604 -0.1039 -0.0339
19683SOL    HW161203   7.699   6.073   5.786  0.9445 -0.9805  0.7127
19683SOL    HW261204   7.554   6.031   5.784  0.3683  0.9050 -0.8809
19684SOL     OW61205   2.451   0.122   5.523  0.6775  0.2264  0.1150
19684SOL    HW161206   2.439   0.069   5.444  0.3367  0.9639 -0.3375
19684SOL    HW261207   2.542   0.106   5.549  0.7426 -0.1487 -0.3318
19685SOL     OW61208   4.123   1.532   2.404 -0.3335 -0.1052  0.0770
19685SOL    HW161209   4.039   1.523   2.449 -0.3157 -0.1306  0.1048
19685SOL    HW261210   4.103   1.584   2.326 -0.3940 -0.1941  0.0324
19686SOL     OW61211   4.924   0.201   6.896  0.4262  0.0296  0.0468
19686SOL    HW161212   4.897   0.197   6.987  0.0965  1.5687  0.0273
19686SOL    HW261213   4.914   0.292   6.871 -0.4421 -0.5326 -1.8233
19687SOL     OW61214   1.493   2.455   2.550 -0.1537  0.4971 -0.3718
19687SOL    HW161215   1.475   2.483   2.460  1.3415 -2.2110 -1.6239
19687SOL    HW261216   1.588   2.463   2.558 -0.0846 -0.8158  0.3849
19688SOL     OW61217   7.685   4.277   8.380  0.5293  0.4535  1.0576
19688SOL    HW161218   7.656   4.310   8.295 -1.3654 -0.2849  1.3862
19688SOL    HW261219   7.732   4.196   8.360  0.8028  0.7059  0.6630
19689SOL     OW61220   5.681   1.621   5.636  0.2190 -0.2881 -0.1635
19689SOL    HW161221   5.666   1.713   5.661 -0.3472  0.1559 -2.0083
19689SOL    HW261222   5.755   1.594   5.690  0.7800  1.4416  0.0148
19690SOL     OW61223   4.824   0.292   0.280  0.5630 -0.6730  0.1241
19690SOL    HW161224   4.908   0.287   0.235  1.3465  0.1028  1.4707
19690SOL    HW261225   4.791   0.379   0.259 -0.1407 -1.1233 -0.7472
19691SOL     OW61226   3.169   6.125   7.611 -0.0288 -0.0208  0.1382
19691SOL    HW161227   3.101   6.072   7.570  0.4024  0.8480 -1.8004
19691SOL    HW261228   3.122   6.180   7.673 -0.8132 -0.8245  0.2822
19692SOL     OW61229   0.411   1.729   7.675  0.5895  0.3763  0.1103
19692SOL    HW161230   0.468   1.652   7.675 -2.2082 -1.8740  0.8653
19692SOL    HW261231   0.409   1.757   7.767  1.0600  0.9340 -0.0463
19693SOL     OW61232   8.358   3.687   5.064  0.1167  0.0452 -0.5978
19693SOL    HW161233   8.363   3.762   5.124  1.7002  0.7113 -1.5136
19693SOL    HW261234   8.389   3.721   4.981  1.2341 -1.7206 -0.9559
19694SOL     OW61235   0.065   4.529   6.085 -0.1514  0.1540 -0.5423
19694SOL    HW161236   0.088   4.514   5.993  0.4630  1.0148 -0.5405
19694SOL    HW261237   0.039   4.621   6.088  1.0702  0.4817  0.3799
19695SOL     OW61238   7.480   6.434   4.291 -0.0130 -0.2456 -0.2182
19695SOL    HW161239   7.408   6.403   4.346 -0.6181 -0.5184 -1.1378
19695SOL    HW261240   7.553   6.376   4.311  0.1106  0.3307  1.0747
19696SOL     OW61241   0.588   2.767   1.092  0.5149 -0.4673  0.2152
19696SOL    HW161242   0.569   2.825   1.165  0.8288 -0.4428  0.2785
19696SOL    HW261243   0.515   2.779   1.032  1.4917  1.4025 -0.6608
19697SOL     OW61244   3.054   0.039   2.364  0.4279 -0.2149  0.4445
19697SOL    HW161245   3.120   0.076   2.422 -0.1047  0.4212  0.6676
19697SOL    HW261246   2.972   0.046   2.413 -0.0406  0.3696 -0.3827
19698SOL     OW61247   2.137   0.001   8.936 -0.1167  0.4716  0.9405
19698SOL    HW161248   2.221   0.046   8.928 -0.0852  0.2042 -0.4113
19698SOL    HW261249   2.138  -0.065   8.867 -0.3624 -1.3323  2.5880
19699SOL     OW61250   7.209   3.416   8.389  0.5938  0.2056  0.8262
19699SOL    HW161251   7.294   3.440   8.425  0.9541  0.4453 -0.1437
19699SOL    HW261252   7.163   3.499   8.378  1.6665  0.5455 -2.0926
19700SOL     OW61253   5.791   3.686   3.974 -0.4762  0.3021  0.3552
19700SOL    HW161254   5.841   3.743   4.032 -0.7868  0.6623  0.2779
19700SOL    HW261255   5.827   3.599   3.988 -0.2952  0.4467  0.8093
19701SOL     OW61256   3.790   8.415   7.366 -0.0641  0.6809 -0.0381
19701SOL    HW161257   3.717   8.423   7.428  0.3188  0.7112  0.4127
19701SOL    HW261258   3.866   8.395   7.421 -0.0415 -1.1281 -0.6628
19702SOL     OW61259   0.856   1.138   6.288  0.1640  0.2289 -0.6593
19702SOL    HW161260   0.844   1.069   6.354  1.7193  1.1247  0.6512
19702SOL    HW261261   0.902   1.095   6.216 -0.3872 -0.4770 -0.6019
19703SOL     OW61262   3.424   4.713   7.663  0.4081 -0.1511  0.2900
19703SOL    HW161263   3.451   4.710   7.754  1.6880  0.8102 -0.0248
19703SOL    HW261264   3.463   4.794   7.629 -1.4966  0.4239 -0.6707
19704SOL     OW61265   5.833   7.854   1.556 -0.1279  0.4022 -0.0720
19704SOL    HW161266   5.754   7.800   1.567 -0.0090 -0.0915 -1.4137
19704SOL    HW261267   5.813   7.936   1.602 -1.1461  0.0157  0.2004
19705SOL     OW61268   1.097   5.909   4.071 -0.2185 -0.3089  0.2219
19705SOL    HW161269   1.095   5.936   3.979  0.3015  2.5344  0.9327
19705SOL    HW261270   1.005   5.904   4.097 -0.3484 -0.0592 -0.1944
19706SOL     OW61271   7.003   2.270   4.094  0.6806 -0.3012 -0.0202
19706SOL    HW161272   7.044   2.184   4.098 -1.0372 -1.1437 -0.0657
19706SOL    HW261273   6.915   2.257   4.130  0.2428  1.3412 -0.4179
19707SOL     OW61274   8.710   4.804   8.067  0.1417 -0.7538  0.2881
19707SOL    HW161275   8.743   4.714   8.062 -0.3294 -0.8781 -0.7459
19707SOL    HW261276   8.679   4.813   8.157  1.5258 -1.1416  0.8402
19708SOL     OW61277   8.037   4.777   4.314 -0.5457 -0.2744  0.1178
19708SOL    HW161278   8.018   4.710   4.381 -1.1535 -0.4093 -0.1823
19708SOL    HW261279   8.099   4.836   4.357  1.9291 -2.3176 -0.3781
19709SOL     OW61280   4.823   6.711   2.373  0.1948 -0.5901  0.1282
19709SOL    HW161281   4.789   6.800   2.371 -0.0223 -0.6803 -0.7512
19709SOL    HW261282   4.908   6.717   2.329 -0.8974 -1.2185 -2.2391
19710SOL     OW61283   7.625   7.158   8.804  0.4274 -0.4508  0.6660
19710SOL    HW161284   7.540   7.171   8.845  0.8589 -0.1882  1.4988
19710SOL    HW261285   7.634   7.231   8.743 -0.5656 -1.2851 -0.5180
19711SOL     OW61286   2.154   0.461   6.680  0.0272 -0.4629  0.5464
19711SOL    HW161287   2.167   0.548   6.644  0.5532 -0.8491 -0.2274
19711SOL    HW261288   2.059   0.449   6.681  0.0098 -0.9891 -2.1095
19712SOL     OW61289   6.954   8.335   8.771  0.2558 -0.4675 -0.0317
19712SOL    HW161290   6.903   8.254   8.767 -0.2657 -0.2030  1.0417
19712SOL    HW261291   7.031   8.313   8.824 -0.6993  0.1402  1.6754
19713SOL     OW61292   0.718   6.873   5.555  0.2590 -0.5615  0.8331
19713SOL    HW161293   0.772   6.904   5.482  0.5670  1.5336  1.8894
19713SOL    HW261294   0.764   6.796   5.588  0.8294 -0.7333 -0.3261
19714SOL     OW61295   3.777   7.359   4.141  0.4238  0.1353 -1.2591
19714SOL    HW161296   3.775   7.264   4.147  0.7166  0.2082  0.4580
19714SOL    HW261297   3.816   7.377   4.056 -0.4961 -1.2683 -2.0134
19715SOL     OW61298   4.726   4.220   0.641  0.2737  0.5109 -0.0443
19715SOL    HW161299   4.660   4.283   0.611 -2.1602 -2.2520 -0.9541
19715SOL    HW261300   4.784   4.208   0.565 -1.6166 -1.1578 -1.3221
19716SOL     OW61301   4.164   6.727   4.101  0.0972 -0.0027  0.2362
19716SOL    HW161302   4.133   6.657   4.159  0.9792 -0.4712  0.1529
19716SOL    HW261303   4.162   6.689   4.014 -1.9051  0.9281 -0.1900
19717SOL     OW61304   8.764   4.746   9.400  0.0132 -0.2608  0.3770
19717SOL    HW161305   8.783   4.820   9.343  1.1534 -0.1602  0.8748
19717SOL    HW261306   8.681   4.710   9.366  0.0936  0.4744 -0.6263
19718SOL     OW61307   4.805   9.145   7.638  0.0753 -0.0637 -0.0745
19718SOL    HW161308   4.769   9.081   7.576  0.5541  0.2735 -0.7100
19718SOL    HW261309   4.756   9.225   7.620  1.2280  0.4404 -1.0470
19719SOL     OW61310   3.970   5.160   5.580  0.2384  0.0171 -0.7253
19719SOL    HW161311   4.016   5.108   5.514  0.1650  0.3601 -1.0510
19719SOL    HW261312   4.027   5.156   5.657  0.2560 -0.5009 -0.7612
19720SOL     OW61313   5.025   7.596   5.121  0.7421 -0.0299 -0.9247
19720SOL    HW161314   5.043   7.617   5.213  0.8899 -1.6390 -0.5523
19720SOL    HW261315   5.093   7.642   5.072  1.2311  0.0993 -0.1482
19721SOL     OW61316   8.923   4.334   4.382  0.0393  0.2879 -0.4214
19721SOL    HW161317   8.889   4.263   4.328  0.7766 -0.4416  0.0418
19721SOL    HW261318   8.976   4.290   4.449 -0.4039  1.2107  0.5563
19722SOL     OW61319   3.850   3.257   3.559 -0.2948  0.1361  0.0740
19722SOL    HW161320   3.898   3.318   3.502  1.0372 -0.0343  0.9716
19722SOL    HW261321   3.887   3.270   3.646 -1.2539 -0.6721  0.6277
19723SOL     OW61322   4.487   0.814   2.477 -0.0491  0.4051  0.3585
19723SOL    HW161323   4.452   0.779   2.559  0.2416  0.0463  0.3312
19723SOL    HW261324   4.448   0.901   2.470  0.0635  0.5130  0.9697
19724SOL     OW61325   1.170   3.868   3.180  0.4355  0.9367 -0.3271
19724SOL    HW161326   1.144   3.924   3.253 -1.2862  0.2107 -0.3231
19724SOL    HW261327   1.135   3.913   3.103  0.0654  0.4791 -0.4359
19725SOL     OW61328   6.097   5.505   7.646 -0.1862 -0.0418  0.2676
19725SOL    HW161329   6.166   5.525   7.582  0.5318  0.8484  1.2894
19725SOL    HW261330   6.017   5.499   7.593  0.6359 -0.9806 -0.9265
19726SOL     OW61331   7.268   2.964   2.729 -0.1310 -0.2587 -0.1435
19726SOL    HW161332   7.325   3.040   2.747 -0.7647 -0.0516  1.1048
19726SOL    HW261333   7.203   2.966   2.800 -2.1473 -0.0639 -1.9075
19727SOL     OW61334   8.566   1.026   4.115  0.4169 -0.3756  0.3296
19727SOL    HW161335   8.518   1.085   4.057  0.0451  0.7966  1.7641
19727SOL    HW261336   8.518   0.943   4.110 -0.5482  0.1754  0.1578
19728SOL     OW61337   5.232   2.490   4.730  0.1872  0.2948 -0.4280
19728SOL    HW161338   5.251   2.580   4.701 -1.5168  0.3815 -1.4237
19728SOL    HW261339   5.166   2.459   4.668 -1.1399 -0.7250  1.4095
19729SOL     OW61340   2.117   2.203   1.597 -0.1944  0.4856 -0.8031
19729SOL    HW161341   2.128   2.258   1.676  0.0686 -0.9565  0.2047
19729SOL    HW261342   2.099   2.266   1.527  1.9655  2.0318 -0.0790
19730SOL     OW61343   0.339   0.536   8.873 -0.1396  0.6094 -0.0985
19730SOL    HW161344   0.309   0.485   8.798 -0.8857  2.2993 -1.0019
19730SOL    HW261345   0.409   0.483   8.911 -1.6174 -1.5985 -0.2868
19731SOL     OW61346   5.859   3.421   0.850 -0.3763 -0.2723 -0.6374
19731SOL    HW161347   5.819   3.343   0.810  0.5263 -0.7422 -0.6357
19731SOL    HW261348   5.838   3.413   0.943 -0.1792 -0.5814 -0.6177
19732SOL     OW61349   5.073   9.181   7.509  0.3632  0.0396  0.0575
19732SOL    HW161350   5.067   9.166   7.415  1.2631 -1.1774  0.1755
19732SOL    HW261351   4.982   9.180   7.539  0.0422  0.8087 -0.8270
19733SOL     OW61352   1.002   1.191   4.871  0.3485  0.1691  0.2731
19733SOL    HW161353   1.030   1.110   4.829  0.2100  0.3806 -0.2306
19733SOL    HW261354   1.043   1.260   4.820  0.9476  0.4109  1.0509
19734SOL     OW61355   9.519   9.235   6.413  0.4840  0.3588 -0.3073
19734SOL    HW161356   9.589   9.214   6.475  1.9287  1.4459 -1.4885
19734SOL    HW261357   9.528   9.330   6.398 -0.9330  0.4329 -0.8715
19735SOL     OW61358   5.614   9.439   3.667 -0.7422 -0.2831 -0.5480
19735SOL    HW161359   5.675   9.394   3.609 -0.8013  1.5191 -2.1081
19735SOL    HW261360   5.669   9.471   3.739  0.4104  1.9348 -2.2840
19736SOL     OW61361   2.035   6.976   4.976 -0.1627 -0.0019 -0.2651
19736SOL    HW161362   1.959   6.989   5.033  0.9022  2.8521  0.6884
19736SOL    HW261363   2.067   6.889   4.997 -2.3450 -0.7471  0.2711
19737SOL     OW61364   6.261   1.266   0.528  0.5632  0.1939 -0.0061
19737SOL    HW161365   6.313   1.280   0.607 -0.4613 -0.7468  0.8729
19737SOL    HW261366   6.199   1.339   0.527  1.3884  0.8894 -0.6286
19738SOL     OW61367   8.826   8.354   7.410  0.2267  0.4336  0.1397
19738SOL    HW161368   8.858   8.358   7.320 -0.5181  1.8487 -0.0937
19738SOL    HW261369   8.904   8.335   7.462  0.4111 -2.0301 -0.9045
19739SOL     OW61370   2.037   5.853   9.395  0.2804  0.0187  0.3313
19739SOL    HW161371   2.074   5.784   9.450  3.5381  1.0054 -0.4061
19739SOL    HW261372   2.043   5.819   9.306  1.8732  1.1715 -0.0334
19740SOL     OW61373   8.310   5.127   2.539 -0.3885  0.3358 -0.5230
19740SOL    HW161374   8.352   5.153   2.621 -0.1306 -0.3851 -0.4147
19740SOL    HW261375   8.357   5.048   2.512 -1.3397 -0.2005 -0.6673
19741SOL     OW61376   1.543   7.157   3.836 -0.3056 -0.2087 -0.4207
19741SOL    HW161377   1.465   7.107   3.860  1.2771 -1.4027  2.8834
19741SOL    HW261378   1.586   7.105   3.768 -1.6916 -0.1972 -1.3273
19742SOL     OW61379   8.821   9.100   4.813 -0.0399  0.5039 -0.7871
19742SOL    HW161380   8.902   9.065   4.775 -0.3194 -1.7814  0.5182
19742SOL    HW261381   8.848   9.134   4.898 -0.5491 -1.3266  0.1646
19743SOL     OW61382   3.307   6.274   7.235 -0.0156  0.0792 -0.2787
19743SOL    HW161383   3.302   6.180   7.215  0.6501 -0.2714  1.0720
19743SOL    HW261384   3.377   6.281   7.300  1.1281  1.7476 -1.5852
19744SOL     OW61385   8.072   4.433   6.966  0.8672 -0.1487  0.5220
19744SOL    HW161386   8.134   4.369   7.001 -1.0579 -2.0388  0.6498
19744SOL    HW261387   7.990   4.415   7.011 -0.6258  0.1069 -1.9124
19745SOL     OW61388   4.452   2.421   8.718  0.0189 -0.1753 -0.2166
19745SOL    HW161389   4.467   2.344   8.663  0.7857 -0.4445  0.3585
19745SOL    HW261390   4.428   2.385   8.803 -1.7759  0.2366 -0.5017
19746SOL     OW61391   1.232   8.187   2.472 -0.1149 -0.3790  0.2503
19746SOL    HW161392   1.279   8.214   2.393  0.8039 -3.5079 -0.3770
19746SOL    HW261393   1.271   8.240   2.542 -1.0786  2.6004 -1.3017
19747SOL     OW61394   5.105   4.171   8.244  0.0007  0.1135 -0.0319
19747SOL    HW161395   5.121   4.119   8.323  0.8358  1.2314  0.5606
19747SOL    HW261396   5.025   4.133   8.207  0.3262 -1.2945  0.6155
19748SOL     OW61397   6.088   7.276   6.658 -0.1208 -0.0915  0.0979
19748SOL    HW161398   6.102   7.195   6.608  0.2020 -0.1248  0.2386
19748SOL    HW261399   6.115   7.346   6.598  1.9698 -0.2201  0.8127
19749SOL     OW61400   9.338   9.181   8.382  0.1102  0.0165 -1.0337
19749SOL    HW161401   9.397   9.140   8.445  1.0248  1.2699 -1.0392
19749SOL    HW261402   9.296   9.108   8.338 -0.0247 -0.8876  0.5335
19750SOL     OW61403   8.886   9.342   7.502  0.1378 -0.0787 -0.4559
19750SOL    HW161404   8.936   9.318   7.424  0.8097  1.3411 -0.5057
19750SOL    HW261405   8.817   9.276   7.508 -0.3176  0.1084 -2.6279
19751SOL     OW61406   4.988   3.169   3.520  0.2634  0.6186 -0.1921
19751SOL    HW161407   4.946   3.093   3.560 -0.5872 -0.1926 -2.4595
19751SOL    HW261408   5.038   3.209   3.591  2.0270 -2.9342  0.8092
19752SOL     OW61409   5.916   4.927   8.492 -0.2916  0.2340  0.4154
19752SOL    HW161410   5.963   4.851   8.526 -0.5419 -0.3927 -0.5991
19752SOL    HW261411   5.980   4.971   8.436 -0.0451  0.9804  1.2409
19753SOL     OW61412   0.319   6.297   0.549  0.0469 -0.5937 -0.3234
19753SOL    HW161413   0.269   6.364   0.503 -0.0173 -1.1396 -1.0661
19753SOL    HW261414   0.410   6.313   0.523  0.2138  0.0831  0.6271
19754SOL     OW61415   4.996   3.622   5.330 -0.6539 -0.2206 -0.3554
19754SOL    HW161416   4.936   3.548   5.339 -0.4212 -0.2696  0.9693
19754SOL    HW261417   5.017   3.647   5.420 -1.0734  1.7544 -0.7737
19755SOL     OW61418   9.612   6.605   8.438  0.1267 -0.6134 -0.2410
19755SOL    HW161419   9.525   6.645   8.445 -1.1499 -2.8493 -1.9149
19755SOL    HW261420   9.640   6.593   8.528 -0.4970  1.6774  0.3330
19756SOL     OW61421   6.572   9.598   4.234  0.5114  0.1333  0.4165
19756SOL    HW161422   6.503   9.642   4.185  0.7362  0.4509  0.3788
19756SOL    HW261423   6.558   9.624   4.325  1.1670  1.0075  0.2836
19757SOL     OW61424   7.994   5.726   1.545  0.3831 -0.2021  0.9235
19757SOL    HW161425   8.074   5.774   1.524  1.0601 -0.4840  2.6887
19757SOL    HW261426   7.941   5.787   1.596  0.0921 -0.4617  0.9368
19758SOL     OW61427   8.877   0.808   3.210  0.0657  0.1997 -0.4995
19758SOL    HW161428   8.883   0.718   3.177 -0.1838  0.4533 -1.2589
19758SOL    HW261429   8.879   0.862   3.131  1.1367  0.9136 -0.0161
19759SOL     OW61430   9.073   7.152   4.553 -0.1610  0.3703  0.3917
19759SOL    HW161431   9.053   7.164   4.460  0.3604  0.5786  0.3061
19759SOL    HW261432   8.993   7.180   4.598 -0.0639  1.2126  0.0498
19760SOL     OW61433   5.269   7.276   8.372 -0.3118  0.3527  0.3455
19760SOL    HW161434   5.320   7.203   8.337 -0.5385  0.8944 -1.1632
19760SOL    HW261435   5.200   7.291   8.308  0.7328  2.9834 -0.2892
19761SOL     OW61436   6.202   0.146   1.945  0.4489 -0.7999  0.2695
19761SOL    HW161437   6.208   0.127   1.852 -0.5456  0.0914  0.0081
19761SOL    HW261438   6.269   0.212   1.960 -1.2329  1.1873 -0.4431
19762SOL     OW61439   2.254   5.869   8.898 -0.0399  0.4881  0.1379
19762SOL    HW161440   2.227   5.961   8.898 -0.0545  0.4972  1.4166
19762SOL    HW261441   2.234   5.838   8.810  2.1543  2.3277 -1.1247
19763SOL     OW61442   5.162   9.277   6.844  0.2882 -0.0392 -1.1977
19763SOL    HW161443   5.079   9.229   6.853  0.7260 -1.1238 -2.5386
19763SOL    HW261444   5.165   9.303   6.752  0.6019  1.6218 -0.7445
19764SOL     OW61445   3.888   7.987   0.608 -0.6869 -0.1143  0.0895
19764SOL    HW161446   3.911   7.900   0.641 -1.8208 -0.3621  0.2898
19764SOL    HW261447   3.952   8.005   0.540 -0.0052 -0.7962  0.5311
19765SOL     OW61448   6.147   0.627   4.543  0.0116 -0.0379 -0.1313
19765SOL    HW161449   6.179   0.573   4.616  3.0375  2.3550  0.5249
19765SOL    HW261450   6.106   0.702   4.586 -1.3743 -0.2539 -1.0060
19766SOL     OW61451   6.109   0.632   2.649 -0.6243  0.0511 -0.4410
19766SOL    HW161452   6.028   0.608   2.694  0.2578  0.0001  1.1771
19766SOL    HW261453   6.162   0.552   2.652  0.1649  0.5830  0.0649
19767SOL     OW61454   6.114   2.446   8.385 -0.1576  0.2644 -0.3823
19767SOL    HW161455   6.176   2.406   8.446 -0.2014  0.4245 -0.2341
19767SOL    HW261456   6.067   2.511   8.437 -1.2846 -0.6818 -0.1818
19768SOL     OW61457   2.303   2.263   6.362 -0.6353 -0.3081  0.7612
19768SOL    HW161458   2.217   2.280   6.324 -0.6064 -0.6551  0.5319
19768SOL    HW261459   2.364   2.306   6.301 -0.6286 -0.2982  0.7749
19769SOL     OW61460   0.954   7.511   3.327 -0.0795 -0.1977  0.3833
19769SOL    HW161461   0.930   7.586   3.274  2.3408  0.3540 -0.0740
19769SOL    HW261462   0.988   7.447   3.265  0.6283 -0.4682  1.0269
19770SOL     OW61463   6.761   1.167   2.263  0.3301 -0.3426 -0.0400
19770SOL    HW161464   6.840   1.204   2.224  0.8586 -1.9171 -0.5672
19770SOL    HW261465   6.697   1.167   2.192 -0.1297  0.8186  0.3529
19771SOL     OW61466   6.488   4.270   8.905 -0.3393 -0.6626 -0.9742
19771SOL    HW161467   6.580   4.243   8.906  0.2672  1.2992 -0.3161
19771SOL    HW261468   6.488   4.359   8.870 -1.7845 -0.0224  0.5016
19772SOL     OW61469   5.248   4.476   4.264 -0.2654  0.7502 -0.0107
19772SOL    HW161470   5.194   4.416   4.317 -0.9160  1.7257  0.4511
19772SOL    HW261471   5.218   4.563   4.288  0.9703  1.2968 -0.3560
19773SOL     OW61472   3.547   4.713   3.435 -1.0984  0.2534  0.4603
19773SOL    HW161473   3.510   4.636   3.391 -0.5637 -0.3910  1.0940
19773SOL    HW261474   3.526   4.786   3.378  0.2706 -0.6558 -1.2943
19774SOL     OW61475   7.097   1.898   0.911  0.4506  0.0897  0.7070
19774SOL    HW161476   7.045   1.952   0.970 -1.0829 -0.8887  0.3014
19774SOL    HW261477   7.089   1.941   0.826  0.8502  0.2894  0.7669
19775SOL     OW61478   7.421   5.039   0.483  0.2832  0.1415  0.2000
19775SOL    HW161479   7.333   5.061   0.451  0.0771  0.2633  0.8369
19775SOL    HW261480   7.420   5.063   0.576  0.6265 -0.8867  0.4891
19776SOL     OW61481   7.745   3.651   0.300 -0.6721  0.9214  0.4416
19776SOL    HW161482   7.808   3.579   0.292  0.9664  2.2584  0.6274
19776SOL    HW261483   7.715   3.667   0.210  0.5154  1.2876  0.0827
19777SOL     OW61484   3.006   4.214   3.995  0.7522  0.1055  0.0128
19777SOL    HW161485   3.101   4.219   4.010  1.0495 -1.3142 -1.1661
19777SOL    HW261486   2.986   4.121   4.006 -0.2033  0.1233 -1.3633
19778SOL     OW61487   5.911   5.426   4.785 -0.1974 -0.2895  0.2768
19778SOL    HW161488   5.952   5.343   4.810  1.2723  0.2702 -0.1557
19778SOL    HW261489   5.916   5.480   4.864  2.3402  0.6725 -0.4454
19779SOL     OW61490   4.467   2.044   2.985 -0.0694  0.8416 -0.1520
19779SOL    HW161491   4.372   2.052   2.971 -0.3363 -1.3077  0.0200
19779SOL    HW261492   4.486   2.110   3.052 -2.1288 -0.8353  2.3025
19780SOL     OW61493   2.745   7.675   5.698 -0.2455  0.3040  0.2976
19780SOL    HW161494   2.670   7.675   5.639 -1.4049  0.4790  1.7123
19780SOL    HW261495   2.728   7.749   5.757  1.4197  0.7976  0.1983
19781SOL     OW61496   4.877   7.392   7.256 -0.4075 -0.2162 -0.2557
19781SOL    HW161497   4.833   7.466   7.298 -1.6596 -0.2372 -1.4534
19781SOL    HW261498   4.968   7.419   7.247 -0.7590  1.0021 -0.2719
19782SOL     OW61499   6.833   8.396   2.908  0.2696  0.0485 -0.1306
19782SOL    HW161500   6.855   8.359   2.993 -2.1752  0.8829  0.9301
19782SOL    HW261501   6.907   8.454   2.888  0.8343 -0.0573  1.4797
19783SOL     OW61502   6.814   5.593   4.128 -0.0094  0.8021  0.0961
19783SOL    HW161503   6.744   5.635   4.078 -0.1994  1.5994  0.9993
19783SOL    HW261504   6.847   5.662   4.185  0.3929 -0.0064  0.8598
19784SOL     OW61505   9.459   1.704   1.818 -0.1040  0.4500 -0.0581
19784SOL    HW161506   9.534   1.762   1.803 -0.3355  0.5974 -0.6561
19784SOL    HW261507   9.492   1.617   1.797 -0.2605  0.5849 -0.8938
19785SOL     OW61508   4.048   1.128   0.928 -0.2276  0.0133 -0.2789
19785SOL    HW161509   4.063   1.041   0.964 -2.2132 -0.2608 -0.0013
19785SOL    HW261510   3.958   1.126   0.896  0.5029  1.1834 -2.6181
19786SOL     OW61511   8.190   1.882   9.436  0.2538 -0.3597  0.9800
19786SOL    HW161512   8.201   1.962   9.383  0.3951 -1.1762 -0.2643
19786SOL    HW261513   8.153   1.913   9.518  0.5840  1.0308  0.6328
19787SOL     OW61514   2.912   2.387   4.709  0.1544  0.1705 -0.0324
19787SOL    HW161515   3.000   2.402   4.674 -0.4276 -1.1832 -2.2832
19787SOL    HW261516   2.875   2.475   4.722  1.8172  0.7619  1.0771
19788SOL     OW61517   1.060   0.410   2.358  0.0530  0.5955 -0.0336
19788SOL    HW161518   1.080   0.437   2.269 -2.1542  0.8810 -0.4948
19788SOL    HW261519   1.088   0.483   2.413 -0.8680  1.5072 -0.7499
19789SOL     OW61520   4.710   4.019   6.431  0.2419 -0.2054  0.3021
19789SOL    HW161521   4.674   3.971   6.356 -1.2650 -0.5965  1.2487
19789SOL    HW261522   4.638   4.075   6.461  0.7463 -0.2303  1.6053
19790SOL     OW61523   1.868   0.957   4.931 -0.4884 -0.1466  0.6530
19790SOL    HW161524   1.900   0.956   5.021 -1.4991  1.2070  1.0649
19790SOL    HW261525   1.944   0.986   4.879  0.1651 -1.1617  1.0187
19791SOL     OW61526   6.805   3.077   0.447 -0.1608 -0.6042 -0.2306
19791SOL    HW161527   6.819   3.138   0.375  0.1578 -1.1029 -0.5936
19791SOL    HW261528   6.712   3.086   0.469 -0.3363 -0.6962 -0.9272
19792SOL     OW61529   6.311   2.465   5.074 -0.3204 -0.0727  0.1039
19792SOL    HW161530   6.338   2.396   5.014 -3.3416 -0.8303 -0.5478
19792SOL    HW261531   6.356   2.544   5.042  1.7058 -1.3067 -0.2706
19793SOL     OW61532   6.387   3.242   6.290  0.0671  0.0867 -0.6547
19793SOL    HW161533   6.467   3.266   6.243 -0.6152 -0.3457 -2.0978
19793SOL    HW261534   6.381   3.147   6.280 -0.3486  0.0487 -0.0968
19794SOL     OW61535   7.073   6.034   5.512  0.3277  0.4593 -0.3176
19794SOL    HW161536   7.019   6.049   5.434 -0.2783  0.3594  0.0780
19794SOL    HW261537   7.162   6.053   5.483  0.2606 -0.7340 -1.3502
19795SOL     OW61538   7.268   5.740   6.455  0.4501 -0.3683  0.2579
19795SOL    HW161539   7.256   5.707   6.544 -2.0573  0.5917  0.3526
19795SOL    HW261540   7.323   5.818   6.466  1.1496 -0.9128  0.7746
19796SOL     OW61541   0.451   3.742   8.525  0.8871  0.2726  0.0724
19796SOL    HW161542   0.527   3.800   8.518  2.7388 -1.9419  0.6833
19796SOL    HW261543   0.397   3.764   8.449  1.8656  2.2388 -0.1225
19797SOL     OW61544   1.670   8.521   7.039 -0.4396  0.3256  0.6792
19797SOL    HW161545   1.704   8.432   7.041 -3.8118 -1.1833 -0.4559
19797SOL    HW261546   1.603   8.523   7.107 -1.1441  1.6448 -0.0107
19798SOL     OW61547   2.518   6.588   1.416 -0.1396  0.1381  0.0597
19798SOL    HW161548   2.590   6.609   1.477  0.3628  0.7020 -0.7087
19798SOL    HW261549   2.482   6.506   1.449  0.3451  0.2590  0.9238
19799SOL     OW61550   1.833   0.317   7.577  0.1649  0.2047  0.1637
19799SOL    HW161551   1.780   0.271   7.512  0.6631 -0.9027  0.5216
19799SOL    HW261552   1.913   0.265   7.585 -0.4488 -0.5008  2.6581
19800SOL     OW61553   2.601   9.402   6.852  0.0917  0.3930  0.2640
19800SOL    HW161554   2.533   9.359   6.904 -0.4258  0.3498 -0.4309
19800SOL    HW261555   2.576   9.495   6.853 -0.7713  0.1988 -1.1308
19801SOL     OW61556   3.942   3.013   2.797  0.3045 -0.0080 -0.9116
19801SOL    HW161557   3.971   3.062   2.721  0.1985  0.3220 -0.7413
19801SOL    HW261558   3.889   3.075   2.847 -0.2318 -0.4394 -0.9401
19802SOL     OW61559   4.427   6.235   7.569  0.3584  0.0699  0.1424
19802SOL    HW161560   4.467   6.314   7.607 -0.6873  0.3934  0.6205
19802SOL    HW261561   4.339   6.232   7.608  0.7896 -2.0093  1.0963
19803SOL     OW61562   4.318   5.751   0.534 -0.2662  0.8462  0.1946
19803SOL    HW161563   4.277   5.705   0.462  0.1824  1.0782 -0.2120
19803SOL    HW261564   4.281   5.839   0.531 -1.0467  0.5621  0.9089
19804SOL     OW61565   1.330   7.037   6.068 -0.5400 -0.0737 -0.3808
19804SOL    HW161566   1.422   7.013   6.059 -0.5318  0.3046 -1.4385
19804SOL    HW261567   1.321   7.063   6.160  0.0669 -1.4705  0.1035
19805SOL     OW61568   4.949   9.468   1.608  0.1711  0.1336  0.2984
19805SOL    HW161569   4.961   9.376   1.630 -0.5849 -0.5235 -1.7738
19805SOL    HW261570   4.859   9.475   1.578  0.1475  1.6109  0.6174
19806SOL     OW61571   6.761   7.572   4.001  0.3647 -0.0437 -0.5447
19806SOL    HW161572   6.828   7.639   3.985 -1.0602  1.3818 -0.8207
19806SOL    HW261573   6.730   7.589   4.090 -1.9818  1.5886 -1.5724
19807SOL     OW61574   9.449   4.104   7.342  0.1037  0.2877  0.1826
19807SOL    HW161575   9.380   4.154   7.386  0.3235  0.6298  0.1459
19807SOL    HW261576   9.517   4.169   7.324  0.0547  0.1302 -0.5823
19808SOL     OW61577   6.974   3.603   7.325 -0.1794  0.7430 -0.0761
19808SOL    HW161578   6.891   3.557   7.340 -0.8907  2.0605  0.1907
19808SOL    HW261579   7.036   3.534   7.300 -1.7445 -0.1045 -1.9100
19809SOL     OW61580   4.025   6.395   1.237  0.9096  0.7338  0.2547
19809SOL    HW161581   3.933   6.394   1.210  1.0058  0.2461 -0.0855
19809SOL    HW261582   4.071   6.438   1.164  1.1204 -0.2359 -0.2003
19810SOL     OW61583   8.590   5.885   5.261  0.2549  0.4022 -0.0229
19810SOL    HW161584   8.535   5.963   5.254 -0.9653 -0.2995  1.3399
19810SOL    HW261585   8.545   5.829   5.324  1.7533 -0.8754 -0.0282
19811SOL     OW61586   4.398   7.942   8.035 -0.7692 -0.4685  0.1393
19811SOL    HW161587   4.313   7.985   8.042 -0.3613  0.3630  0.1820
19811SOL    HW261588   4.447   7.974   8.111 -0.6438 -1.4712  0.4868
19812SOL     OW61589   5.737   8.936   6.033 -0.4532  0.2612 -0.5483
19812SOL    HW161590   5.690   8.852   6.031 -0.1065  0.0280  0.4503
19812SOL    HW261591   5.751   8.953   6.126 -0.7968  1.5939 -0.7102
19813SOL     OW61592   4.180   8.476   7.683  0.0426  0.1008  0.9315
19813SOL    HW161593   4.244   8.458   7.752  1.7647  1.5175 -0.2235
19813SOL    HW261594   4.147   8.564   7.704 -0.9483 -0.2999  1.0742
19814SOL     OW61595   5.804   8.430   9.245  0.5685  0.0746 -0.1088
19814SOL    HW161596   5.873   8.493   9.268  2.3105 -1.4162 -0.9214
19814SOL    HW261597   5.787   8.447   9.152 -1.1727  1.3028  0.3995
19815SOL     OW61598   2.531   9.370   2.174 -1.1049 -0.3825  0.9786
19815SOL    HW161599   2.584   9.303   2.131  0.0583  1.5014 -0.6868
19815SOL    HW261600   2.454   9.379   2.119 -2.1873 -1.5843  2.2185
19816SOL     OW61601   5.229   4.598   4.659  0.0299  0.0245  0.0612
19816SOL    HW161602   5.161   4.641   4.608 -0.6067 -1.0939 -0.0834
19816SOL    HW261603   5.196   4.509   4.673  1.2546 -0.4054  0.3930
19817SOL     OW61604   0.586   0.875   6.701  0.0679  0.2588 -0.3394
19817SOL    HW161605   0.534   0.805   6.740  1.8424 -0.5107  0.7495
19817SOL    HW261606   0.553   0.882   6.611 -0.1931 -1.9691 -0.4808
19818SOL     OW61607   8.590   4.590   8.470 -0.3693 -0.0381 -0.5877
19818SOL    HW161608   8.619   4.604   8.560  2.8267 -0.0932 -1.4870
19818SOL    HW261609   8.599   4.496   8.455 -0.8927 -0.0342 -0.9609
19819SOL     OW61610   5.091   2.368   4.527  0.0994 -0.4614  0.0693
19819SOL    HW161611   5.029   2.423   4.479 -0.8691 -0.7943  0.8944
19819SOL    HW261612   5.046   2.284   4.538  0.0179 -0.2210  2.0296
19820SOL     OW61613   3.495   1.078   2.058 -1.2389 -0.0733  0.3272
19820SOL    HW161614   3.513   1.118   1.973 -2.2976 -0.0439  0.1049
19820SOL    HW261615   3.414   1.119   2.088 -1.5610 -1.0009  0.7687
19821SOL     OW61616   4.847   7.813   0.681  0.2249 -0.1504 -0.6775
19821SOL    HW161617   4.916   7.870   0.649  0.5648  0.4674  1.0832
19821SOL    HW261618   4.775   7.872   0.703  0.3392 -0.4274  0.5417
19822SOL     OW61619   3.101   0.542   5.601  0.2789  0.2501  0.1325
19822SOL    HW161620   3.125   0.622   5.648 -0.0381  0.4539 -0.0535
19822SOL    HW261621   3.011   0.524   5.627  1.2575 -1.7420  2.5613
19823SOL     OW61622   5.593   7.725   5.879  0.1030  0.0916 -0.1048
19823SOL    HW161623   5.666   7.786   5.887  0.2716 -0.3058  1.6338
19823SOL    HW261624   5.585   7.684   5.965  0.3138 -2.7039 -1.2863
19824SOL     OW61625   6.224   6.230   1.516  0.3637  0.1332 -0.0552
19824SOL    HW161626   6.149   6.269   1.561  0.2369 -0.7029  0.4669
19824SOL    HW261627   6.296   6.292   1.531 -0.1391  0.7966 -0.3208
19825SOL     OW61628   8.604   5.038   7.119  0.9759 -0.0620  0.1238
19825SOL    HW161629   8.686   5.060   7.164 -0.1009  0.9301  1.7020
19825SOL    HW261630   8.557   4.983   7.181 -0.7983  1.7927  0.5277
19826SOL     OW61631   9.072   2.274   4.420  0.1768  0.3657 -0.2798
19826SOL    HW161632   9.046   2.254   4.510  1.3652  0.9985  0.2316
19826SOL    HW261633   9.159   2.313   4.429  0.7767 -0.5565 -1.8019
19827SOL     OW61634   6.589   2.140   1.640  0.0434  0.3331  0.3724
19827SOL    HW161635   6.506   2.141   1.688  0.4837 -1.8158  1.3041
19827SOL    HW261636   6.647   2.084   1.692  1.9754  1.4434 -0.4640
19828SOL     OW61637   8.821   8.955   1.826 -0.0323 -0.6399  0.2659
19828SOL    HW161638   8.804   9.022   1.759 -0.0684 -1.2913 -0.3974
19828SOL    HW261639   8.886   8.897   1.785 -0.3034 -1.2346  0.6617
19829SOL     OW61640   2.653   1.601   3.085  0.7195  0.3887  0.6046
19829SOL    HW161641   2.711   1.529   3.058 -1.6448 -1.5005  0.2145
19829SOL    HW261642   2.672   1.671   3.023  2.3496 -0.2489  0.3138
19830SOL     OW61643   6.041   9.036   5.413  0.1366  0.2152 -0.4006
19830SOL    HW161644   6.047   9.108   5.351  0.4398 -0.0574 -0.6921
19830SOL    HW261645   6.082   8.962   5.368 -2.3626 -0.8423 -1.1167
19831SOL     OW61646   0.403   8.068   3.703  0.6395  0.4036  0.5937
19831SOL    HW161647   0.372   8.129   3.636  0.5317 -0.5229 -0.2262
19831SOL    HW261648   0.497   8.080   3.705  0.7200 -0.0120 -0.2011
19832SOL     OW61649   1.896   3.280   1.758 -0.5309  0.3638  0.1828
19832SOL    HW161650   1.924   3.356   1.708 -1.1231 -0.4739 -1.5145
19832SOL    HW261651   1.968   3.217   1.748 -0.8187  0.0529  0.0390
19833SOL     OW61652   5.230   1.484   4.785 -0.1495  0.4732  0.4146
19833SOL    HW161653   5.143   1.509   4.817  0.1921  1.2558  0.7486
19833SOL    HW261654   5.289   1.551   4.820  0.7341 -0.5679  0.9839
19834SOL     OW61655   0.332   8.437   7.928  0.0325  0.6809 -0.6154
19834SOL    HW161656   0.330   8.348   7.893 -0.7357  0.6262 -0.4615
19834SOL    HW261657   0.315   8.492   7.852 -3.8641  0.4632 -0.1329
19835SOL     OW61658   3.660   4.643   3.680  0.6182 -0.1463 -0.1320
19835SOL    HW161659   3.609   4.684   3.610  1.5690 -0.0990 -0.8057
19835SOL    HW261660   3.658   4.708   3.751  0.4024  0.1857 -0.4349
19836SOL     OW61661   0.158   5.631   4.593 -0.4102 -0.2813  1.1300
19836SOL    HW161662   0.223   5.677   4.540  0.1727 -0.5403  1.6043
19836SOL    HW261663   0.074   5.653   4.553  0.0898 -1.6408 -0.8244
19837SOL     OW61664   9.216   5.358   3.187  0.2378 -0.5769 -0.3129
19837SOL    HW161665   9.146   5.421   3.202 -0.7704 -1.3503 -1.6377
19837SOL    HW261666   9.192   5.282   3.241  0.2312 -0.7137 -0.5080
19838SOL     OW61667   0.791   9.622   3.152 -0.4721  0.2752  0.2796
19838SOL    HW161668   0.784   9.544   3.208  0.8354 -0.9539 -1.1639
19838SOL    HW261669   0.823   9.691   3.210 -0.5069 -0.5856  1.3505
19839SOL     OW61670   3.538   7.411   3.581  0.8654  0.2627 -0.1778
19839SOL    HW161671   3.520   7.500   3.613 -1.2288  1.4247 -3.9033
19839SOL    HW261672   3.471   7.357   3.622 -0.3430  1.2379 -0.8043
19840SOL     OW61673   0.892   5.773   0.342 -0.5533  0.2715  0.4184
19840SOL    HW161674   0.909   5.760   0.435  0.2660 -0.7685  0.1413
19840SOL    HW261675   0.871   5.685   0.309  0.5375  0.3930 -0.6508
19841SOL     OW61676   7.510   2.057   8.530 -0.1120 -0.4104  0.7965
19841SOL    HW161677   7.556   1.997   8.471  0.4315 -0.3131  1.1119
19841SOL    HW261678   7.453   2.107   8.473  0.7039 -0.0350  0.2848
19842SOL     OW61679   7.233   5.221   5.579 -0.5517 -0.2129 -0.2165
19842SOL    HW161680   7.163   5.281   5.556 -0.5700 -0.1541 -0.0081
19842SOL    HW261681   7.246   5.168   5.500 -0.3716  0.2174 -0.4792
19843SOL     OW61682   5.743   6.143   5.905 -0.7292  0.1441  0.1851
19843SOL    HW161683   5.768   6.211   5.968 -0.3888  1.2949 -1.1549
19843SOL    HW261684   5.652   6.164   5.884 -0.5624  0.3127 -0.3768
19844SOL     OW61685   9.580   1.951   7.163 -0.0754  0.2320 -0.4222
19844SOL    HW161686   9.604   2.033   7.206 -0.3517 -0.4779  1.1566
19844SOL    HW261687   9.657   1.895   7.175  0.3675  0.4372 -2.0592
19845SOL     OW61688   6.929   8.131   3.966 -0.1419  0.4160 -0.6059
19845SOL    HW161689   6.999   8.120   3.902 -0.4734  0.1335 -0.9200
19845SOL    HW261690   6.851   8.150   3.914 -0.8829 -1.8747 -0.4706
19846SOL     OW61691   0.323   0.613   5.162  0.1556 -0.1338  0.0774
19846SOL    HW161692   0.241   0.660   5.176  0.5101  0.2612  0.9045
19846SOL    HW261693   0.353   0.642   5.076 -0.6527 -0.4148 -0.3098
19847SOL     OW61694   7.070   0.695   6.622  0.3067 -0.2882 -0.4584
19847SOL    HW161695   6.988   0.677   6.668  0.6077  0.0380  0.2095
19847SOL    HW261696   7.043   0.752   6.549 -0.1083 -0.4567 -0.4419
19848SOL     OW61697   1.751   1.287   1.921  0.8032  0.0506  0.3192
19848SOL    HW161698   1.794   1.251   1.844 -0.3264  1.6153 -1.1003
19848SOL    HW261699   1.705   1.213   1.960  1.9827 -0.9087 -0.0677
19849SOL     OW61700   8.912   0.996   0.067  0.0384  0.1446 -0.0973
19849SOL    HW161701   8.988   0.939   0.054  0.3888  0.7161 -0.6279
19849SOL    HW261702   8.905   1.046  -0.015 -1.3767 -0.4367 -0.3764
19850SOL     OW61703   5.817   7.236   7.235 -0.8214  0.6156  0.6228
19850SOL    HW161704   5.735   7.279   7.257 -2.0598 -1.7757  1.0883
19850SOL    HW261705   5.807   7.147   7.271  1.0972 -0.4003 -1.1684
19851SOL     OW61706   3.659   8.164   0.007  0.0809 -0.3030  0.0530
19851SOL    HW161707   3.684   8.236  -0.051 -1.0572 -0.6140 -0.8418
19851SOL    HW261708   3.734   8.154   0.066  0.6971  0.9014 -0.4999
19852SOL     OW61709   1.164   8.410   0.337 -0.0612 -0.0591 -0.7161
19852SOL    HW161710   1.188   8.480   0.276  0.2254  0.1825 -0.3275
19852SOL    HW261711   1.142   8.455   0.418  0.0728 -0.4164 -0.4779
19853SOL     OW61712   4.955   6.443   5.714 -0.0712  0.0995 -0.4265
19853SOL    HW161713   4.932   6.374   5.652  0.5986  1.0262 -1.7367
19853SOL    HW261714   5.049   6.455   5.704 -0.3228  1.9373 -1.0200
19854SOL     OW61715   9.364   8.372   1.240 -0.2669 -0.0333 -0.4399
19854SOL    HW161716   9.427   8.440   1.220 -0.1069 -0.3935 -1.2078
19854SOL    HW261717   9.408   8.316   1.304 -0.1542  0.2202 -0.2952
19855SOL     OW61718   6.471   9.472   5.489  0.3938 -0.3643 -0.1654
19855SOL    HW161719   6.521   9.553   5.481 -0.6612  0.1287 -2.3104
19855SOL    HW261720   6.394   9.497   5.539  1.4084 -0.7560  1.6943
19856SOL     OW61721   0.456   0.747   8.714  0.4042 -0.2743  0.3815
19856SOL    HW161722   0.387   0.689   8.745 -0.2483 -0.7730 -1.7837
19856SOL    HW261723   0.427   0.835   8.739 -0.5008 -0.5703  0.4089
19857SOL     OW61724   8.683   1.203   5.909  0.5290  0.1977 -0.4366
19857SOL    HW161725   8.737   1.265   5.958 -0.0201  0.5367 -0.2616
19857SOL    HW261726   8.728   1.119   5.920  1.2354  0.5374 -0.6071
19858SOL     OW61727   5.169   8.540   3.538 -0.1469  0.4874  0.3178
19858SOL    HW161728   5.079   8.544   3.570 -0.8148  2.9784 -1.6022
19858SOL    HW261729   5.165   8.481   3.462 -0.4764  1.5778 -0.5370
19859SOL     OW61730   8.888   5.886   6.247 -0.1038 -0.7073 -0.1513
19859SOL    HW161731   8.932   5.902   6.164 -0.1090 -0.9628 -0.2051
19859SOL    HW261732   8.954   5.842   6.301  0.3243  0.6171  0.4416
19860SOL     OW61733   1.243   4.942   3.081  0.3751 -0.2965 -0.2117
19860SOL    HW161734   1.333   4.936   3.049 -0.5166  0.4884 -3.2724
19860SOL    HW261735   1.219   4.852   3.103  1.4975 -0.7376 -0.7171
19861SOL     OW61736   4.732   4.397   0.931  0.2877  0.2134 -0.6033
19861SOL    HW161737   4.722   4.309   0.894  1.3129 -0.0046 -0.3714
19861SOL    HW261738   4.654   4.443   0.901  0.5995 -0.2458 -2.2345
19862SOL     OW61739   6.713   9.088   4.978  0.2238 -0.0175 -0.0281
19862SOL    HW161740   6.740   9.068   5.067 -1.0276 -0.9445  0.1876
19862SOL    HW261741   6.699   9.002   4.938 -1.0452  0.3856 -0.5123
19863SOL     OW61742   6.954   1.601   9.461  0.1181 -0.3775  0.3975
19863SOL    HW161743   6.915   1.648   9.388 -1.1681  0.3202  1.4736
19863SOL    HW261744   6.920   1.512   9.453  0.8007 -0.5730 -0.4096
19864SOL     OW61745   2.103   8.784   1.977 -0.2149 -0.1098 -0.0816
19864SOL    HW161746   2.117   8.837   1.898 -0.5484  0.2744  0.1116
19864SOL    HW261747   2.149   8.831   2.046 -0.7740  0.1053  0.1542
19865SOL     OW61748   9.559   9.459   8.742  0.1499 -0.1343  0.0894
19865SOL    HW161749   9.604   9.376   8.752 -0.0554 -0.0944  1.5365
19865SOL    HW261750   9.616   9.511   8.685  0.0027 -1.4275 -1.2900
19866SOL     OW61751   9.234   7.481   2.968  0.2106  0.1203  0.4587
19866SOL    HW161752   9.190   7.457   3.049 -1.8131 -0.1303 -0.6404
19866SOL    HW261753   9.296   7.550   2.992 -0.7917  0.4840  2.0934
19867SOL     OW61754   0.980   9.493   5.418  0.4192  0.1885 -0.4317
19867SOL    HW161755   1.056   9.482   5.362  0.9593  1.6896 -0.0513
19867SOL    HW261756   0.993   9.579   5.460  0.3066 -1.0369  2.3655
19868SOL     OW61757   9.393   0.940   7.127  0.4184  0.3150 -0.7730
19868SOL    HW161758   9.361   1.026   7.098  0.4898  0.2742 -0.9735
19868SOL    HW261759   9.344   0.877   7.074 -2.3928  0.0348  1.8817
19869SOL     OW61760   1.342   2.025   1.864 -0.5290  0.4789 -0.1022
19869SOL    HW161761   1.437   2.015   1.870 -0.2255  1.7699 -1.7082
19869SOL    HW261762   1.306   1.949   1.908  1.2695 -0.5119 -0.2593
19870SOL     OW61763   4.271   7.779   4.051  0.1405  0.8450  0.8079
19870SOL    HW161764   4.263   7.717   4.124 -0.8669 -0.4183 -0.3190
19870SOL    HW261765   4.364   7.779   4.029 -0.2639 -3.9820 -2.1446
19871SOL     OW61766   3.878   0.033   4.399 -0.6730  0.5911  0.4877
19871SOL    HW161767   3.949   0.018   4.461 -0.8281  0.7691  0.7117
19871SOL    HW261768   3.799   0.030   4.452 -1.1680 -2.8994 -0.2091
19872SOL     OW61769   7.858   3.767   7.774  0.3901  0.2070 -0.5250
19872SOL    HW161770   7.862   3.814   7.691 -0.3490 -0.6402 -1.0532
19872SOL    HW261771   7.948   3.737   7.789  0.4284 -0.0547 -1.2567
19873SOL     OW61772   3.485   2.284   6.437  0.4570  0.1114 -0.2841
19873SOL    HW161773   3.477   2.363   6.490 -1.3542 -0.8581  1.0106
19873SOL    HW261774   3.497   2.316   6.347  1.8478  1.8002  0.4441
19874SOL     OW61775   4.920   5.208   2.302  0.3992  0.0824 -0.0769
19874SOL    HW161776   4.830   5.236   2.285 -0.2625 -1.7039  0.1830
19874SOL    HW261777   4.972   5.247   2.231 -0.5858  1.0458 -0.2934
19875SOL     OW61778   7.392   8.147   0.041  0.2115 -0.3774 -0.2223
19875SOL    HW161779   7.483   8.121   0.029  0.5578  0.3148  0.7912
19875SOL    HW261780   7.353   8.077   0.094 -0.2916 -1.4477 -1.8846
19876SOL     OW61781   0.127   7.872   0.039 -0.3036 -0.2978  0.2385
19876SOL    HW161782   0.161   7.951   0.081 -0.8364 -0.0313  0.1736
19876SOL    HW261783   0.035   7.868   0.066 -0.0578 -1.3717  0.9517
19877SOL     OW61784   5.727   3.381   5.390 -0.2545  0.2393 -0.3837
19877SOL    HW161785   5.822   3.390   5.391 -0.1161 -0.3294  2.8860
19877SOL    HW261786   5.711   3.287   5.390 -0.9208  0.3008 -2.5995
19878SOL     OW61787   4.308   1.714   5.301 -0.8997 -0.2699  0.1084
19878SOL    HW161788   4.310   1.622   5.326 -1.5126 -0.3861 -0.2607
19878SOL    HW261789   4.233   1.751   5.347 -0.2684  0.2062  0.7814
19879SOL     OW61790   6.600   7.174   7.217 -0.4775 -0.5717 -0.3566
19879SOL    HW161791   6.622   7.221   7.137 -0.2749 -0.8185 -0.4428
19879SOL    HW261792   6.564   7.090   7.187 -1.5954 -0.1562 -0.2283
19880SOL     OW61793   8.084   3.512   6.940 -0.5913 -0.4621  0.3673
19880SOL    HW161794   8.042   3.570   6.877 -1.0558 -0.7578  0.3955
19880SOL    HW261795   8.067   3.553   7.025 -2.4312 -1.5131  0.5487
19881SOL     OW61796   4.989   1.486   8.403  0.2783  0.6553  0.3117
19881SOL    HW161797   4.928   1.413   8.414  0.2087  0.5278 -0.8472
19881SOL    HW261798   5.045   1.482   8.480 -0.4406  0.0751  0.8210
19882SOL     OW61799   6.455   6.715   8.570  0.1494  0.9968 -0.3551
19882SOL    HW161800   6.502   6.703   8.488  1.3851 -0.7940  0.5340
19882SOL    HW261801   6.523   6.738   8.633 -0.6204  1.2950  0.3822
19883SOL     OW61802   0.184   8.325   8.754 -0.3928 -0.2617  0.3639
19883SOL    HW161803   0.214   8.409   8.788  1.0612 -0.5768 -0.0554
19883SOL    HW261804   0.175   8.338   8.660  2.1674 -1.1538 -0.0798
19884SOL     OW61805   5.545   6.075   2.600 -0.3914 -0.4017 -0.2212
19884SOL    HW161806   5.598   5.998   2.579 -0.1246  0.0334 -1.1514
19884SOL    HW261807   5.601   6.149   2.579 -1.2999  0.0615 -1.0616
19885SOL     OW61808   7.136   0.576   7.766  0.2326 -0.2869  0.4569
19885SOL    HW161809   7.105   0.614   7.849 -1.0157 -0.3405  0.0304
19885SOL    HW261810   7.084   0.619   7.699  1.0604 -0.4325 -0.2952
19886SOL     OW61811   7.897   6.528   4.668  0.6363 -0.0584  0.4108
19886SOL    HW161812   7.891   6.434   4.680 -0.7222  0.0503  0.8579
19886SOL    HW261813   7.888   6.564   4.756 -1.0624  0.5243  0.0380
19887SOL     OW61814   6.711   6.191   6.517 -0.3219  0.6129  0.2912
19887SOL    HW161815   6.697   6.285   6.529  2.4641  1.1088  0.1869
19887SOL    HW261816   6.719   6.157   6.606  3.8001  1.4742  0.4481
19888SOL     OW61817   6.072   4.907   5.376  0.4901 -0.1671 -0.1038
19888SOL    HW161818   6.018   4.838   5.413  1.2706 -0.7275  0.0023
19888SOL    HW261819   6.013   4.982   5.368 -0.8890 -1.3617 -1.9495
19889SOL     OW61820   3.696   4.458   1.991  0.6953 -0.2530  0.7467
19889SOL    HW161821   3.745   4.377   1.976  0.6415 -0.2504  0.5413
19889SOL    HW261822   3.656   4.477   1.906 -0.0827 -0.5352  1.0394
19890SOL     OW61823   4.145   8.061   3.271  0.0285 -0.0651 -0.4038
19890SOL    HW161824   4.213   7.995   3.288  0.5346  0.4372 -0.4410
19890SOL    HW261825   4.063   8.014   3.281  0.3892 -0.7968 -0.7895
19891SOL     OW61826   2.174   9.139   6.932 -0.5003 -0.3470  0.6773
19891SOL    HW161827   2.201   9.229   6.948 -0.1005 -0.5604  1.2212
19891SOL    HW261828   2.079   9.143   6.924 -0.6526 -0.0907  2.2779
19892SOL     OW61829   7.933   7.762   0.698 -0.9763 -0.2918 -0.1750
19892SOL    HW161830   7.953   7.851   0.728 -1.8550  0.3425 -1.3709
19892SOL    HW261831   7.981   7.752   0.616  2.9426 -2.6968  2.1041
19893SOL     OW61832   4.011   2.987   9.022  0.1852 -0.0688  0.1195
19893SOL    HW161833   4.034   2.902   9.061 -0.6151 -0.9782 -1.2791
19893SOL    HW261834   3.960   2.964   8.944 -0.1798  1.7209 -0.2077
19894SOL     OW61835   4.859   2.622   7.587 -0.7468 -0.0106 -0.4066
19894SOL    HW161836   4.817   2.707   7.579  1.7713  1.3476 -0.3365
19894SOL    HW261837   4.916   2.616   7.511  1.2039 -0.3215  0.9920
19895SOL     OW61838   8.740   9.249   3.437 -0.1005  0.2427 -0.1496
19895SOL    HW161839   8.835   9.244   3.427 -0.0984  0.1239 -0.0760
19895SOL    HW261840   8.718   9.176   3.495 -0.1381  0.8119  0.5653
19896SOL     OW61841   1.794   5.265   9.628  0.2673  0.2270  0.2956
19896SOL    HW161842   1.851   5.232   9.559 -0.1557 -0.4614  0.2672
19896SOL    HW261843   1.802   5.360   9.622  1.2084  0.1488  0.1279
19897SOL     OW61844   8.529   7.392   5.099  0.1162 -0.1947 -0.3092
19897SOL    HW161845   8.560   7.435   5.179 -0.7481 -0.5227  0.2284
19897SOL    HW261846   8.492   7.309   5.130  0.1328 -0.5032 -1.1036
19898SOL     OW61847   4.479   4.335   6.766 -0.1468 -0.1916 -0.3863
19898SOL    HW161848   4.458   4.254   6.718 -0.4992 -0.2525 -0.1361
19898SOL    HW261849   4.574   4.338   6.767 -0.1305 -0.5451 -0.5022
19899SOL     OW61850   7.418   0.495   6.816  0.2356 -0.4898  0.0346
19899SOL    HW161851   7.386   0.583   6.835 -1.4662 -1.4432  1.8256
19899SOL    HW261852   7.444   0.460   6.901  0.8258 -1.7587 -0.6435
19900SOL     OW61853   8.805   8.827   3.868 -0.1360 -0.2365  0.0193
19900SOL    HW161854   8.855   8.827   3.786  0.4502  2.5989  0.2742
19900SOL    HW261855   8.713   8.821   3.839  0.1421 -2.0298 -0.6345
19901SOL     OW61856   2.481   7.469   1.620 -0.4094  0.3116 -0.5055
19901SOL    HW161857   2.481   7.524   1.698 -0.4771 -0.8016  0.3049
19901SOL    HW261858   2.458   7.528   1.548  0.0046  1.4281  0.2579
19902SOL     OW61859   8.311   5.752   9.521  0.3321  0.3433 -0.0485
19902SOL    HW161860   8.378   5.801   9.474  1.7595  0.2171  1.7170
19902SOL    HW261861   8.360   5.685   9.569 -1.1603 -0.3375  0.5881
19903SOL     OW61862   0.298   1.023   5.357 -0.2430 -0.3534 -0.0990
19903SOL    HW161863   0.214   1.068   5.365 -0.4791 -0.8417  0.2233
19903SOL    HW261864   0.336   1.027   5.445 -0.3907 -1.0136  0.0010
19904SOL     OW61865   7.570   3.461   0.941  0.2360  0.1774  0.3432
19904SOL    HW161866   7.483   3.466   0.902 -0.4103 -1.0901  1.5563
19904SOL    HW261867   7.630   3.472   0.867 -0.9396  0.8252 -0.5415
19905SOL     OW61868   8.436   7.200   7.343 -0.1809  0.8925  0.2634
19905SOL    HW161869   8.455   7.228   7.254 -0.5781 -0.3777 -0.2472
19905SOL    HW261870   8.391   7.116   7.332 -1.8154  1.5431  1.5858
19906SOL     OW61871   2.276   0.116   9.606  0.2749  0.0278 -0.5067
19906SOL    HW161872   2.203   0.115   9.669  0.3396  0.9016 -0.4018
19906SOL    HW261873   2.242   0.163   9.530  0.4907 -0.2102 -0.7508
19907SOL     OW61874   4.604   2.042   6.232  1.2300 -0.4267  0.0148
19907SOL    HW161875   4.602   2.136   6.252  1.5225 -0.5020  0.4010
19907SOL    HW261876   4.538   2.031   6.164  0.9199 -0.0039  0.2439
19908SOL     OW61877   8.143   1.264   6.149 -0.1082  0.3762  0.2125
19908SOL    HW161878   8.104   1.351   6.139  1.6486  1.3040  0.8607
19908SOL    HW261879   8.238   1.280   6.144  0.2547 -1.5487  0.1071
19909SOL     OW61880   8.421   2.971   0.016  0.3141 -0.1885  0.5417
19909SOL    HW161881   8.476   3.047  -0.005  0.3508 -0.5738 -0.8586
19909SOL    HW261882   8.481   2.908   0.055  1.0429 -0.8269 -1.4876
19910SOL     OW61883   4.704   6.904   5.803 -1.1170  0.5249 -0.0520
19910SOL    HW161884   4.666   6.864   5.881  0.9881  1.3975  1.5182
19910SOL    HW261885   4.778   6.847   5.781 -0.2546  1.5843  0.0529
19911SOL     OW61886   4.793   9.012   2.203  0.1154  0.8148 -0.5413
19911SOL    HW161887   4.863   8.957   2.168 -0.4702 -1.0514  1.0393
19911SOL    HW261888   4.712   8.965   2.182 -0.5125  1.7844 -0.3759
19912SOL     OW61889   8.986   7.383   2.312 -0.2292 -0.1294 -0.1129
19912SOL    HW161890   8.917   7.449   2.311 -0.1210 -0.0173 -0.2891
19912SOL    HW261891   9.052   7.417   2.250  0.2050  0.0073  0.4207
19913SOL     OW61892   0.758   4.169   7.586 -0.2109  0.4043 -0.3680
19913SOL    HW161893   0.663   4.171   7.570 -0.2816  0.1330  0.0220
19913SOL    HW261894   0.796   4.205   7.505 -0.6678  0.9916 -0.3268
19914SOL     OW61895   0.342   5.842   8.890 -0.7864  0.2058 -0.0691
19914SOL    HW161896   0.387   5.872   8.811 -0.1023  0.7333  0.5010
19914SOL    HW261897   0.369   5.904   8.958 -0.0049 -1.1910  0.9633
19915SOL     OW61898   2.487   1.779   6.962 -0.0347  0.7279 -0.0821
19915SOL    HW161899   2.487   1.685   6.975  0.1116  0.5495 -1.2658
19915SOL    HW261900   2.425   1.812   7.028 -1.5917 -0.3955 -0.8975
19916SOL     OW61901   1.464   0.439   7.399  0.0100 -1.2119 -0.2546
19916SOL    HW161902   1.491   0.451   7.490 -0.7575 -1.0865 -0.0343
19916SOL    HW261903   1.376   0.477   7.396 -0.3558 -2.0907 -0.8123
19917SOL     OW61904   5.669   3.610   0.481  0.0125  0.4000  0.4235
19917SOL    HW161905   5.638   3.520   0.468  0.6673  0.3280 -0.8224
19917SOL    HW261906   5.596   3.655   0.522 -1.7036  0.1645 -2.1748
19918SOL     OW61907   4.700   7.323   8.551  0.3547  0.3200  0.0511
19918SOL    HW161908   4.768   7.335   8.484 -0.6115  0.3869 -0.9367
19918SOL    HW261909   4.629   7.381   8.525 -0.1266  0.1857  1.0244
19919SOL     OW61910   3.299   3.685   0.371 -0.5755 -0.4881  0.5815
19919SOL    HW161911   3.276   3.603   0.328 -0.6341 -0.0616 -0.2178
19919SOL    HW261912   3.391   3.699   0.350 -0.7648  0.0359  0.0395
19920SOL     OW61913   2.986   8.796   2.821  0.3063 -0.6592 -0.4932
19920SOL    HW161914   2.950   8.712   2.850 -1.1981  0.3906  0.8674
19920SOL    HW261915   2.974   8.854   2.896  2.7732  0.4006 -0.8290
19921SOL     OW61916   2.732   3.895   9.379  0.3138  0.0990 -0.4622
19921SOL    HW161917   2.773   3.905   9.293 -0.3009  2.1699 -0.5669
19921SOL    HW261918   2.804   3.876   9.438  0.6482 -2.2644 -1.5231
19922SOL     OW61919   2.923   5.263   0.174 -0.1614 -0.1251 -0.3372
19922SOL    HW161920   2.830   5.273   0.195 -0.5196 -1.3673 -1.2220
19922SOL    HW261921   2.940   5.169   0.186  0.2893 -0.4071 -2.7948
19923SOL     OW61922   5.288   8.466   0.038  0.2991  0.2248  0.4128
19923SOL    HW161923   5.235   8.504  -0.032 -0.3254 -0.4867  0.4916
19923SOL    HW261924   5.307   8.540   0.096 -0.4409  0.5307  0.2798
19924SOL     OW61925   5.810   6.889   4.862  0.6331  0.5072  0.0185
19924SOL    HW161926   5.799   6.821   4.795  2.1957  0.8287 -0.6046
19924SOL    HW261927   5.722   6.927   4.872  0.1505 -0.2670 -1.0632
19925SOL     OW61928   4.625   8.309   8.041  0.0636  0.0197  0.1047
19925SOL    HW161929   4.686   8.370   8.000  0.9000 -0.3372  0.7766
19925SOL    HW261930   4.661   8.222   8.021  1.7114 -0.1776  3.2260
19926SOL     OW61931   9.116   5.254   4.156 -0.1422 -0.7200 -0.3938
19926SOL    HW161932   9.073   5.333   4.188 -1.6594 -0.5594 -2.6160
19926SOL    HW261933   9.187   5.287   4.100 -0.0539 -0.9365 -0.4084
19927SOL     OW61934   7.692   3.185   7.623  0.5240  0.5400  0.0652
19927SOL    HW161935   7.764   3.124   7.643  0.8928  0.9206 -0.0848
19927SOL    HW261936   7.669   3.166   7.532 -0.2841 -0.3076  0.4358
19928SOL     OW61937   2.447   7.430   9.203  0.0981 -0.3133 -0.2482
19928SOL    HW161938   2.404   7.514   9.189  1.9173  0.8414  0.8312
19928SOL    HW261939   2.403   7.393   9.280  0.0401  0.1563 -0.0579
19929SOL     OW61940   3.398   1.674   2.976 -0.0342  0.0259 -0.2392
19929SOL    HW161941   3.472   1.652   3.032  0.7065  1.8647 -0.4130
19929SOL    HW261942   3.364   1.756   3.012 -0.3776  0.5397 -1.6651
19930SOL     OW61943   8.023   7.436   4.803 -0.0619 -0.3679  0.0564
19930SOL    HW161944   8.105   7.445   4.851 -0.7992 -0.0804  1.3011
19930SOL    HW261945   8.025   7.506   4.738  0.7093 -0.4225  0.0159
19931SOL     OW61946   9.459   3.436   7.206  0.2575  0.3255  0.5155
19931SOL    HW161947   9.444   3.506   7.142  0.6512 -0.8088 -0.8549
19931SOL    HW261948   9.453   3.480   7.291  2.1042  2.3697 -0.3130
19932SOL     OW61949   2.709   9.444   1.079  0.2944 -0.3539 -0.5168
19932SOL    HW161950   2.713   9.417   0.987  0.5210  2.0381 -1.2966
19932SOL    HW261951   2.756   9.528   1.080 -0.7677  0.2646  1.5452
19933SOL     OW61952   1.389   5.882   8.948  0.1022  0.0739  0.0220
19933SOL    HW161953   1.321   5.844   8.892 -0.8036  0.5857  0.7412
19933SOL    HW261954   1.362   5.859   9.037 -0.1870  1.8993  0.4503
19934SOL     OW61955   4.226   1.667   9.029  0.3910  0.4674 -0.2954
19934SOL    HW161956   4.236   1.724   9.105  0.1187  0.4408 -0.2393
19934SOL    HW261957   4.309   1.674   8.983  1.2451 -0.8977  0.9513
19935SOL     OW61958   7.143   9.485   6.889 -0.3129  0.1576  0.2525
19935SOL    HW161959   7.142   9.434   6.808 -0.0435  2.3701 -1.2240
19935SOL    HW261960   7.055   9.474   6.925 -0.7914  0.0042 -0.9158
19936SOL     OW61961   8.751   1.676   1.963  0.1813  0.0792  0.4249
19936SOL    HW161962   8.678   1.659   2.023  0.0090 -0.0140  0.1886
19936SOL    HW261963   8.749   1.771   1.949  0.3559  0.1318  0.7349
19937SOL     OW61964   6.888   4.025   2.786 -0.1726 -0.2315  0.2065
19937SOL    HW161965   6.892   3.933   2.760 -1.6628 -0.4097  0.5053
19937SOL    HW261966   6.878   4.073   2.704  1.3479 -0.2435 -0.0167
19938SOL     OW61967   0.394   5.204   0.425 -0.5819 -0.0777 -0.0189
19938SOL    HW161968   0.390   5.277   0.363 -0.1276 -0.5023 -0.5625
19938SOL    HW261969   0.469   5.224   0.480 -0.1652 -0.3558 -0.4710
19939SOL     OW61970   3.126   4.271   1.299 -0.4427 -0.5219  0.1914
19939SOL    HW161971   3.102   4.352   1.255 -1.6849  0.3840  2.4075
19939SOL    HW261972   3.067   4.205   1.263  0.2369 -0.3659 -1.2581
19940SOL     OW61973   6.070   5.041   5.097 -0.5931  0.0261 -0.0607
19940SOL    HW161974   6.075   4.997   5.012  1.2315  1.1489 -0.6128
19940SOL    HW261975   6.083   4.971   5.161  1.6371 -0.4279 -0.8920
19941SOL     OW61976   5.061   3.280   8.353  0.0875 -0.5109  0.4286
19941SOL    HW161977   5.116   3.212   8.312 -0.7368  0.2421 -2.1386
19941SOL    HW261978   5.078   3.358   8.301 -0.1577  0.9024  2.3593
19942SOL     OW61979   5.334   7.348   1.093  0.3671  0.9793 -0.4778
19942SOL    HW161980   5.396   7.301   1.039  0.2842  1.6677 -1.1903
19942SOL    HW261981   5.386   7.384   1.164  0.1467 -1.8125  1.2675
19943SOL     OW61982   1.753   0.529   4.974 -0.1370 -0.0112  0.4698
19943SOL    HW161983   1.794   0.566   5.053  0.7454  0.4249 -0.1674
19943SOL    HW261984   1.801   0.447   4.958 -0.1214  0.0413  0.2406
19944SOL     OW61985   7.317   7.315   7.119  0.4041 -0.1557 -0.0601
19944SOL    HW161986   7.283   7.286   7.203  0.9352 -1.0662 -0.1419
19944SOL    HW261987   7.287   7.405   7.110 -0.8874 -0.5163  0.4381
19945SOL     OW61988   0.526   7.814   4.853 -0.1349  0.0128  0.7770
19945SOL    HW161989   0.608   7.857   4.830  0.1190 -1.0886 -0.4918
19945SOL    HW261990   0.543   7.776   4.940  1.3426 -1.6224 -0.1418
19946SOL     OW61991   7.498   8.947   5.449 -0.1520 -0.2061 -0.0722
19946SOL    HW161992   7.535   8.861   5.470  2.3492  1.4517  3.3325
19946SOL    HW261993   7.419   8.952   5.503 -1.3157 -0.9457 -1.6394
19947SOL     OW61994   0.963   1.251   1.933  0.0901  0.0230 -0.4216
19947SOL    HW161995   1.014   1.211   1.861  0.3216  0.5848 -0.5738
19947SOL    HW261996   0.872   1.245   1.904 -0.0895 -2.0398  0.3500
19948SOL     OW61997   9.413   8.431   8.875 -0.5659  0.3131 -0.1657
19948SOL    HW161998   9.444   8.461   8.790 -1.3152 -0.7950 -0.8469
19948SOL    HW261999   9.433   8.338   8.877 -0.1304  0.4145  1.0740
19949SOL     OW62000   3.355   2.750   7.120 -0.8011 -0.0456  0.0966
19949SOL    HW162001   3.314   2.836   7.128  0.4847  0.5427  0.5337
19949SOL    HW262002   3.349   2.712   7.207 -2.7913 -1.1011 -0.4421
19950SOL     OW62003   8.428   3.160   5.319  0.0802 -0.8570 -0.1256
19950SOL    HW162004   8.463   3.209   5.244  2.6997  0.1999  1.6487
19950SOL    HW262005   8.358   3.216   5.354  1.0838  0.2646  0.1442
19951SOL     OW62006   3.027   0.687   8.527  0.6056 -0.3959 -0.6702
19951SOL    HW162007   3.022   0.642   8.612  0.2240 -0.8199 -0.9125
19951SOL    HW262008   3.121   0.692   8.509  0.8047  1.2255  0.5589
19952SOL     OW62009   3.495   7.844   6.905  0.0620  0.2273  0.0366
19952SOL    HW162010   3.589   7.832   6.893  0.2636  1.3580  0.2879
19952SOL    HW262011   3.481   7.833   6.999 -0.1383 -0.4204 -0.0683
19953SOL     OW62012   3.760   0.355   2.839  0.3307  0.3714 -0.2828
19953SOL    HW162013   3.849   0.323   2.836  0.0223 -0.4816 -0.5134
19953SOL    HW262014   3.764   0.434   2.893  0.9896 -0.4083  0.8387
19954SOL     OW62015   4.119   1.980   7.329 -0.3507 -0.0232  0.1107
19954SOL    HW162016   4.127   2.028   7.411 -0.2829 -1.1928  0.8129
19954SOL    HW262017   4.055   2.030   7.278  0.6975  1.5221  0.2596
19955SOL     OW62018   0.024   8.868   8.479  0.3672 -0.3354  0.2129
19955SOL    HW162019  -0.016   8.808   8.415  0.1082  0.2476 -0.1799
19955SOL    HW262020   0.048   8.812   8.552 -0.3079 -0.8503  0.0495
19956SOL     OW62021   6.999   4.223   8.503 -0.5493  0.1037 -0.5404
19956SOL    HW162022   7.012   4.264   8.588  1.1497 -1.2943 -0.0624
19956SOL    HW262023   7.026   4.289   8.440  2.7555 -0.3642  0.2231
19957SOL     OW62024   5.488   1.255   2.943  0.2076 -0.3179  0.4847
19957SOL    HW162025   5.572   1.216   2.966 -0.0560 -0.9596  0.3901
19957SOL    HW262026   5.461   1.303   3.021  0.7188  0.0022  0.4698
19958SOL     OW62027   0.938   0.723   3.654  0.3572 -0.1489  0.1276
19958SOL    HW162028   0.880   0.719   3.730  0.3116 -1.1521  0.0601
19958SOL    HW262029   0.992   0.801   3.668 -0.6290  0.4893  0.4670
19959SOL     OW62030   9.478   9.195   5.994  0.0818  0.6302 -0.2197
19959SOL    HW162031   9.521   9.141   6.061 -3.2118 -0.0039  1.6230
19959SOL    HW262032   9.459   9.134   5.923  1.8314  0.8503 -0.9106
19960SOL     OW62033   2.739   6.400   7.902  0.5326  0.7974  0.0364
19960SOL    HW162034   2.661   6.431   7.856  0.5854 -1.5007 -1.7729
19960SOL    HW262035   2.812   6.432   7.849  0.8346  1.9345  1.0792
19961SOL     OW62036   7.427   4.223   0.604 -0.9256 -0.1858 -0.9827
19961SOL    HW162037   7.392   4.311   0.620  0.2866  0.1379  0.0931
19961SOL    HW262038   7.421   4.179   0.689  1.9522  0.1804 -0.4617
19962SOL     OW62039   0.032   5.964   6.457  0.1175  0.1392 -0.1021
19962SOL    HW162040   0.103   6.024   6.478  0.1536  0.0201  0.1204
19962SOL    HW262041  -0.047   6.012   6.481  0.1403  0.1492 -0.0452
19963SOL     OW62042   5.157   5.676   0.856  0.2145 -0.3084 -0.4973
19963SOL    HW162043   5.150   5.602   0.915 -0.6545  0.3550  0.2586
19963SOL    HW262044   5.242   5.715   0.876 -0.2646  0.1802  0.6567
19964SOL     OW62045   3.053   8.834   3.415  0.1591  0.1019  0.3338
19964SOL    HW162046   3.010   8.792   3.341  0.4889 -0.4219  0.4306
19964SOL    HW262047   3.067   8.763   3.478  0.9430  0.3019  0.4015
19965SOL     OW62048   3.073   5.529   4.156  0.2301  0.2028  0.5562
19965SOL    HW162049   3.134   5.564   4.221  1.4678  0.9347 -0.9435
19965SOL    HW262050   3.128   5.475   4.099 -0.6315  0.4139 -0.4988
19966SOL     OW62051   8.055   1.726   2.017  0.5930  0.0189 -0.1962
19966SOL    HW162052   7.998   1.672   2.072 -0.5912  0.9967 -0.4094
19966SOL    HW262053   8.000   1.750   1.942  1.3957  0.7476 -0.5690
19967SOL     OW62054   6.829   0.586   6.718 -0.2006 -0.3764  0.5329
19967SOL    HW162055   6.746   0.629   6.736 -0.2960 -0.2321 -0.2137
19967SOL    HW262056   6.806   0.495   6.702 -0.1488 -0.4510  0.8926
19968SOL     OW62057   2.328   3.079   6.564 -0.6111 -0.4288 -0.1255
19968SOL    HW162058   2.413   3.042   6.588 -1.1115 -0.7049  1.3350
19968SOL    HW262059   2.266   3.035   6.623 -1.7656 -0.2398 -1.1693
19969SOL     OW62060   0.577   1.058   9.088  0.1255  0.3035  0.4203
19969SOL    HW162061   0.662   1.015   9.098  0.2680  0.7995  1.4804
19969SOL    HW262062   0.573   1.081   8.995  0.0942 -1.8417 -0.1554
19970SOL     OW62063   2.976   3.335   9.277 -0.2683  0.3761  0.3232
19970SOL    HW162064   3.066   3.360   9.301 -0.3888  0.0209  1.1744
19970SOL    HW262065   2.926   3.416   9.282  0.1132  0.7002 -0.7579
19971SOL     OW62066   4.618   6.330   1.032 -0.3096  0.6263  0.1648
19971SOL    HW162067   4.534   6.376   1.025 -0.1200  0.7416 -1.9370
19971SOL    HW262068   4.681   6.398   1.056 -0.8941  0.3663  2.8247
19972SOL     OW62069   8.168   9.144   8.812  0.2795 -0.0537  0.2738
19972SOL    HW162070   8.256   9.151   8.776  2.0528 -2.1092  3.7286
19972SOL    HW262071   8.169   9.066   8.867 -3.8407 -0.3603  0.2838
19973SOL     OW62072   7.453   6.127   4.718 -0.3501 -0.3737 -0.0251
19973SOL    HW162073   7.429   6.036   4.701 -1.4026 -0.0468 -0.3671
19973SOL    HW262074   7.527   6.122   4.779 -0.3108 -1.4525 -0.1518
19974SOL     OW62075   8.921   3.525   8.372  0.2284  0.3112 -0.0756
19974SOL    HW162076   8.871   3.559   8.447  0.5059  1.4178 -0.3725
19974SOL    HW262077   8.920   3.430   8.384 -1.4528  0.3337  0.2432
19975SOL     OW62078   5.851   1.540   8.229  0.4784 -0.6248 -0.2150
19975SOL    HW162079   5.833   1.546   8.135 -0.3443 -0.9281 -0.0883
19975SOL    HW262080   5.852   1.631   8.260 -1.4421 -0.5814 -0.1444
19976SOL     OW62081   8.225   4.216   7.534  0.1274 -0.2686  0.2056
19976SOL    HW162082   8.153   4.258   7.487  0.3478  2.1763  1.8757
19976SOL    HW262083   8.270   4.288   7.579  0.1781 -2.2964  3.8129
19977SOL     OW62084   0.993   9.441   4.125  0.4229  0.3154  0.3308
19977SOL    HW162085   0.975   9.534   4.141 -2.0638  0.0460 -0.4166
19977SOL    HW262086   0.925   9.395   4.175  0.8285 -1.0477 -0.3354
19978SOL     OW62087   8.743   2.754   7.212 -0.2067 -0.3929  0.1866
19978SOL    HW162088   8.691   2.816   7.160  1.8081  2.8260  1.7311
19978SOL    HW262089   8.678   2.691   7.245 -2.0718 -0.4668 -3.1373
19979SOL     OW62090   8.174   3.088   4.504  0.8053  0.1946 -0.2247
19979SOL    HW162091   8.093   3.117   4.461  0.4593  0.1307  0.3659
19979SOL    HW262092   8.209   3.168   4.544 -0.3429 -0.1994  1.7200
19980SOL     OW62093   8.843   1.172   8.332 -0.1979 -0.1301  0.4610
19980SOL    HW162094   8.777   1.229   8.371 -1.0564  0.7353 -2.0689
19980SOL    HW262095   8.796   1.092   8.308 -0.3339  0.4161 -1.1861
19981SOL     OW62096   1.688   2.744   7.380 -0.2659 -0.2938 -0.7362
19981SOL    HW162097   1.622   2.775   7.443  1.9218 -0.0597  1.6205
19981SOL    HW262098   1.730   2.824   7.348 -0.5378 -0.4750 -1.5605
19982SOL     OW62099   5.231   0.996   6.063  0.8414 -0.2264 -0.1198
19982SOL    HW162100   5.228   0.956   6.150 -1.2766  1.7862  0.8176
19982SOL    HW262101   5.244   1.089   6.079  0.7732  0.1495 -2.0030
19983SOL     OW62102   7.843   3.741   5.481  0.5646 -0.2789  0.0947
19983SOL    HW162103   7.887   3.669   5.436  0.1524 -0.5899  0.1816
19983SOL    HW262104   7.885   3.820   5.448  1.3614 -0.5824  0.3650
19984SOL     OW62105   2.243   9.372   7.563  0.8106 -0.2940  0.1123
19984SOL    HW162106   2.314   9.436   7.566  2.8114 -2.3023 -1.2598
19984SOL    HW262107   2.233   9.351   7.470  0.8912 -2.5876  0.5500
19985SOL     OW62108   2.316   5.214   2.618 -0.2140 -0.3593  0.1565
19985SOL    HW162109   2.291   5.213   2.525 -0.6092 -2.0938  0.2422
19985SOL    HW262110   2.246   5.164   2.661 -0.3622  0.9568  1.4884
19986SOL     OW62111   1.804   1.266   6.682 -0.4504 -0.8593  0.1299
19986SOL    HW162112   1.718   1.251   6.644 -0.8100  1.1965  0.0422
19986SOL    HW262113   1.848   1.325   6.621  0.1334 -0.0182  1.3309
19987SOL     OW62114   2.099   6.785   8.740  0.0938  0.1849 -0.5324
19987SOL    HW162115   2.011   6.782   8.702  0.3513  0.9332 -1.2423
19987SOL    HW262116   2.140   6.860   8.697  0.5483  0.8301  0.9638
19988SOL     OW62117   5.138   2.342   8.425  0.3245 -0.2120  0.4699
19988SOL    HW162118   5.128   2.343   8.520  0.8320 -0.1292  0.5230
19988SOL    HW262119   5.123   2.433   8.398 -0.6729 -0.3909  0.3749
19989SOL     OW62120   3.078   9.493   4.689  0.4907 -1.1337  0.1069
19989SOL    HW162121   3.033   9.454   4.764  0.2253  0.0091  0.5580
19989SOL    HW262122   3.167   9.511   4.722  0.4860 -0.9701  0.0292
19990SOL     OW62123   1.050   0.079   4.752  0.4436  0.0384  0.1503
19990SOL    HW162124   1.094   0.138   4.813  2.0522 -0.6878 -0.2734
19990SOL    HW262125   1.092  -0.006   4.766 -0.1731 -0.4639 -0.9421
19991SOL     OW62126   4.710   5.314   4.357 -0.2508 -0.1215  0.5662
19991SOL    HW162127   4.701   5.328   4.452  1.6318 -1.9633  1.0808
19991SOL    HW262128   4.646   5.246   4.337 -0.2456 -0.1450  0.6294
19992SOL     OW62129   8.174   7.439   7.662 -0.3485  0.2302 -0.0876
19992SOL    HW162130   8.219   7.487   7.732 -0.4957 -1.2934  1.1145
19992SOL    HW262131   8.107   7.499   7.631 -1.3947  0.3772  2.2779
19993SOL     OW62132   7.635   4.544   1.015  0.6209  0.0074 -0.2328
19993SOL    HW162133   7.583   4.555   1.095  1.1482 -0.2494  0.1577
19993SOL    HW262134   7.615   4.620   0.962  0.6166  0.4227  0.3549
19994SOL     OW62135   7.932   9.137   8.032  0.0941  0.5891 -0.0278
19994SOL    HW162136   7.939   9.120   7.938  0.1834 -0.9888  0.2349
19994SOL    HW262137   7.993   9.075   8.072 -1.2841 -0.0686  1.1649
19995SOL     OW62138   1.760   6.658   7.090 -0.4181  0.0875  0.2291
19995SOL    HW162139   1.694   6.590   7.103  0.1415 -0.7476 -1.0383
19995SOL    HW262140   1.739   6.695   7.004  0.1336  0.5403  0.2868
19996SOL     OW62141   2.301   2.844   3.068  0.3055  0.0616  0.0213
19996SOL    HW162142   2.382   2.885   3.039  0.8522 -0.3397  0.9117
19996SOL    HW262143   2.233   2.909   3.051  0.5483 -0.1873 -2.1803
19997SOL     OW62144   6.633   8.433   0.634 -0.1544 -0.6021 -0.4732
19997SOL    HW162145   6.556   8.425   0.578 -2.2384  2.1076  1.7224
19997SOL    HW262146   6.602   8.412   0.722  1.3164  1.3389  0.6045
19998SOL     OW62147   0.127   7.740   9.105 -0.2488 -0.2170 -0.4971
19998SOL    HW162148   0.213   7.700   9.119 -0.2971 -0.7051 -1.4583
19998SOL    HW262149   0.106   7.782   9.188 -0.0465 -1.9446  0.4857
19999SOL     OW62150   4.792   5.319   1.282 -0.6267  0.0033  0.5892
19999SOL    HW162151   4.874   5.363   1.306  0.3350 -0.3684 -1.7528
19999SOL    HW262152   4.724   5.383   1.302  0.6486  2.3227 -1.9095
20000SOL     OW62153   6.382   9.200   2.981  0.1337 -0.0668  0.0612
20000SOL    HW162154   6.318   9.272   2.981  0.2347  0.0709  2.1683
20000SOL    HW262155   6.345   9.135   2.921 -1.0630  0.7949 -0.1704
20001SOL     OW62156   7.834   3.260   1.292  0.0242  0.3916  0.2914
20001SOL    HW162157   7.889   3.218   1.226 -0.0057  0.0917  0.4539
20001SOL    HW262158   7.806   3.342   1.252 -0.8828 -0.2697 -0.5019
20002SOL     OW62159   7.037   5.787   8.419  0.3139 -0.2327 -0.2838
20002SOL    HW162160   7.059   5.816   8.507 -0.2447  0.1204 -0.2525
20002SOL    HW262161   7.120   5.758   8.381  0.8133  0.9891 -0.1630
20003SOL     OW62162   0.296   9.020   1.921 -0.3001  0.4647 -0.0705
20003SOL    HW162163   0.383   9.022   1.962 -1.1111 -0.0329  1.7802
20003SOL    HW262164   0.235   9.034   1.993 -1.8091 -0.0481 -1.1935
20004SOL     OW62165   2.825   3.779   0.320 -0.7679 -0.2148  0.1617
20004SOL    HW162166   2.879   3.855   0.299 -0.5877 -1.3505 -4.6978
20004SOL    HW262167   2.885   3.718   0.364  1.5139 -0.5568 -3.0697
20005SOL     OW62168   6.170   5.141   3.625 -0.5542  0.1081  0.3105
20005SOL    HW162169   6.194   5.234   3.621  0.3985 -0.1012  1.0528
20005SOL    HW262170   6.093   5.135   3.568 -0.2705  1.2346 -0.2295
20006SOL     OW62171   8.604   5.963   4.910 -0.2771 -0.0574  0.0419
20006SOL    HW162172   8.670   5.963   4.979 -0.2845 -1.2805  0.0726
20006SOL    HW262173   8.650   5.994   4.832  0.0564  0.1281  0.3122
20007SOL     OW62174   2.580   6.469   4.242 -0.1117 -0.1619  0.2446
20007SOL    HW162175   2.557   6.395   4.185  1.6122  0.4896 -1.4002
20007SOL    HW262176   2.515   6.466   4.313 -0.3973 -2.9334 -0.0272
20008SOL     OW62177   9.176   3.224   2.731  0.3974 -0.1385 -0.1887
20008SOL    HW162178   9.139   3.300   2.777  0.4232  0.8404 -1.7331
20008SOL    HW262179   9.199   3.163   2.801 -0.8652  0.7089  1.0116
20009SOL     OW62180   6.749   2.101   2.229  0.0297  0.6879  0.2150
20009SOL    HW162181   6.841   2.078   2.239 -0.1911 -0.7270 -0.7189
20009SOL    HW262182   6.701   2.033   2.278 -0.5364  1.0777  0.2171
20010SOL     OW62183   1.372   6.007   3.085  0.2692  0.6089  0.1417
20010SOL    HW162184   1.430   6.020   3.009 -0.4738 -0.1749 -0.5877
20010SOL    HW262185   1.285   5.994   3.046 -0.5605  2.5279  1.2437
20011SOL     OW62186   3.873   3.175   8.495  0.1427  0.1571 -0.0570
20011SOL    HW162187   3.836   3.262   8.479  0.7438  0.2550 -0.9627
20011SOL    HW262188   3.959   3.177   8.452  0.8396 -0.3627  1.2398
20012SOL     OW62189   1.138   6.668   1.105  0.0568  0.0474  0.5987
20012SOL    HW162190   1.046   6.643   1.118  0.4299 -1.3996  0.6242
20012SOL    HW262191   1.133   6.748   1.052 -1.2054 -0.5283 -0.2175
20013SOL     OW62192   4.228   5.980   9.063 -0.5839  0.6048  0.6583
20013SOL    HW162193   4.275   6.022   9.136 -1.1576 -0.4624  1.6792
20013SOL    HW262194   4.143   5.955   9.101 -0.9961  0.2593 -0.4596
20014SOL     OW62195   8.294   4.759   5.061 -0.1854 -0.4037 -0.0125
20014SOL    HW162196   8.381   4.733   5.032 -0.4552 -0.2764 -0.9873
20014SOL    HW262197   8.235   4.706   5.008 -0.7178  0.9258 -0.7924
20015SOL     OW62198   7.027   2.044   2.250 -0.3472 -0.3637  0.7382
20015SOL    HW162199   7.068   1.984   2.311  1.5073 -0.7121 -0.7739
20015SOL    HW262200   7.051   2.012   2.164 -1.2716  1.2108 -0.1641
20016SOL     OW62201   5.219   0.454   3.763 -0.5521  0.5123 -0.1592
20016SOL    HW162202   5.312   0.464   3.782 -0.3950  0.8359 -1.0512
20016SOL    HW262203   5.178   0.442   3.849  0.3511 -0.0164  0.2071
20017SOL     OW62204   6.836   7.110   1.425  0.1585  0.4629 -0.1748
20017SOL    HW162205   6.775   7.182   1.409 -0.4546 -0.3352 -1.5994
20017SOL    HW262206   6.827   7.053   1.348  0.1125 -1.4768  1.1738
20018SOL     OW62207   6.143   6.481   4.416  0.2270 -0.7069 -0.1673
20018SOL    HW162208   6.201   6.522   4.351  0.9367 -0.6919  0.4517
20018SOL    HW262209   6.078   6.548   4.437  0.5204 -0.4020 -0.2246
20019SOL     OW62210   1.314   9.569   4.051  0.3440 -0.5268 -0.4575
20019SOL    HW162211   1.225   9.549   4.081  0.0483  0.6485 -0.5148
20019SOL    HW262212   1.361   9.596   4.131 -0.1446  1.5468 -0.8094
20020SOL     OW62213   0.672   6.335   4.782 -0.2797 -0.2195 -0.1845
20020SOL    HW162214   0.732   6.289   4.723  1.5248  1.6602  0.0835
20020SOL    HW262215   0.617   6.388   4.724 -2.1980 -2.3803 -0.4750
20021SOL     OW62216   7.638   7.231   1.711 -0.1825 -0.5895  0.1513
20021SOL    HW162217   7.552   7.205   1.743 -0.8171 -1.5118 -2.0913
20021SOL    HW262218   7.651   7.320   1.746 -2.2852 -0.2071  0.0840
20022SOL     OW62219   6.665   8.636   4.404 -0.1543 -0.1197  0.4817
20022SOL    HW162220   6.589   8.590   4.439 -0.9202  1.0661  0.4458
20022SOL    HW262221   6.641   8.657   4.314 -0.1835  1.0640  0.7448
20023SOL     OW62222   0.486   3.748   6.215 -0.3430  0.6468 -0.4155
20023SOL    HW162223   0.442   3.790   6.289 -0.9455 -1.1178  0.2922
20023SOL    HW262224   0.553   3.694   6.256 -1.8739 -1.8063 -0.9441
20024SOL     OW62225   2.067   3.347   3.065 -0.1738 -0.6756 -0.0899
20024SOL    HW162226   2.113   3.431   3.071 -0.1613 -0.7646  1.7590
20024SOL    HW262227   1.975   3.370   3.073 -0.5455 -0.5143 -3.6022
20025SOL     OW62228   3.004   4.940   5.990 -0.1237  0.1089  0.0717
20025SOL    HW162229   2.920   4.972   5.957  0.2885 -0.2872 -1.4355
20025SOL    HW262230   3.069   4.982   5.933  0.5708 -1.2535 -0.1744
20026SOL     OW62231   9.424   0.656   8.930  0.3075  0.1999 -0.6850
20026SOL    HW162232   9.343   0.682   8.974 -1.2111 -3.2804 -1.0362
20026SOL    HW262233   9.492   0.707   8.973 -1.5661  0.1548  2.7281
20027SOL     OW62234   0.574   2.111   0.538  0.0973  0.7285 -0.1733
20027SOL    HW162235   0.658   2.127   0.495 -0.5818  3.2571 -0.7363
20027SOL    HW262236   0.517   2.077   0.469  0.6292 -1.1184  0.2397
20028SOL     OW62237   2.072   0.566   7.436 -0.0164  0.7198  0.3871
20028SOL    HW162238   2.107   0.491   7.389 -0.6588  1.3262 -1.0996
20028SOL    HW262239   2.148   0.602   7.482  0.3450 -0.6614  0.9248
20029SOL     OW62240   6.137   8.005   4.514 -0.5038  0.0334 -0.3578
20029SOL    HW162241   6.056   8.055   4.506 -0.3920  0.3946  0.6135
20029SOL    HW262242   6.130   7.936   4.448 -1.9971 -0.4836  0.3026
20030SOL     OW62243   3.564   6.203   8.594 -0.0371  0.4068 -0.1659
20030SOL    HW162244   3.473   6.177   8.587  0.0894 -0.2285  0.4236
20030SOL    HW262245   3.608   6.159   8.522  0.1405 -0.8885  0.7092
20031SOL     OW62246   0.894   3.753   1.665  0.1759  0.3788 -0.7510
20031SOL    HW162247   0.798   3.744   1.670  0.3706 -1.6092  0.8569
20031SOL    HW262248   0.927   3.680   1.718  2.5720  1.8646 -0.0710
20032SOL     OW62249   2.110   5.205   1.821  0.6832  0.6344  0.1966
20032SOL    HW162250   2.123   5.138   1.754 -0.2754  1.7740 -1.2187
20032SOL    HW262251   2.036   5.173   1.873  1.3571 -0.2066  0.6527
20033SOL     OW62252   3.161   6.928   5.260 -0.1981  0.4941  0.1262
20033SOL    HW162253   3.216   6.996   5.298  1.5729 -2.3261  3.0718
20033SOL    HW262254   3.071   6.955   5.283  0.5835  0.8282  3.2857
20034SOL     OW62255   2.501   2.172   7.690 -0.1663 -0.2464 -0.4191
20034SOL    HW162256   2.554   2.251   7.685 -0.4490 -0.1371 -2.2558
20034SOL    HW262257   2.452   2.181   7.771  1.1849  0.5541  0.3416
20035SOL     OW62258   4.280   9.360   6.593  0.0068 -0.2897 -0.1329
20035SOL    HW162259   4.188   9.365   6.568  0.2827  1.0402 -1.0423
20035SOL    HW262260   4.315   9.289   6.540 -0.4204 -0.5928 -0.0175
20036SOL     OW62261   3.275   0.716   6.991  0.1106 -0.1827  0.0927
20036SOL    HW162262   3.263   0.773   7.067 -1.4658  0.3931 -0.5488
20036SOL    HW262263   3.187   0.686   6.970  0.5226 -0.3186 -1.5231
20037SOL     OW62264   6.231   9.127   2.714  0.7103 -0.3067  0.6753
20037SOL    HW162265   6.185   9.056   2.759 -1.7270  0.1878 -0.8117
20037SOL    HW262266   6.263   9.087   2.633  0.0222  0.0612  0.2053
20038SOL     OW62267   5.060   8.010   4.230 -0.3878  0.4465  0.5663
20038SOL    HW162268   5.154   7.996   4.240 -0.5372  0.3350  1.9781
20038SOL    HW262269   5.020   7.940   4.281 -1.2170  1.0389  0.7481
20039SOL     OW62270   8.944   4.457   7.463 -0.1678  0.5125 -0.1388
20039SOL    HW162271   9.017   4.473   7.522  0.3722  2.6388 -1.2822
20039SOL    HW262272   8.967   4.376   7.417  0.2619 -0.1663  1.2311
20040SOL     OW62273   6.927   1.211   4.019 -0.3253 -0.0910  0.1410
20040SOL    HW162274   6.974   1.129   4.035  1.7277  0.9959  0.0313
20040SOL    HW262275   6.952   1.236   3.930 -1.9492  0.0580 -0.3081
20041SOL     OW62276   3.008   3.186   8.358 -0.9445 -0.2599 -0.2611
20041SOL    HW162277   3.083   3.193   8.298 -0.3318  1.0335  0.6165
20041SOL    HW262278   3.017   3.261   8.416 -2.7095 -0.3216  0.1321
20042SOL     OW62279   8.993   4.118   0.100  0.3137  0.0235  0.2334
20042SOL    HW162280   8.937   4.122   0.178  0.3571 -1.2482  0.3487
20042SOL    HW262281   8.975   4.032   0.062  2.5078 -0.6183  0.5237
20043SOL     OW62282   7.359   8.674   7.576 -0.0792  0.0227  0.0088
20043SOL    HW162283   7.369   8.683   7.671 -0.3237  1.6206 -0.1030
20043SOL    HW262284   7.285   8.614   7.566  0.1673 -0.4373  0.8123
20044SOL     OW62285   2.644   0.117   1.934 -0.0327  0.1263  0.3735
20044SOL    HW162286   2.686   0.031   1.936  0.7456  0.5127  1.7552
20044SOL    HW262287   2.556   0.101   1.970  0.4829  0.0779  1.6658
20045SOL     OW62288   8.509   8.911   0.997  0.3351 -0.1475  0.3649
20045SOL    HW162289   8.535   8.838   0.940  0.7252 -0.0642  0.4352
20045SOL    HW262290   8.420   8.889   1.025  1.2159 -1.6844  2.1321
20046SOL     OW62291   2.179   0.475   2.355  0.1969  0.0983 -0.3105
20046SOL    HW162292   2.085   0.475   2.335  0.4332  0.1933 -1.4704
20046SOL    HW262293   2.218   0.533   2.290  0.7358  2.3868  1.9036
20047SOL     OW62294   8.608   9.274   0.167  0.1079  0.3896  0.5969
20047SOL    HW162295   8.609   9.369   0.174 -0.2183  0.3147  2.2527
20047SOL    HW262296   8.675   9.245   0.229 -0.6996 -0.4737  1.0873
20048SOL     OW62297   1.288   2.370   7.661  0.3169  0.2852  0.7848
20048SOL    HW162298   1.223   2.434   7.690 -0.3089  0.6358 -1.2829
20048SOL    HW262299   1.255   2.338   7.577  2.4040 -0.1655  0.0885
20049SOL     OW62300   6.542   2.565   0.845  0.4019 -0.2598 -0.4810
20049SOL    HW162301   6.555   2.606   0.759 -0.0690  0.8796 -0.0436
20049SOL    HW262302   6.617   2.593   0.897 -0.9846  1.9937  0.4846
20050SOL     OW62303   4.860   3.438   9.066  0.4445 -0.6151 -0.0584
20050SOL    HW162304   4.837   3.530   9.051  1.1790 -0.6063 -1.2158
20050SOL    HW262305   4.789   3.388   9.026  1.3895 -0.5657 -1.8642
20051SOL     OW62306   1.358   1.668   6.773 -0.6204 -0.1351 -0.1462
20051SOL    HW162307   1.421   1.628   6.833  1.2673 -1.7621 -2.9886
20051SOL    HW262308   1.286   1.605   6.768 -1.5199  0.7135  1.4625
20052SOL     OW62309   0.411   8.754   0.623  0.0154 -0.0824  0.3788
20052SOL    HW162310   0.445   8.844   0.624  1.4515 -0.5893  0.7012
20052SOL    HW262311   0.439   8.717   0.707 -0.8739 -0.7298  0.4073
20053SOL     OW62312   8.226   3.201   8.005 -0.2284  0.6262  0.0107
20053SOL    HW162313   8.319   3.180   7.999 -0.0666  1.6759 -2.2923
20053SOL    HW262314   8.223   3.279   8.061  0.0900 -0.1966  1.2190
20054SOL     OW62315   4.028   4.523   6.935  0.4325 -0.6651  0.2468
20054SOL    HW162316   4.034   4.600   6.879 -2.1519  0.2383  1.0660
20054SOL    HW262317   4.009   4.451   6.874 -0.6260 -0.0086 -0.2326
20055SOL     OW62318   0.816   7.322   0.872 -0.2752  0.1698 -0.7047
20055SOL    HW162319   0.747   7.323   0.806 -0.4644  0.5331 -0.5039
20055SOL    HW262320   0.856   7.409   0.867  1.3114 -0.5811 -1.9987
20056SOL     OW62321   1.981   9.108   6.580 -0.5017 -0.1682 -0.0259
20056SOL    HW162322   1.967   9.073   6.668 -1.0775  2.5867  1.0784
20056SOL    HW262323   2.044   9.179   6.593 -0.5261  0.2267 -1.8697
20057SOL     OW62324   5.972   1.253   1.186 -0.3100  0.2081  0.4559
20057SOL    HW162325   6.000   1.309   1.113  0.3698  0.0970  0.6256
20057SOL    HW262326   5.972   1.311   1.262  2.2507 -0.3957  1.0151
20058SOL     OW62327   6.128   9.404   3.950  0.2615  0.3425 -0.7650
20058SOL    HW162328   6.216   9.438   3.962  0.1908  0.2174  0.2347
20058SOL    HW262329   6.076   9.446   4.019 -0.2136 -0.4244 -0.6366
20059SOL     OW62330   2.756   6.019   6.622  0.1272  0.1019  0.6116
20059SOL    HW162331   2.710   5.946   6.661 -0.0792 -0.1030  0.0009
20059SOL    HW262332   2.790   5.985   6.539  0.5414  0.5255  0.6019
20060SOL     OW62333   7.257   0.348   7.679 -0.0974 -0.3385  0.0095
20060SOL    HW162334   7.207   0.418   7.722 -0.8178 -0.6285 -0.3385
20060SOL    HW262335   7.345   0.355   7.717 -0.6428 -0.4162  1.3381
20061SOL     OW62336   4.757   0.547   0.194 -0.3391  0.0901  0.1190
20061SOL    HW162337   4.677   0.592   0.217 -0.2615  0.4774 -0.3443
20061SOL    HW262338   4.790   0.594   0.117  0.0716 -0.3654  0.0085
20062SOL     OW62339   6.970   7.840   7.374  0.1081 -0.1679 -0.6873
20062SOL    HW162340   6.987   7.849   7.280  2.8211 -0.2191 -0.2682
20062SOL    HW262341   7.013   7.917   7.413  0.7834 -1.2036  0.6718
20063SOL     OW62342   0.042   3.493   9.496 -0.1518 -0.7361 -0.4010
20063SOL    HW162343   0.033   3.514   9.588  1.0599  0.4188 -0.5183
20063SOL    HW262344   0.019   3.400   9.490  0.2417 -0.9596  1.1327
20064SOL     OW62345   2.944   6.737   8.846  0.3550 -0.1840 -0.2694
20064SOL    HW162346   3.000   6.813   8.861  0.0456 -0.1205  0.6198
20064SOL    HW262347   2.934   6.696   8.932  0.1688 -0.9931 -0.6635
20065SOL     OW62348   1.222   5.442   0.505 -0.5582  0.8607  0.2251
20065SOL    HW162349   1.226   5.349   0.482 -1.9512  1.0605 -1.0516
20065SOL    HW262350   1.190   5.443   0.595 -0.0193  0.1048  0.4394
20066SOL     OW62351   1.582   1.255   0.166 -0.0869  0.1251  0.1023
20066SOL    HW162352   1.667   1.279   0.203 -0.0351  0.7940 -0.4434
20066SOL    HW262353   1.603   1.205   0.087 -0.1357 -3.5283  2.1404
20067SOL     OW62354   8.762   2.641   4.910  0.4739  0.4058  0.2951
20067SOL    HW162355   8.837   2.698   4.926  1.9488 -1.6962  1.4744
20067SOL    HW262356   8.761   2.627   4.816  0.8233  1.3867  0.1394
20068SOL     OW62357   3.500   5.369   2.396 -0.1033 -0.1994 -0.7210
20068SOL    HW162358   3.552   5.329   2.465  0.6157  1.8808  0.0054
20068SOL    HW262359   3.528   5.325   2.316  3.6979  1.5184 -0.5624
20069SOL     OW62360   0.489   0.494   8.252  0.7277 -0.0676 -0.1263
20069SOL    HW162361   0.530   0.580   8.246  0.4566  0.2600  1.8494
20069SOL    HW262362   0.553   0.434   8.213  1.7387  0.8095  0.1291
20070SOL     OW62363   5.601   6.689   1.151  0.1480 -0.2002 -0.3638
20070SOL    HW162364   5.521   6.670   1.199  0.7407 -2.0815 -0.0141
20070SOL    HW262365   5.593   6.639   1.070  0.0176  1.3946 -1.3707
20071SOL     OW62366   6.128   0.823   7.345 -0.0134 -0.0901  0.2606
20071SOL    HW162367   6.171   0.743   7.316 -0.8102 -0.2643 -0.4810
20071SOL    HW262368   6.050   0.830   7.289 -0.9553  0.2014  1.5699
20072SOL     OW62369   9.354   6.391   0.240 -0.2819 -0.5859  0.7764
20072SOL    HW162370   9.411   6.458   0.204  0.0279 -1.5576 -0.6268
20072SOL    HW262371   9.276   6.392   0.185 -0.1072 -1.6219  0.4766
20073SOL     OW62372   8.368   4.241   3.407  0.5889  0.0126  0.1257
20073SOL    HW162373   8.382   4.334   3.421 -0.3538  0.0829  0.6066
20073SOL    HW262374   8.390   4.227   3.315  2.0116  0.4533  0.3702
20074SOL     OW62375   6.854   2.691   3.867 -0.2116 -0.3842 -0.3793
20074SOL    HW162376   6.936   2.697   3.817  0.8007  1.3261  1.3171
20074SOL    HW262377   6.795   2.752   3.823 -0.0213 -0.4095 -0.6759
20075SOL     OW62378   9.619   8.607   3.697  0.3496  0.0048 -0.0168
20075SOL    HW162379   9.713   8.619   3.708 -0.0415  1.8017  2.2510
20075SOL    HW262380   9.594   8.546   3.766 -0.1462 -0.6585 -0.7611
20076SOL     OW62381   4.377   3.661   4.854 -0.4668  0.3800 -0.1937
20076SOL    HW162382   4.335   3.714   4.922 -1.6080 -1.3501  0.5253
20076SOL    HW262383   4.469   3.658   4.879 -0.3159  2.2316 -0.4311
20077SOL     OW62384   4.079   2.314   1.278  0.5147 -0.1329  0.1671
20077SOL    HW162385   4.026   2.387   1.245 -0.5576 -1.3395 -0.8869
20077SOL    HW262386   4.165   2.327   1.237  0.2164  0.3146 -0.3379
20078SOL     OW62387   5.835   3.718   1.539 -0.5035  0.2732 -0.0408
20078SOL    HW162388   5.773   3.770   1.489  0.1536  1.1117 -0.0118
20078SOL    HW262389   5.798   3.630   1.539 -0.2413  0.0886 -2.5266
20079SOL     OW62390   2.537   8.204   4.273 -0.1921  0.0055 -0.0667
20079SOL    HW162391   2.527   8.203   4.178 -0.5339  1.6486 -0.0784
20079SOL    HW262392   2.601   8.272   4.290  2.3799 -2.4516  0.7508
20080SOL     OW62393   9.347   3.783   6.337 -0.5170 -0.2679 -0.8350
20080SOL    HW162394   9.369   3.844   6.407 -0.3278  0.2145 -1.3046
20080SOL    HW262395   9.421   3.790   6.276 -1.4380  0.5330 -1.8850
20081SOL     OW62396   3.148   8.955   5.775 -0.0070 -0.0203  0.1297
20081SOL    HW162397   3.229   8.968   5.825 -0.2537 -0.0412  0.5348
20081SOL    HW262398   3.104   9.040   5.779  0.3599  0.2226 -0.7507
20082SOL     OW62399   0.737   1.002   1.946  0.5760 -0.1521  0.2923
20082SOL    HW162400   0.795   0.956   2.008  0.9666 -0.4367 -0.2766
20082SOL    HW262401   0.658   1.020   1.996 -0.2387 -2.8492  0.1021
20083SOL     OW62402   0.874   7.082   5.434  0.1794  0.0121  0.1232
20083SOL    HW162403   0.803   7.107   5.494 -1.4504 -1.5081 -1.0524
20083SOL    HW262404   0.865   7.143   5.361  0.5609  0.2749  0.2936
20084SOL     OW62405   6.230   7.483   4.622 -0.5125  0.2804  0.1673
20084SOL    HW162406   6.146   7.440   4.640 -0.7361 -0.3011 -2.0100
20084SOL    HW262407   6.268   7.433   4.550  1.7170  0.5743  1.0432
20085SOL     OW62408   0.540   7.756   5.224 -0.4867 -0.0455 -0.4559
20085SOL    HW162409   0.462   7.807   5.248  0.3265  0.8858  0.2735
20085SOL    HW262410   0.604   7.822   5.196  0.2728 -0.7433 -0.3919
20086SOL     OW62411   7.331   1.580   3.899 -0.4095 -0.5044 -0.3137
20086SOL    HW162412   7.308   1.515   3.833  0.3064 -1.4290  0.3191
20086SOL    HW262413   7.259   1.577   3.962 -0.9079  0.1069 -0.8487
20087SOL     OW62414   3.367   0.594   2.568  0.0918  0.6253 -0.1425
20087SOL    HW162415   3.273   0.601   2.582 -0.0142  2.6215 -1.4380
20087SOL    HW262416   3.376   0.547   2.486  0.1060  2.1593 -1.0545
20088SOL     OW62417   0.909   1.555   4.892  0.4115  0.5417 -0.4560
20088SOL    HW162418   0.889   1.648   4.899  0.1491  0.3780  1.7182
20088SOL    HW262419   0.845   1.512   4.949  0.9037 -0.9207 -0.9506
20089SOL     OW62420   8.232   3.328   5.383 -0.9217 -0.1569 -0.3446
20089SOL    HW162421   8.245   3.423   5.390  1.2283 -0.4872  1.2065
20089SOL    HW262422   8.148   3.312   5.425  0.0147  0.8106  2.0426
20090SOL     OW62423   6.185   5.412   8.009 -0.3798 -0.4265 -0.1863
20090SOL    HW162424   6.141   5.462   7.940 -2.3066 -0.4060  0.9905
20090SOL    HW262425   6.181   5.321   7.979  0.9652 -0.1866 -1.1919
20091SOL     OW62426   6.256   2.247   9.447  0.2735 -0.1961  0.1869
20091SOL    HW162427   6.167   2.243   9.411  0.2074 -2.9898  0.5083
20091SOL    HW262428   6.244   2.251   9.542  0.5190  0.7026  0.1937
20092SOL     OW62429   4.333   9.358   6.217 -0.0441  0.5901 -0.1667
20092SOL    HW162430   4.252   9.382   6.263 -0.1310  0.9832 -0.5092
20092SOL    HW262431   4.379   9.441   6.207  0.8484  0.2298  0.8508
20093SOL     OW62432   3.794   5.263   4.569 -0.6474  0.3466 -0.1702
20093SOL    HW162433   3.725   5.222   4.516 -0.6802  0.9856 -0.6317
20093SOL    HW262434   3.842   5.318   4.507  0.8172 -0.7174 -0.0519
20094SOL     OW62435   8.312   4.955   5.797  0.0135 -0.3708 -0.2582
20094SOL    HW162436   8.266   4.882   5.838  0.9543 -0.3722  0.8566
20094SOL    HW262437   8.281   5.032   5.843  0.0860 -0.2213 -0.4564
20095SOL     OW62438   4.487   1.342   3.072  0.3086 -0.6765 -0.1268
20095SOL    HW162439   4.490   1.287   2.994 -0.5226  2.4450 -2.5882
20095SOL    HW262440   4.430   1.295   3.132  2.2571 -3.9724 -0.6168
20096SOL     OW62441   1.386   5.588   7.753 -0.6612 -0.0211 -0.4898
20096SOL    HW162442   1.330   5.624   7.822 -0.4524  0.7373 -0.7054
20096SOL    HW262443   1.473   5.624   7.772 -0.4071 -0.5597 -0.6122
20097SOL     OW62444   7.360   5.896   8.255  0.5821  0.9329 -0.1986
20097SOL    HW162445   7.363   5.872   8.162  1.0881  4.0928 -1.1043
20097SOL    HW262446   7.313   5.824   8.296  0.0198 -0.4141 -2.9556
20098SOL     OW62447   7.806   2.065   9.061 -0.4619 -0.3902 -0.1237
20098SOL    HW162448   7.892   2.105   9.072 -1.2244  1.3718 -0.0884
20098SOL    HW262449   7.790   2.019   9.143 -0.0506  0.2981  0.3529
20099SOL     OW62450   1.269   4.338   9.032  0.2426 -0.2285  0.1589
20099SOL    HW162451   1.255   4.433   9.040  0.5014 -0.0444 -1.3951
20099SOL    HW262452   1.196   4.299   9.080  1.2348  0.7162  2.6441
20100SOL     OW62453   2.627   0.532   2.527 -0.2843  0.2168 -0.4668
20100SOL    HW162454   2.677   0.579   2.595 -1.4089 -0.5163  0.9252
20100SOL    HW262455   2.633   0.588   2.450  1.0976  1.0572  0.2056
20101SOL     OW62456   2.134   2.533   7.114 -0.4424 -0.1423  0.3934
20101SOL    HW162457   2.084   2.452   7.121 -1.5175  0.4807  0.2262
20101SOL    HW262458   2.108   2.584   7.191 -1.0403  0.7012 -0.3410
20102SOL     OW62459   1.494   0.686   3.836 -0.0386 -0.0034 -0.0214
20102SOL    HW162460   1.511   0.777   3.813 -0.6312 -0.3435 -1.9488
20102SOL    HW262461   1.504   0.637   3.754  0.5174 -1.7362  1.0052
20103SOL     OW62462   2.092   6.411   7.969  0.6951  0.3104 -0.3769
20103SOL    HW162463   2.040   6.404   8.050  2.9555  1.8223  1.3347
20103SOL    HW262464   2.029   6.395   7.899 -1.9413  1.3837  1.5633
20104SOL     OW62465   4.311   1.210   2.631  0.0897 -0.0839  0.2119
20104SOL    HW162466   4.403   1.187   2.644 -0.3227 -1.1935  1.3011
20104SOL    HW262467   4.313   1.301   2.601  1.4475  0.6321  2.2759
20105SOL     OW62468   0.197   3.499   2.156 -0.4722  0.0399 -0.4671
20105SOL    HW162469   0.124   3.490   2.095 -1.0079  0.9437  0.0226
20105SOL    HW262470   0.259   3.555   2.111  0.2059 -1.2003 -1.1224
20106SOL     OW62471   5.513   9.522   7.152  0.1533  0.0557 -0.0171
20106SOL    HW162472   5.489   9.445   7.205 -0.5898 -0.9151 -1.6920
20106SOL    HW262473   5.603   9.541   7.177  0.3012 -1.2750  0.5512
20107SOL     OW62474   1.847   5.990   3.442 -0.0944  0.5204 -0.2590
20107SOL    HW162475   1.793   5.926   3.396  0.9096 -0.8119  0.3639
20107SOL    HW262476   1.785   6.043   3.491 -0.8638 -1.0666  0.5480
20108SOL     OW62477   2.792   5.265   1.287 -0.0678 -0.3879 -0.4319
20108SOL    HW162478   2.809   5.237   1.376 -0.4769 -0.0711 -0.2473
20108SOL    HW262479   2.855   5.334   1.270 -0.1027 -0.3314 -0.3281
20109SOL     OW62480   4.421   2.262   8.048  0.0294  0.4443 -0.1702
20109SOL    HW162481   4.514   2.263   8.071  0.1354  0.5895 -0.6061
20109SOL    HW262482   4.383   2.193   8.104 -0.0000  1.7745  1.5394
20110SOL     OW62483   0.600   8.549   1.831 -0.0076  0.2897 -0.3605
20110SOL    HW162484   0.584   8.639   1.802  1.5344  0.8799  0.4703
20110SOL    HW262485   0.516   8.519   1.864 -0.5761  1.3940 -0.7278
20111SOL     OW62486   7.210   6.061   3.034  0.4200 -0.0148 -0.2089
20111SOL    HW162487   7.252   6.001   2.972  1.6846 -0.5739  1.1339
20111SOL    HW262488   7.143   6.008   3.077 -0.8378  0.5217 -1.4248
20112SOL     OW62489   8.090   8.319   1.787 -0.3773 -0.1352 -0.4147
20112SOL    HW162490   8.038   8.397   1.806 -0.4045 -0.3694  0.5192
20112SOL    HW262491   8.180   8.344   1.810 -0.5738 -0.7790  1.1425
20113SOL     OW62492   8.582   9.316   2.973  0.1717  0.2438 -0.2149
20113SOL    HW162493   8.658   9.274   3.015  0.6517 -0.4460 -1.6833
20113SOL    HW262494   8.507   9.272   3.011  0.3100  2.2897  2.7533
20114SOL     OW62495   5.301   5.345   6.228  0.2745  0.1950  0.2803
20114SOL    HW162496   5.307   5.256   6.193 -1.6567  0.2103 -0.2421
20114SOL    HW262497   5.234   5.387   6.174  0.8992  1.8628  0.7521
20115SOL     OW62498   3.076   1.722   8.304  0.1666 -0.1711 -0.3718
20115SOL    HW162499   3.053   1.647   8.248  1.7890 -0.2678 -0.9755
20115SOL    HW262500   3.057   1.692   8.393  0.6003 -1.2431 -0.6236
20116SOL     OW62501   7.518   0.924   4.351 -0.6101 -0.1721  0.0908
20116SOL    HW162502   7.608   0.955   4.358 -0.0152 -1.7022 -0.3089
20116SOL    HW262503   7.526   0.830   4.338 -2.3155 -0.6639  1.9818
20117SOL     OW62504   5.439   2.786   4.300 -0.0872 -0.0255  0.3120
20117SOL    HW162505   5.441   2.749   4.212  1.5447 -0.8208  0.6437
20117SOL    HW262506   5.530   2.786   4.328 -0.6977 -1.0577  2.5266
20118SOL     OW62507   0.320   6.535   5.181 -0.5882  0.1034  0.1330
20118SOL    HW162508   0.256   6.606   5.176  1.3649  1.9336 -0.3839
20118SOL    HW262509   0.355   6.540   5.270  0.0319  0.2165 -0.1157
20119SOL     OW62510   0.565   1.642   8.109 -0.6281 -0.2471 -0.7349
20119SOL    HW162511   0.536   1.585   8.181  1.0143 -1.0036 -0.6089
20119SOL    HW262512   0.570   1.583   8.034 -0.3518  0.0680 -0.9639
20120SOL     OW62513   6.286   8.535   4.245 -0.4600 -0.5075 -0.3152
20120SOL    HW162514   6.342   8.604   4.209 -0.4533  0.0885  0.7861
20120SOL    HW262515   6.337   8.497   4.317 -0.9442 -0.8447 -0.1396
20121SOL     OW62516   8.527   7.084   6.615 -0.5083  0.1559  0.0338
20121SOL    HW162517   8.498   7.153   6.674 -0.4431 -0.0054  0.2550
20121SOL    HW262518   8.564   7.130   6.540 -1.8030  0.3838 -0.5000
20122SOL     OW62519   6.314   6.117   4.007  0.0831  0.4265 -0.5233
20122SOL    HW162520   6.297   6.204   4.042 -1.2528  0.1762 -0.5141
20122SOL    HW262521   6.368   6.075   4.073 -0.1879  0.8687 -0.0147
20123SOL     OW62522   8.025   8.042   1.719 -0.2391 -0.0807  0.1879
20123SOL    HW162523   8.029   8.127   1.763 -0.5151 -1.1493  2.4117
20123SOL    HW262524   7.992   8.063   1.631  3.9146  2.6412 -1.0312
20124SOL     OW62525   8.515   4.462   1.437  0.3173 -0.4908 -0.0017
20124SOL    HW162526   8.438   4.436   1.487  0.5647  0.3688  0.8500
20124SOL    HW262527   8.580   4.488   1.502 -0.2760  3.2937 -0.6916
20125SOL     OW62528   7.724   0.926   5.550  0.1763  0.1195 -0.4671
20125SOL    HW162529   7.750   0.839   5.520  1.0195  0.3509 -0.4207
20125SOL    HW262530   7.748   0.928   5.642  0.1416  0.4016 -0.4632
20126SOL     OW62531   9.311   2.854   7.618 -0.0317  0.3049  0.1724
20126SOL    HW162532   9.248   2.883   7.684 -1.6882 -0.2710 -1.0784
20126SOL    HW262533   9.283   2.766   7.596 -0.2585  0.8880 -2.1119
20127SOL     OW62534   3.467   5.762   8.770  0.1839  0.6111 -0.9103
20127SOL    HW162535   3.403   5.695   8.747 -0.7700  0.9345  0.6144
20127SOL    HW262536   3.514   5.725   8.845  0.8123  0.9594 -1.1272
20128SOL     OW62537   8.315   7.275   0.742  0.2045  0.1783  0.1126
20128SOL    HW162538   8.290   7.256   0.833  0.7365 -0.7300  0.0884
20128SOL    HW262539   8.368   7.199   0.716  0.8156  0.8547 -0.6652
20129SOL     OW62540   0.903   0.195   3.716  0.3331 -0.2697  0.1325
20129SOL    HW162541   0.878   0.204   3.808  0.6561 -0.4984  0.2493
20129SOL    HW262542   0.972   0.128   3.717  1.3437  0.7332 -0.0924
20130SOL     OW62543   3.607   7.862   4.233  0.0346 -0.3696  0.2916
20130SOL    HW162544   3.618   7.767   4.244  0.7589 -0.1561  1.5974
20130SOL    HW262545   3.514   7.877   4.250 -0.7870 -1.1525 -2.7254
20131SOL     OW62546   6.963   1.859   9.180 -0.5360  0.1138  0.1653
20131SOL    HW162547   6.978   1.935   9.237 -0.1528  1.1655 -1.3041
20131SOL    HW262548   6.878   1.825   9.209 -1.1309  1.6148  0.2849
20132SOL     OW62549   9.480   5.152   7.476  0.2153  0.1939  0.7775
20132SOL    HW162550   9.462   5.099   7.554 -0.3705  1.0507  1.2319
20132SOL    HW262551   9.536   5.096   7.422  2.1926  0.2462  2.6334
20133SOL     OW62552   3.871   2.286   0.010 -0.2550  0.4136  0.5070
20133SOL    HW162553   3.947   2.327   0.051 -0.2971 -1.0501  2.1344
20133SOL    HW262554   3.908   2.238  -0.064  0.1543  1.0692  0.2707
20134SOL     OW62555   8.715   4.101   2.821  0.5005  0.7639  0.1230
20134SOL    HW162556   8.690   4.077   2.910  1.3874 -1.2135 -0.1003
20134SOL    HW262557   8.635   4.092   2.769  0.3567  0.2681  0.4296
20135SOL     OW62558   5.007   8.034   5.006 -0.0924  0.0594  0.5479
20135SOL    HW162559   5.040   8.121   4.982  1.2791 -0.4564  0.4854
20135SOL    HW262560   4.915   8.035   4.977  0.8672  0.1746 -3.0261
20136SOL     OW62561   3.618   7.153   0.855 -0.1271  0.4828 -0.1740
20136SOL    HW162562   3.696   7.132   0.804  0.0040 -0.3080  0.3322
20136SOL    HW262563   3.547   7.105   0.811  0.2183 -1.3768  1.1415
20137SOL     OW62564   1.317   4.567   0.347  0.6279  0.1443  0.2859
20137SOL    HW162565   1.323   4.555   0.252 -0.0201  1.6668  0.0147
20137SOL    HW262566   1.399   4.611   0.370 -0.0650  1.6111  0.0707
20138SOL     OW62567   3.319   2.522   3.364  0.1425 -0.1842 -0.5215
20138SOL    HW162568   3.390   2.585   3.378 -0.6929  0.5404  0.6683
20138SOL    HW262569   3.339   2.449   3.422  0.6238 -0.6152 -1.2146
20139SOL     OW62570   8.589   8.444   8.125 -0.2720 -0.0890  0.1070
20139SOL    HW162571   8.509   8.399   8.099 -0.5122  0.7890 -0.7151
20139SOL    HW262572   8.581   8.532   8.089  0.6287  0.3218  0.8515
20140SOL     OW62573   5.179   6.135   3.092 -0.1825  0.2327 -0.1154
20140SOL    HW162574   5.251   6.121   3.154  0.3485  1.5319 -0.3965
20140SOL    HW262575   5.219   6.125   3.006 -0.6395 -0.3475 -0.2614
20141SOL     OW62576   6.600   6.378   8.068 -0.3451  0.1905  1.0948
20141SOL    HW162577   6.527   6.322   8.093 -1.0485 -0.5940 -2.2044
20141SOL    HW262578   6.656   6.323   8.013  0.5569  1.8682  0.2299
20142SOL     OW62579   1.585   7.353   2.915 -0.0852  0.3061 -0.1827
20142SOL    HW162580   1.529   7.315   2.848  3.5400 -0.3998 -3.1370
20142SOL    HW262581   1.594   7.285   2.981 -2.9404  0.6369  0.6598
20143SOL     OW62582   2.582   8.889   2.465 -0.8473 -0.1999 -0.2061
20143SOL    HW162583   2.660   8.840   2.490 -0.8041  0.0466  0.1660
20143SOL    HW262584   2.536   8.832   2.404 -1.4854 -1.2889  1.2335
20144SOL     OW62585   5.159   1.111   2.588  0.1881 -0.1030 -0.0419
20144SOL    HW162586   5.143   1.026   2.627 -1.0424  0.5213  0.8974
20144SOL    HW262587   5.188   1.166   2.661 -1.0665  0.7954 -0.1819
20145SOL     OW62588   6.176   1.261   9.461 -0.0853  0.1532 -0.0477
20145SOL    HW162589   6.177   1.231   9.552 -0.9969  0.8289  0.1936
20145SOL    HW262590   6.084   1.260   9.437  0.3097 -3.0838 -2.0283
20146SOL     OW62591   7.320   4.224   4.283  0.2665 -0.2028 -0.1987
20146SOL    HW162592   7.331   4.319   4.287  0.6720 -0.0244 -3.2885
20146SOL    HW262593   7.229   4.212   4.255  0.0858 -0.7577  0.6124
20147SOL     OW62594   6.457   1.455   1.275 -0.7684  0.3909 -0.0382
20147SOL    HW162595   6.517   1.431   1.345 -0.7941  1.9575  0.5598
20147SOL    HW262596   6.392   1.385   1.273  0.3739 -0.7041  0.1201
20148SOL     OW62597   8.298   9.419   6.496  0.5554 -0.0792  0.0229
20148SOL    HW162598   8.371   9.444   6.440 -0.4376  2.8132 -0.1311
20148SOL    HW262599   8.220   9.429   6.441 -0.1612 -0.8662  0.8548
20149SOL     OW62600   8.633   5.967   3.540 -0.2985 -0.5100  0.0659
20149SOL    HW162601   8.696   5.982   3.611  1.6716  0.5910 -1.8254
20149SOL    HW262602   8.562   6.030   3.557  0.7115  0.5608  0.4114
20150SOL     OW62603   7.380   5.891   3.656  0.0907 -0.2859 -0.1386
20150SOL    HW162604   7.327   5.894   3.577 -2.5464 -1.0101  1.4504
20150SOL    HW262605   7.437   5.968   3.651 -2.8075  1.9959 -0.9207
20151SOL     OW62606   7.569   1.076   0.365  0.3138  0.4314  0.7172
20151SOL    HW162607   7.519   1.123   0.298  0.9853 -0.1070 -0.1787
20151SOL    HW262608   7.526   0.990   0.371  2.5259 -1.0143 -1.8862
20152SOL     OW62609   8.305   9.002   2.775 -0.4558 -0.5512 -0.1159
20152SOL    HW162610   8.285   8.950   2.697  0.9771 -1.8035  0.3106
20152SOL    HW262611   8.332   8.938   2.840  0.2581  0.6390  0.7923
20153SOL     OW62612   5.109   6.920   1.837  0.1427 -0.0741 -0.1381
20153SOL    HW162613   5.027   6.968   1.834 -0.4239 -1.0681 -1.8691
20153SOL    HW262614   5.084   6.829   1.853  1.2385  0.1569  3.9438
20154SOL     OW62615   8.107   7.691   1.548 -0.2674 -0.1249 -0.0477
20154SOL    HW162616   8.094   7.784   1.528  0.6154 -0.1798 -0.9427
20154SOL    HW262617   8.182   7.690   1.607  0.6753 -0.3616 -1.2248
20155SOL     OW62618   0.095   9.310   7.114 -0.1059 -0.6268  0.1603
20155SOL    HW162619   0.116   9.243   7.180  1.0604 -0.1243  0.3131
20155SOL    HW262620   0.002   9.329   7.130 -0.2316 -1.5712  0.6862
20156SOL     OW62621   6.859   7.114   0.771 -0.2023  0.0397  0.6878
20156SOL    HW162622   6.910   7.037   0.744 -2.8342 -1.3732 -0.6180
20156SOL    HW262623   6.878   7.123   0.865  0.8408 -1.6744  0.6962
20157SOL     OW62624   0.301   8.611   6.663  0.2265 -0.1507 -0.0556
20157SOL    HW162625   0.304   8.660   6.745 -2.1119 -1.0373  0.6616
20157SOL    HW262626   0.311   8.678   6.594 -0.2412  0.9610  0.9210
20158SOL     OW62627   4.425   3.166   8.821 -0.2058  0.1676  0.1381
20158SOL    HW162628   4.350   3.150   8.878 -0.4969  3.1308  0.7480
20158SOL    HW262629   4.390   3.159   8.732 -1.4477  2.0256  0.4083
20159SOL     OW62630   7.047   4.874   2.913 -0.2935  0.2131 -0.1787
20159SOL    HW162631   6.995   4.953   2.898  0.7922  0.8336 -0.8097
20159SOL    HW262632   7.105   4.868   2.837  1.4996  0.3088  1.1023
20160SOL     OW62633   8.623   8.664   6.427  0.0520 -0.6767 -1.1469
20160SOL    HW162634   8.705   8.661   6.377 -0.0996  0.5636 -1.5063
20160SOL    HW262635   8.555   8.653   6.360 -0.1851  1.7174 -1.3967
20161SOL     OW62636   3.705   0.638   3.335  0.2663 -0.1299 -0.2426
20161SOL    HW162637   3.713   0.733   3.338  0.1303 -0.1134 -0.3613
20161SOL    HW262638   3.622   0.623   3.289  0.4476 -0.3095 -0.5144
20162SOL     OW62639   8.110   8.110   7.773  0.8071 -0.0939 -0.2629
20162SOL    HW162640   8.111   8.067   7.688  0.4545 -2.2293  0.7623
20162SOL    HW262641   8.156   8.193   7.758  0.7261 -0.3909 -2.5149
20163SOL     OW62642   6.753   5.650   5.926 -0.1186  0.7252 -0.3955
20163SOL    HW162643   6.767   5.616   5.838  1.2227 -0.6123  0.2868
20163SOL    HW262644   6.752   5.572   5.982 -0.3580  1.5856  0.8496
20164SOL     OW62645   0.922   5.040   7.900  0.0553  0.3108  0.2554
20164SOL    HW162646   0.929   5.099   7.975 -1.4689  0.8494 -0.0049
20164SOL    HW262647   0.864   5.085   7.839 -2.7944 -2.2417  0.8576
20165SOL     OW62648   7.859   8.766   5.798  0.3209 -0.3938  0.0892
20165SOL    HW162649   7.778   8.815   5.787  0.8458  0.4435 -0.0756
20165SOL    HW262650   7.883   8.779   5.890 -0.1072 -1.2473  0.3360
20166SOL     OW62651   8.289   1.833   3.985 -0.7764  0.3789  0.3255
20166SOL    HW162652   8.353   1.863   4.050  0.0024 -1.1181  0.2978
20166SOL    HW262653   8.204   1.861   4.020 -0.1546  2.1154  0.5251
20167SOL     OW62654   2.398   0.475   3.052 -0.1570  0.0419 -0.7016
20167SOL    HW162655   2.378   0.464   2.959 -1.1060 -1.6198 -0.3544
20167SOL    HW262656   2.328   0.426   3.097 -1.0617  2.7082  1.0039
20168SOL     OW62657   7.535   9.540   3.603 -0.6734 -0.2478  0.2433
20168SOL    HW162658   7.593   9.583   3.666 -0.7462  0.6948 -0.3123
20168SOL    HW262659   7.508   9.459   3.647  1.3929 -0.9524  0.3497
20169SOL     OW62660   4.634   5.321   1.608 -0.7164 -0.2095  0.4192
20169SOL    HW162661   4.651   5.227   1.603  0.8426  0.0144  1.0940
20169SOL    HW262662   4.582   5.340   1.529  0.9395 -1.2380 -0.9726
20170SOL     OW62663   0.413   2.049   2.810 -0.2997 -0.2465 -0.3974
20170SOL    HW162664   0.351   2.047   2.883 -1.0013 -2.2265 -0.9670
20170SOL    HW262665   0.445   1.958   2.804  0.5435  0.1137 -1.8737
20171SOL     OW62666   8.266   9.049   5.267 -0.1828  0.2232  0.0777
20171SOL    HW162667   8.183   9.013   5.299  0.0426  0.5858  1.1150
20171SOL    HW262668   8.241   9.131   5.224 -0.6576 -0.9426 -1.9989
20172SOL     OW62669   1.874   5.391   0.668 -1.0973 -0.2274  0.0099
20172SOL    HW162670   1.936   5.336   0.717 -0.5736  0.1369 -0.2383
20172SOL    HW262671   1.916   5.476   0.664 -1.0572 -0.2894 -1.2235
20173SOL     OW62672   8.895   1.176   0.830  0.3310  0.0189  0.5491
20173SOL    HW162673   8.862   1.166   0.741  2.3045 -0.4342 -0.1944
20173SOL    HW262674   8.986   1.147   0.825  0.4642 -0.0976  2.7507
20174SOL     OW62675   8.606   8.478   4.844 -0.5462 -0.0865 -0.1539
20174SOL    HW162676   8.616   8.558   4.895  1.0150 -1.0768  1.2059
20174SOL    HW262677   8.591   8.409   4.909 -0.7430 -1.0658 -1.1961
20175SOL     OW62678   2.576   6.855   7.114 -0.3119  0.3854  0.5387
20175SOL    HW162679   2.574   6.950   7.123 -0.6283  0.4021  0.2792
20175SOL    HW262680   2.663   6.836   7.079 -1.6122  0.9288 -3.4716
20176SOL     OW62681   5.335   1.480   0.278  0.1123 -0.2359  0.3948
20176SOL    HW162682   5.326   1.574   0.267 -1.0701 -0.4233 -0.3068
20176SOL    HW262683   5.251   1.451   0.314 -1.1922 -1.5909 -3.3322
20177SOL     OW62684   7.380   7.785   0.843 -0.7110 -0.4664 -0.0293
20177SOL    HW162685   7.402   7.692   0.829  0.0672 -0.0885 -1.5449
20177SOL    HW262686   7.438   7.813   0.914  1.6943 -0.2855 -1.9102
20178SOL     OW62687   6.020   5.868   5.949 -0.7154  0.4548  0.0567
20178SOL    HW162688   6.046   5.958   5.969 -1.2909  1.0299 -1.6271
20178SOL    HW262689   5.937   5.856   5.994 -0.0419  0.3170  1.3098
20179SOL     OW62690   3.567   7.481   3.121  0.1830 -0.1360 -0.1182
20179SOL    HW162691   3.474   7.476   3.098  0.1534  0.8694 -0.2895
20179SOL    HW262692   3.579   7.417   3.190 -1.0495  0.9906  1.1898
20180SOL     OW62693   3.521   1.546   4.674  0.0663 -0.4070  0.2510
20180SOL    HW162694   3.495   1.476   4.733  1.0477 -1.4983 -0.5531
20180SOL    HW262695   3.566   1.609   4.730  1.5775 -1.7367  0.6203
20181SOL     OW62696   1.334   4.981   1.905 -0.0328 -0.2136  0.2387
20181SOL    HW162697   1.256   4.945   1.863  0.4882  0.0374 -0.9965
20181SOL    HW262698   1.313   5.074   1.918  0.2904  0.0041 -0.7107
20182SOL     OW62699   1.348   3.152   9.084  0.5205 -0.1006 -0.1315
20182SOL    HW162700   1.363   3.096   9.008 -0.8569 -0.5580 -0.0913
20182SOL    HW262701   1.387   3.236   9.060 -1.4996  0.3566 -2.1530
20183SOL     OW62702   5.301   1.311   8.173  0.1711 -0.3532 -0.6147
20183SOL    HW162703   5.326   1.226   8.209 -2.7219 -0.2604  2.0977
20183SOL    HW262704   5.349   1.375   8.227  1.2991 -0.2009 -1.7558
20184SOL     OW62705   4.167   9.476   7.582  0.1451  0.0741  0.1056
20184SOL    HW162706   4.162   9.489   7.487  1.0371 -1.3951 -0.1863
20184SOL    HW262707   4.221   9.548   7.613  0.5506  0.0990 -0.6343
20185SOL     OW62708   2.856   2.022   9.442  0.0367 -0.0844 -0.3823
20185SOL    HW162709   2.951   2.032   9.439  0.0457 -0.1012 -0.1580
20185SOL    HW262710   2.826   2.048   9.355  0.1939  0.4707 -0.2732
20186SOL     OW62711   0.076   1.497   2.955 -0.5540  0.0489  0.1684
20186SOL    HW162712   0.155   1.537   2.919 -2.0914  2.2761 -0.9361
20186SOL    HW262713   0.102   1.467   3.042  1.3950  1.0682  0.0001
20187SOL     OW62714   6.678   8.768   8.777  0.3966 -0.3850 -0.0648
20187SOL    HW162715   6.620   8.820   8.721 -0.2728 -0.7035  0.3304
20187SOL    HW262716   6.755   8.824   8.790 -0.6636  0.8794  1.0426
20188SOL     OW62717   4.108   3.268   4.337  0.0779 -0.0434 -0.3122
20188SOL    HW162718   4.146   3.279   4.424 -0.2772 -1.0762 -0.0064
20188SOL    HW262719   4.031   3.212   4.352 -0.0195 -0.1801 -1.2785
20189SOL     OW62720   4.626   3.373   5.995  0.1337 -0.1464 -0.0470
20189SOL    HW162721   4.587   3.303   5.942  2.4409 -3.7737  2.5979
20189SOL    HW262722   4.696   3.409   5.941  0.5576 -1.7122 -0.5863
20190SOL     OW62723   6.358   2.554   1.154 -0.9684 -0.0200  0.1313
20190SOL    HW162724   6.361   2.470   1.107 -1.5939 -0.0375  0.1150
20190SOL    HW262725   6.341   2.530   1.245  1.5483 -0.0766  0.6676
20191SOL     OW62726   5.418   4.210   3.823 -0.2098  0.1713 -0.1090
20191SOL    HW162727   5.359   4.239   3.893 -1.4290 -0.1211 -0.9727
20191SOL    HW262728   5.374   4.133   3.785 -0.8483  1.6984 -2.7395
20192SOL     OW62729   4.481   8.429   9.201  0.4908 -0.0684  0.0753
20192SOL    HW162730   4.538   8.460   9.271  1.1684 -1.9583  0.3996
20192SOL    HW262731   4.487   8.334   9.204 -0.4883 -0.2440 -1.7165
20193SOL     OW62732   6.754   0.968   1.641  0.9471 -0.1411 -0.2154
20193SOL    HW162733   6.774   0.932   1.555  2.1548 -2.1850  0.8590
20193SOL    HW262734   6.835   0.959   1.691  0.4010  1.3867  1.0415
20194SOL     OW62735   6.680   1.125   9.481  0.5094  0.3291  0.3903
20194SOL    HW162736   6.605   1.107   9.538  0.6780 -1.7827  0.0294
20194SOL    HW262737   6.644   1.176   9.409 -0.7210 -1.0979 -0.0537
20195SOL     OW62738   9.031   6.949   8.413  0.4272  0.2447  0.0328
20195SOL    HW162739   9.033   6.878   8.348  1.4444  0.3497 -0.0802
20195SOL    HW262740   9.083   7.019   8.373 -1.0899  1.3109 -0.1255
20196SOL     OW62741   0.152   0.875   4.294 -0.4991 -0.4474  0.3498
20196SOL    HW162742   0.186   0.928   4.222 -1.6718  3.2946  2.2936
20196SOL    HW262743   0.230   0.841   4.339  0.3432  0.4602 -0.4031
20197SOL     OW62744   8.033   2.297   9.025  0.6791 -0.2752  0.3903
20197SOL    HW162745   8.085   2.312   8.947 -0.1384  0.9557  0.0569
20197SOL    HW262746   7.963   2.362   9.021 -1.9087 -2.8533 -0.0552
20198SOL     OW62747   3.742   4.574   0.424  0.2394 -0.1299 -0.0980
20198SOL    HW162748   3.778   4.663   0.421  0.1954 -0.1496 -1.8623
20198SOL    HW262749   3.663   4.582   0.479 -0.6389  1.2706 -1.4832
20199SOL     OW62750   0.061   0.244   8.823  0.3486 -0.2774 -0.5676
20199SOL    HW162751  -0.016   0.300   8.819  0.5543 -0.0509 -1.3890
20199SOL    HW262752   0.127   0.288   8.770  1.2194 -0.2229  0.5016
20200SOL     OW62753   0.820   2.138   1.062 -0.5585  0.5417 -0.3671
20200SOL    HW162754   0.816   2.154   0.968 -1.0781  1.4574 -0.1963
20200SOL    HW262755   0.914   2.140   1.082 -0.4876  1.0489 -0.7412
20201SOL     OW62756   5.656   7.368   2.422  0.2043  0.4151 -0.0067
20201SOL    HW162757   5.609   7.357   2.339 -0.2377 -0.6763  0.3675
20201SOL    HW262758   5.679   7.461   2.424 -1.3544  0.8590 -0.5296
20202SOL     OW62759   8.330   3.519   8.236 -0.5899  0.2393 -0.1278
20202SOL    HW162760   8.329   3.424   8.232  1.1042  0.2304 -1.9128
20202SOL    HW262761   8.376   3.539   8.318 -1.0238 -0.4597  0.2959
20203SOL     OW62762   0.455   0.390   1.390  0.3253  0.0249 -0.4943
20203SOL    HW162763   0.542   0.428   1.383 -0.6551  2.5585 -0.0684
20203SOL    HW262764   0.397   0.456   1.353 -1.3404 -2.1488 -1.9944
20204SOL     OW62765   3.220   0.501   0.422 -0.4847 -0.5949 -0.3336
20204SOL    HW162766   3.216   0.573   0.359 -0.4342 -0.1406  0.1727
20204SOL    HW262767   3.226   0.545   0.507  0.2728 -1.2001 -0.0666
20205SOL     OW62768   4.170   2.598   1.437 -0.4189  0.0101  0.4537
20205SOL    HW162769   4.149   2.548   1.358 -1.3693  1.0363  0.0258
20205SOL    HW262770   4.116   2.677   1.430 -0.1281  0.3565  1.8849
20206SOL     OW62771   6.725   2.808   1.974 -0.0525  0.1552  0.0493
20206SOL    HW162772   6.757   2.754   2.045  0.3436 -0.7297 -0.7842
20206SOL    HW262773   6.631   2.815   1.989  0.0010 -0.1792  0.5507
20207SOL     OW62774   6.931   6.939   6.355  0.0345 -0.1821 -0.3318
20207SOL    HW162775   6.836   6.940   6.347  0.0502  0.9974 -0.5105
20207SOL    HW262776   6.948   6.980   6.439  0.3534 -1.5296  0.2840
20208SOL     OW62777   5.059   6.523   9.484  0.0860 -0.0112 -0.3986
20208SOL    HW162778   5.070   6.456   9.416  1.4306  0.1269 -0.3393
20208SOL    HW262779   5.109   6.598   9.452  0.5902  0.1165  0.6388
20209SOL     OW62780   5.761   5.882   6.053  0.2776  0.3037  0.0403
20209SOL    HW162781   5.745   5.959   5.998 -1.1650 -0.2992 -0.4340
20209SOL    HW262782   5.746   5.912   6.142  1.2249  0.9280  0.0115
20210SOL     OW62783   3.633   5.075   4.126 -0.2701 -0.0976  0.0368
20210SOL    HW162784   3.614   5.094   4.034  2.6180 -0.5539 -0.7503
20210SOL    HW262785   3.713   5.124   4.144 -0.6656 -0.1774  2.2937
20211SOL     OW62786   7.873   5.129   8.637 -0.9982  0.6918  0.0049
20211SOL    HW162787   7.783   5.139   8.603 -0.5411  1.5121 -1.0326
20211SOL    HW262788   7.928   5.167   8.569  0.3450 -1.8208 -0.4358
20212SOL     OW62789   2.495   4.215   7.103 -0.6082  0.9485 -0.9202
20212SOL    HW162790   2.511   4.218   7.197 -0.1374 -1.1403 -0.8706
20212SOL    HW262791   2.404   4.187   7.094 -0.5574  0.8298 -1.0795
20213SOL     OW62792   7.166   7.464   2.743 -0.4752  0.7293 -0.0977
20213SOL    HW162793   7.178   7.484   2.650  0.9584  2.3392  0.3674
20213SOL    HW262794   7.231   7.397   2.762  1.8084  2.9340  0.4332
20214SOL     OW62795   1.867   6.535   8.725  0.2236 -0.4445 -0.2804
20214SOL    HW162796   1.779   6.509   8.698 -0.6957  0.4170  1.6758
20214SOL    HW262797   1.872   6.628   8.707  0.8451 -0.5415 -0.6333
20215SOL     OW62798   9.310   8.376   4.533  0.4390  0.1185 -0.1112
20215SOL    HW162799   9.293   8.382   4.439 -0.2726 -0.3324 -0.0138
20215SOL    HW262800   9.225   8.392   4.574  0.4278 -1.1697  0.4139
20216SOL     OW62801   5.010   9.435   2.918  0.1355 -0.5058  0.0015
20216SOL    HW162802   4.932   9.478   2.953  0.3629 -0.2460  0.1993
20216SOL    HW262803   4.994   9.431   2.824  0.0552 -0.0916 -0.0079
20217SOL     OW62804   0.267   2.270   5.357 -0.2624  0.0428 -0.1618
20217SOL    HW162805   0.195   2.284   5.418  2.2363 -0.0134  3.1208
20217SOL    HW262806   0.310   2.356   5.352  0.6156 -0.3971 -0.3510
20218SOL     OW62807   2.829   7.343   9.003 -0.4645 -0.2234 -0.3556
20218SOL    HW162808   2.847   7.261   8.958  1.3262 -1.1553  1.8854
20218SOL    HW262809   2.788   7.317   9.085 -0.9545  1.2234 -0.1041
20219SOL     OW62810   0.825   5.289   7.334 -0.2331 -0.1055  0.0660
20219SOL    HW162811   0.881   5.321   7.405  0.8345  0.2509 -0.9024
20219SOL    HW262812   0.810   5.197   7.355 -1.4107  0.3818  1.6568
20220SOL     OW62813   2.031   1.805   7.442 -0.1900 -0.1119  0.1125
20220SOL    HW162814   1.950   1.853   7.460 -1.0525 -1.3873 -0.2722
20220SOL    HW262815   2.066   1.783   7.528 -0.3822  0.2321  0.2794
20221SOL     OW62816   1.970   5.065   6.332  0.3108  0.0359  0.1171
20221SOL    HW162817   2.062   5.043   6.349  0.9279  0.3788 -2.3680
20221SOL    HW262818   1.952   5.139   6.391  2.8710  2.4388 -1.8366
20222SOL     OW62819   6.348   6.303   8.145  0.0134  0.0204 -0.0758
20222SOL    HW162820   6.353   6.207   8.143 -0.1281 -0.0198 -2.7508
20222SOL    HW262821   6.272   6.322   8.200 -0.3484 -1.4319 -0.0182
20223SOL     OW62822   8.855   3.433   8.926  0.3578  0.1486  0.2848
20223SOL    HW162823   8.765   3.404   8.940  0.5937 -0.7633 -0.0015
20223SOL    HW262824   8.865   3.508   8.984 -0.8968  0.9073 -0.4141
20224SOL     OW62825   5.386   3.253   6.639  0.0636 -0.5026  0.2102
20224SOL    HW162826   5.470   3.215   6.611 -0.4617 -0.9905 -0.7401
20224SOL    HW262827   5.339   3.269   6.557 -1.0242 -0.8245  0.7595
20225SOL     OW62828   1.875   9.514   1.738  0.2836 -0.5793  0.4078
20225SOL    HW162829   1.853   9.504   1.646 -5.3834 -1.6452  1.5385
20225SOL    HW262830   1.892   9.425   1.769  0.9531 -0.3672  0.6835
20226SOL     OW62831   4.995   8.430   2.133 -0.1646  0.5639 -0.5590
20226SOL    HW162832   4.937   8.354   2.133 -0.9382  1.0934  1.1078
20226SOL    HW262833   4.982   8.470   2.219  0.4253  2.4351 -1.2767
20227SOL     OW62834   2.708   7.596   9.070 -0.0809 -0.6025  0.8130
20227SOL    HW162835   2.642   7.642   9.019  0.2649  1.1184  1.8357
20227SOL    HW262836   2.676   7.506   9.076 -0.8411 -0.5112 -1.1621
20228SOL     OW62837   2.645   3.347   2.210 -0.2260  0.3342  0.2431
20228SOL    HW162838   2.678   3.284   2.146  0.8872  0.8452  0.2906
20228SOL    HW262839   2.662   3.306   2.295 -0.9533  0.0174  0.2449
20229SOL     OW62840   6.801   3.153   1.868 -0.0334 -0.0945 -0.4304
20229SOL    HW162841   6.832   3.070   1.832  2.4284  0.2752  0.6847
20229SOL    HW262842   6.758   3.129   1.950 -0.3290 -0.3421 -0.6520
20230SOL     OW62843   4.763   2.542   8.190  0.1855 -0.0324 -0.0182
20230SOL    HW162844   4.778   2.634   8.212  0.8702  0.3994 -2.0815
20230SOL    HW262845   4.692   2.544   8.126  0.0562 -0.9703  0.0902
20231SOL     OW62846   8.630   1.917   3.619 -0.4794  0.8157  0.1624
20231SOL    HW162847   8.713   1.886   3.584  1.2752  2.3540  2.6320
20231SOL    HW262848   8.564   1.862   3.577  1.8192 -0.9031 -1.4205
20232SOL     OW62849   0.983   8.168   2.612 -0.4154 -0.0493  0.1961
20232SOL    HW162850   1.073   8.149   2.587 -0.4182 -0.5937  0.5679
20232SOL    HW262851   0.933   8.093   2.580 -0.5231 -0.4144  1.1679
20233SOL     OW62852   2.751   7.808   4.077  0.4028 -0.1624 -0.5077
20233SOL    HW162853   2.733   7.827   3.985 -0.7077 -0.6536 -0.4099
20233SOL    HW262854   2.786   7.890   4.111 -0.0657  0.3222 -1.1518
20234SOL     OW62855   7.817   0.627   4.073 -0.3678 -0.2612 -0.4293
20234SOL    HW162856   7.794   0.537   4.099 -0.3468 -0.2364 -0.3231
20234SOL    HW262857   7.873   0.658   4.144  0.5139 -0.5431 -0.9787
20235SOL     OW62858   0.512   4.178   4.351 -0.1370 -0.1457 -0.3602
20235SOL    HW162859   0.429   4.130   4.353 -0.4983  0.4885 -0.0002
20235SOL    HW262860   0.493   4.262   4.392 -0.2468  1.5001 -3.4648
20236SOL     OW62861   3.526   0.524   4.550  0.7533  0.0711  0.0086
20236SOL    HW162862   3.539   0.466   4.625  1.2985 -1.2853 -1.0779
20236SOL    HW262863   3.467   0.476   4.492  2.4212 -0.1569 -1.6253
20237SOL     OW62864   7.268   3.516   1.040  0.6178 -0.1034  0.1727
20237SOL    HW162865   7.215   3.555   1.109  0.3748 -0.3782  0.1408
20237SOL    HW262866   7.291   3.429   1.073 -0.5424 -0.7254 -0.6149
20238SOL     OW62867   1.299   2.682   6.484  0.2236  0.6570 -0.0843
20238SOL    HW162868   1.347   2.668   6.566 -1.1074  2.2424  1.0475
20238SOL    HW262869   1.298   2.597   6.441  1.4825 -0.0780  1.2468
20239SOL     OW62870   9.518   2.612   0.759  0.5262 -0.8144 -0.1473
20239SOL    HW162871   9.438   2.609   0.812 -1.2058  0.6922 -2.4523
20239SOL    HW262872   9.486   2.616   0.669  3.2177  0.3832 -1.1395
20240SOL     OW62873   7.473   2.364   3.822  0.4084 -0.2634  0.1121
20240SOL    HW162874   7.439   2.281   3.857 -1.0309 -0.2912 -1.2637
20240SOL    HW262875   7.557   2.340   3.783 -0.3786 -1.2759 -1.0280
20241SOL     OW62876   3.559   2.988   0.811  0.1784  0.5200  0.7379
20241SOL    HW162877   3.642   3.028   0.837  0.7587 -1.2189  1.7269
20241SOL    HW262878   3.540   2.924   0.880 -1.4187  0.0835 -0.0384
20242SOL     OW62879   3.973   1.619   4.343 -0.1220 -0.1039  0.2509
20242SOL    HW162880   3.923   1.649   4.267 -0.3959  0.5435  0.6739
20242SOL    HW262881   3.915   1.636   4.418  0.8594  0.9966  0.7931
20243SOL     OW62882   6.768   9.112   5.308  0.0619  0.7180 -0.0753
20243SOL    HW162883   6.685   9.094   5.351 -0.5014 -0.3508 -1.5125
20243SOL    HW262884   6.773   9.208   5.306 -0.0726  0.8099  1.9116
20244SOL     OW62885   6.640   8.669   3.287  0.5632  0.3315  0.4743
20244SOL    HW162886   6.606   8.583   3.309  0.7736 -0.0542 -0.6460
20244SOL    HW262887   6.611   8.726   3.359 -4.0093  0.4730 -1.1405
20245SOL     OW62888   0.874   6.112   2.407  0.3036  0.5579 -0.5039
20245SOL    HW162889   0.791   6.143   2.370 -1.0091 -1.1469  0.8171
20245SOL    HW262890   0.879   6.153   2.493  0.2724 -0.1625 -0.1477
20246SOL     OW62891   6.122   5.532   4.622 -0.2159 -0.1089 -0.2190
20246SOL    HW162892   6.065   5.465   4.658  0.5360 -0.8930 -0.4608
20246SOL    HW262893   6.083   5.553   4.537  0.8405 -1.9900 -1.2299
20247SOL     OW62894   9.532   5.076   8.649  0.6887 -0.0312 -0.4090
20247SOL    HW162895   9.498   5.165   8.655  1.5441  0.2523  0.5065
20247SOL    HW262896   9.594   5.079   8.576  1.6813  0.4760  0.4295
20248SOL     OW62897   2.733   5.874   3.687 -0.3943  0.4237 -0.6136
20248SOL    HW162898   2.771   5.952   3.727  0.4789 -1.0723  1.7170
20248SOL    HW262899   2.778   5.866   3.603  0.9410  1.3719 -0.0325
20249SOL     OW62900   1.941   3.511   0.012 -0.4735  0.0274  0.0331
20249SOL    HW162901   1.929   3.493  -0.082 -1.7730 -0.1782  0.2172
20249SOL    HW262902   1.898   3.439   0.056 -1.3081  0.9538  0.7855
20250SOL     OW62903   2.096   9.241   3.251 -0.1576  0.1878 -0.3272
20250SOL    HW162904   2.099   9.212   3.160  0.5550  0.2863 -0.3390
20250SOL    HW262905   2.058   9.329   3.247 -0.4063  0.0745 -0.4934
20251SOL     OW62906   8.259   5.774   4.341 -0.6487 -0.1241  0.2234
20251SOL    HW162907   8.342   5.773   4.295  0.8666  0.3357  2.7421
20251SOL    HW262908   8.238   5.682   4.355 -1.3533 -0.2838 -1.6287
20252SOL     OW62909   2.514   6.071   2.000 -0.3563  0.5753  0.1165
20252SOL    HW162910   2.486   6.017   1.926 -1.0754  1.4621 -0.2739
20252SOL    HW262911   2.587   6.122   1.965  1.2098 -1.0406  0.8589
20253SOL     OW62912   0.179   1.465   8.353 -0.2410 -0.1911 -0.2008
20253SOL    HW162913   0.180   1.378   8.312 -0.3114  0.1366 -0.9184
20253SOL    HW262914   0.086   1.481   8.372 -0.3878  0.2276 -1.1930
20254SOL     OW62915   1.142   4.312   7.178  0.1101 -0.0848 -0.4516
20254SOL    HW162916   1.184   4.391   7.211  1.2576  0.1429 -2.3253
20254SOL    HW262917   1.098   4.340   7.098  0.2443 -1.2618 -0.9563
20255SOL     OW62918   7.458   7.401   4.287  0.1581  0.0759 -0.5007
20255SOL    HW162919   7.451   7.429   4.378  0.7418  0.3778 -0.5435
20255SOL    HW262920   7.376   7.430   4.247 -0.3487 -0.5613  0.0520
20256SOL     OW62921   0.052   1.169   2.683  0.0348  0.1121 -0.1438
20256SOL    HW162922   0.055   1.073   2.686 -1.1001  0.0797  0.5193
20256SOL    HW262923   0.085   1.197   2.768  0.6496  0.3209 -0.4514
20257SOL     OW62924   5.703   4.633   5.056 -0.1157 -0.1150  0.0043
20257SOL    HW162925   5.723   4.542   5.035 -0.3571 -0.3523  0.7524
20257SOL    HW262926   5.623   4.653   5.008  0.2554 -0.1117 -0.6179
20258SOL     OW62927   7.715   2.270   0.698 -0.0251 -0.3114  0.3212
20258SOL    HW162928   7.744   2.351   0.657  1.4572 -1.1009 -0.2351
20258SOL    HW262929   7.679   2.218   0.626  2.2583 -1.5574  0.0018
20259SOL     OW62930   5.193   3.599   3.021 -0.2148 -0.2133  0.0440
20259SOL    HW162931   5.288   3.607   3.010 -0.1732 -1.2528 -0.4869
20259SOL    HW262932   5.183   3.550   3.103 -0.3618  1.6952  1.2085
20260SOL     OW62933   4.757   8.301   1.220  0.4189 -0.0465 -0.2586
20260SOL    HW162934   4.832   8.319   1.276  2.1857  1.2223 -2.8521
20260SOL    HW262935   4.763   8.208   1.200  1.2443  0.0213 -0.3344
20261SOL     OW62936   5.342   2.666   4.541  0.4138 -0.4051 -0.3129
20261SOL    HW162937   5.350   2.570   4.539  1.8373 -0.3017 -1.1350
20261SOL    HW262938   5.390   2.695   4.464  0.5456  1.0065  0.2757
20262SOL     OW62939   5.246   7.767   5.011  0.0086 -0.0040 -0.8738
20262SOL    HW162940   5.232   7.843   5.068  0.5401 -0.2892 -0.3495
20262SOL    HW262941   5.213   7.794   4.926  1.5299  1.3444 -1.0761
20263SOL     OW62942   6.851   0.949   9.296  0.1935  0.0804 -0.1469
20263SOL    HW162943   6.937   0.917   9.323  1.6990  3.4957 -0.4099
20263SOL    HW262944   6.814   0.988   9.375 -0.5451 -0.1693 -0.3630
20264SOL     OW62945   4.405   0.410   0.086  0.3266 -0.0115 -0.1635
20264SOL    HW162946   4.430   0.375   0.000 -0.9848  0.4832 -0.7684
20264SOL    HW262947   4.316   0.379   0.099 -0.2689  1.7014  0.0469
20265SOL     OW62948   8.976   8.937   2.333  0.0105 -0.6081  0.0404
20265SOL    HW162949   9.015   9.024   2.319 -0.7877 -0.1268  0.7006
20265SOL    HW262950   8.925   8.947   2.413 -0.2214 -1.6538  0.0316
20266SOL     OW62951   1.728   1.991   8.199 -0.1489  0.2382  0.1223
20266SOL    HW162952   1.684   1.919   8.244 -0.7924 -0.0440 -0.9404
20266SOL    HW262953   1.705   2.069   8.250 -1.9939  0.1165 -0.4790
20267SOL     OW62954   4.789   4.843   4.586 -0.6363  0.7417 -0.4855
20267SOL    HW162955   4.767   4.842   4.680  0.1251 -0.2101 -0.3082
20267SOL    HW262956   4.734   4.913   4.550 -1.1004  0.9782  0.6301
20268SOL     OW62957   0.131   8.750   4.359 -0.0759  0.8606 -0.0138
20268SOL    HW162958   0.156   8.696   4.433 -1.1351  0.4324  0.0488
20268SOL    HW262959   0.178   8.833   4.372 -0.0367  0.6860  0.9785
20269SOL     OW62960   3.247   0.112   9.508 -0.1318 -0.6292  0.1093
20269SOL    HW162961   3.277   0.176   9.573  0.7263 -0.1967 -0.6954
20269SOL    HW262962   3.230   0.033   9.560 -2.5078  0.5722  1.3367
20270SOL     OW62963   2.777   4.396   3.520  0.0608  0.4373  0.1139
20270SOL    HW162964   2.755   4.438   3.603 -0.5880 -1.0689  0.7298
20270SOL    HW262965   2.769   4.302   3.537  0.6212  0.0709 -1.4587
20271SOL     OW62966   9.616   0.168   6.562  0.2506 -0.0352 -0.3016
20271SOL    HW162967   9.680   0.186   6.493 -0.3828  0.8675 -0.6681
20271SOL    HW262968   9.532   0.173   6.518 -0.1458  0.2534  0.4738
20272SOL     OW62969   1.098   0.960   5.191 -0.7826  0.2552  0.1854
20272SOL    HW162970   1.073   1.048   5.163 -2.1826 -0.2072 -0.1059
20272SOL    HW262971   1.078   0.957   5.285  1.7550  1.0641  0.8179
20273SOL     OW62972   7.525   4.729   0.865 -0.1332  0.1667  0.5254
20273SOL    HW162973   7.532   4.777   0.782 -1.3357  1.5708  1.1909
20273SOL    HW262974   7.542   4.794   0.932  1.4578 -1.0918  1.4159
20274SOL     OW62975   7.093   3.109   2.281 -0.5736 -0.0106 -0.5749
20274SOL    HW162976   7.155   3.149   2.341  0.1188  0.0805 -1.3259
20274SOL    HW262977   7.095   3.016   2.303 -2.8084  0.3739  1.7326
20275SOL     OW62978   1.184   8.808   0.221  0.2547  0.1180 -0.4546
20275SOL    HW162979   1.230   8.862   0.157  2.6040 -0.8432  0.3200
20275SOL    HW262980   1.150   8.735   0.170 -0.5185  0.8700 -1.0510
20276SOL     OW62981   8.873   3.374   2.473 -0.3474 -0.2370  0.7108
20276SOL    HW162982   8.928   3.296   2.467 -1.5941 -1.0415 -0.9060
20276SOL    HW262983   8.930   3.445   2.445  0.0988 -0.9306 -0.1853
20277SOL     OW62984   4.773   5.880   2.525 -0.5826 -0.0868  0.1653
20277SOL    HW162985   4.775   5.974   2.505 -0.0289  0.0522  0.8207
20277SOL    HW262986   4.808   5.838   2.447  0.1106  0.3328  0.2351
20278SOL     OW62987   3.345   5.229   6.613 -0.4518 -0.5214 -0.2263
20278SOL    HW162988   3.382   5.217   6.700 -1.2673  0.0529  0.2167
20278SOL    HW262989   3.310   5.318   6.614  0.8060  0.0290 -1.6372
20279SOL     OW62990   3.773   5.865   0.589 -0.2113 -0.3060 -0.3101
20279SOL    HW162991   3.731   5.831   0.668 -0.4948  0.4087 -0.1394
20279SOL    HW262992   3.778   5.791   0.529 -1.7549 -0.4158 -0.3432
20280SOL     OW62993   6.825   0.165   6.272  0.2880  0.0279  0.0195
20280SOL    HW162994   6.730   0.180   6.277  0.3065  1.0675 -1.7044
20280SOL    HW262995   6.834   0.095   6.208  0.7283  1.6057 -1.7346
20281SOL     OW62996   3.662   3.945   7.498 -0.2678  0.3815 -0.0399
20281SOL    HW162997   3.754   3.920   7.508 -0.5271 -1.4874 -1.6709
20281SOL    HW262998   3.625   3.933   7.586  0.1832 -3.0076 -0.1595
20282SOL     OW62999   6.385   7.245   0.181  0.3239 -0.2173 -0.0477
20282SOL    HW163000   6.309   7.294   0.149  1.2043  1.1398 -0.1531
20282SOL    HW263001   6.353   7.201   0.261 -0.1403  1.7626  0.9274
20283SOL     OW63002   5.588   6.696   8.098  0.1037 -0.0486 -0.2444
20283SOL    HW163003   5.678   6.667   8.109  0.5744  2.0536  2.6756
20283SOL    HW263004   5.535   6.626   8.136  0.2135 -2.0419 -3.3775
20284SOL     OW63005   6.483   5.318   2.924 -0.4622  0.0516  0.0898
20284SOL    HW163006   6.546   5.349   2.990 -0.8457  0.1260  0.4278
20284SOL    HW263007   6.536   5.301   2.846  0.1212 -0.8190  0.6639
20285SOL     OW63008   6.231   0.178   9.581 -0.0055 -0.8687 -1.0329
20285SOL    HW163009   6.208   0.152   9.492 -0.0543  1.2107 -1.7001
20285SOL    HW263010   6.148   0.206   9.620  0.0027 -1.8485 -0.2860
20286SOL     OW63011   8.955   1.113   9.346 -0.5479  0.3025 -0.5065
20286SOL    HW163012   8.979   1.193   9.299  1.3411 -0.8336 -1.6169
20286SOL    HW263013   8.871   1.088   9.309 -0.3728  0.8955 -1.3380
20287SOL     OW63014   9.395   5.121   6.178 -0.4524 -0.2339 -0.4692
20287SOL    HW163015   9.490   5.129   6.172 -0.5733  2.3068  0.0739
20287SOL    HW263016   9.380   5.064   6.253  0.6498  0.9874  0.7111
20288SOL     OW63017   4.054   3.603   9.158  0.9046 -0.5066  0.3075
20288SOL    HW163018   3.994   3.602   9.083  1.0851 -1.5020  0.1653
20288SOL    HW263019   4.055   3.695   9.186 -0.5239 -0.4267  0.1960
20289SOL     OW63020   2.068   5.850   0.357  0.4818 -0.2599  0.0008
20289SOL    HW163021   2.038   5.826   0.270 -0.1736  1.2096 -0.2144
20289SOL    HW263022   2.095   5.942   0.348 -0.4487  0.1926  1.5380
20290SOL     OW63023   3.687   3.460   2.745  0.0160 -0.6911 -0.7206
20290SOL    HW163024   3.622   3.517   2.787  1.0992 -1.1962  1.8189
20290SOL    HW263025   3.725   3.515   2.676 -0.7927  0.7469 -0.0867
20291SOL     OW63026   1.353   0.448   6.939 -0.5109  0.1737  0.1906
20291SOL    HW163027   1.348   0.469   6.846  0.1022 -1.8742 -0.3530
20291SOL    HW263028   1.434   0.398   6.949 -0.6593  0.1761  1.7944
20292SOL     OW63029   8.951   2.153   0.640 -0.0989 -0.2200  0.3447
20292SOL    HW163030   8.965   2.098   0.717  0.6410 -1.6572 -0.7729
20292SOL    HW263031   9.038   2.190   0.622 -0.3734  0.4956  0.4671
20293SOL     OW63032   8.294   7.969   1.026 -0.6227 -0.5148  0.3250
20293SOL    HW163033   8.288   8.061   1.050 -0.3307 -0.4010 -0.0373
20293SOL    HW263034   8.204   7.936   1.034 -1.0681  0.2313 -1.2906
20294SOL     OW63035   7.839   2.997   2.317 -0.0559 -0.1356  0.5472
20294SOL    HW163036   7.771   3.039   2.264 -2.0111 -1.6481  1.7329
20294SOL    HW263037   7.868   2.922   2.264 -0.4099 -0.3646  0.6751
20295SOL     OW63038   2.526   2.328   1.501 -0.3623  0.2182  0.2965
20295SOL    HW163039   2.496   2.329   1.410 -1.1262  2.1144  0.5063
20295SOL    HW263040   2.610   2.374   1.499 -0.6225  0.7236  0.5904
20296SOL     OW63041   6.364   4.969   3.638 -0.3573  0.3321  0.4553
20296SOL    HW163042   6.355   4.908   3.565  0.5868  0.0665  0.5393
20296SOL    HW263043   6.298   5.035   3.622  1.4943  1.7558 -2.1286
20297SOL     OW63044   5.769   7.874   8.858 -0.1781  0.3113 -0.1926
20297SOL    HW163045   5.736   7.916   8.779  0.1224  0.1794 -0.3874
20297SOL    HW263046   5.762   7.781   8.841 -1.0175  0.2738  0.3113
20298SOL     OW63047   8.851   6.097   3.379  0.1395  0.1798 -0.7844
20298SOL    HW163048   8.799   6.037   3.433  2.4220 -0.2796  1.0904
20298SOL    HW263049   8.789   6.163   3.349 -1.4954 -0.1910  1.5096
20299SOL     OW63050   7.839   6.287   5.963  0.4193 -0.5504  0.2709
20299SOL    HW163051   7.856   6.267   5.871  0.0673 -0.0025  0.0784
20299SOL    HW263052   7.743   6.291   5.969  0.4517 -0.2159  0.5813
20300SOL     OW63053   3.474   3.668   1.909 -0.0446  0.0577  0.1243
20300SOL    HW163054   3.426   3.749   1.929 -0.0061 -0.0571  0.7134
20300SOL    HW263055   3.527   3.653   1.987  0.1273 -0.4081 -0.0834
20301SOL     OW63056   2.768   6.060   1.372 -0.2935 -0.5573 -0.2496
20301SOL    HW163057   2.715   6.015   1.307 -0.4062 -1.0419  0.1752
20301SOL    HW263058   2.706   6.092   1.437 -0.1090 -0.7851  0.0438
20302SOL     OW63059   7.709   5.135   6.213  0.3762  0.2719  0.4930
20302SOL    HW163060   7.675   5.048   6.235  0.5384  0.1239  0.1721
20302SOL    HW263061   7.660   5.162   6.136  0.9608  0.0664  0.0415
20303SOL     OW63062   4.376   2.416   2.092  0.2636  0.0025  0.0030
20303SOL    HW163063   4.447   2.475   2.117 -0.8904  1.8799 -0.8420
20303SOL    HW263064   4.401   2.331   2.128  2.3214  0.8545  0.7596
20304SOL     OW63065   3.845   5.314   0.514  0.0408 -0.5868 -0.4672
20304SOL    HW163066   3.847   5.410   0.510  0.8367 -0.6309 -1.5231
20304SOL    HW263067   3.778   5.294   0.580 -0.6561  0.6727 -0.7632
20305SOL     OW63068   0.142   0.103   7.974  0.0352  0.0730  0.6430
20305SOL    HW163069   0.165   0.012   7.995  1.6525 -0.5565 -3.0381
20305SOL    HW263070   0.057   0.097   7.932  1.4705 -0.3749 -2.4890
20306SOL     OW63071   0.402   0.514   7.495  0.1858  0.7743 -0.1357
20306SOL    HW163072   0.444   0.514   7.581  0.5123 -2.3015 -0.2143
20306SOL    HW263073   0.312   0.544   7.513  0.6521  1.5424  1.0167
20307SOL     OW63074   6.073   1.475   6.146 -0.3948 -0.3552 -0.0160
20307SOL    HW163075   6.134   1.540   6.180 -0.5450  0.1067 -0.6129
20307SOL    HW263076   6.093   1.395   6.195  1.6320 -0.6116 -1.1471
20308SOL     OW63077   2.894   0.093   3.068  0.2475  0.6000 -0.2101
20308SOL    HW163078   2.881   0.003   3.041 -4.0667  0.9308  0.0449
20308SOL    HW263079   2.875   0.145   2.990 -1.6693  1.2835  0.6360
20309SOL     OW63080   4.716   1.136   4.393  0.6845  0.0495 -0.1909
20309SOL    HW163081   4.778   1.149   4.321 -0.0588  1.0475 -0.6785
20309SOL    HW263082   4.707   1.223   4.432  0.0772 -0.2191  0.2736
20310SOL     OW63083   4.126   0.184   1.502  0.3493  0.0989  0.7038
20310SOL    HW163084   4.127   0.093   1.531 -0.4497 -0.5546 -1.1601
20310SOL    HW263085   4.050   0.190   1.444  2.8613  0.6924 -2.8534
20311SOL     OW63086   6.905   4.265   6.687  0.0804  0.0866  0.1566
20311SOL    HW163087   6.866   4.185   6.724 -0.5872  0.4766  0.3181
20311SOL    HW263088   6.842   4.334   6.709  0.1685  0.4971 -0.8485
20312SOL     OW63089   0.082   6.208   2.880 -0.4939 -0.0058 -0.0322
20312SOL    HW163090  -0.013   6.206   2.873 -0.4730  0.8346 -0.7449
20312SOL    HW263091   0.109   6.278   2.820  0.5444  0.0169  0.4359
20313SOL     OW63092   7.852   6.653   2.235 -0.0262 -0.0456  0.2447
20313SOL    HW163093   7.765   6.634   2.200 -0.0051  0.1923  0.0638
20313SOL    HW263094   7.892   6.711   2.170  0.1600  0.0763  0.4680
20314SOL     OW63095   3.155   1.155   8.501 -0.2066 -0.3679 -0.6759
20314SOL    HW163096   3.134   1.165   8.593  0.0017  0.8960 -0.7579
20314SOL    HW263097   3.070   1.157   8.457 -0.3462 -1.4515 -0.4934
20315SOL     OW63098   4.225   4.818   0.345  0.5193 -0.0739  0.1414
20315SOL    HW163099   4.308   4.845   0.304  1.2825 -0.5799  1.2886
20315SOL    HW263100   4.205   4.887   0.407  0.4338 -0.2784  0.3415
20316SOL     OW63101   0.148   7.731   6.221 -0.1283 -0.2727  0.1521
20316SOL    HW163102   0.156   7.653   6.276  0.3704 -0.3480 -0.0175
20316SOL    HW263103   0.079   7.710   6.159 -2.1150  0.5678  1.9806
20317SOL     OW63104   1.457   0.962   6.374 -0.6542  0.0044  0.0629
20317SOL    HW163105   1.518   0.951   6.301  0.5233 -2.3227  1.2508
20317SOL    HW263106   1.374   0.928   6.341 -1.2113  2.5165 -1.3370
20318SOL     OW63107   5.124   1.944   1.465 -0.0368 -0.1486 -0.1415
20318SOL    HW163108   5.099   2.012   1.528  2.4894  0.5518  0.2162
20318SOL    HW263109   5.077   1.866   1.494 -1.3802  0.9367  0.6917
20319SOL     OW63110   8.904   3.730   3.689 -0.2044 -0.9982 -0.3897
20319SOL    HW163111   8.986   3.700   3.728 -0.7867 -0.4206  1.3590
20319SOL    HW263112   8.929   3.760   3.601  1.2287 -1.9255 -0.3326
20320SOL     OW63113   6.513   2.877   5.095 -0.0850  0.0823 -0.1748
20320SOL    HW163114   6.534   2.787   5.070 -2.4043 -0.4497 -0.3979
20320SOL    HW263115   6.490   2.871   5.188  1.1721  0.7313  0.1991
20321SOL     OW63116   5.372   0.197   9.330  0.0612 -0.2446 -0.1482
20321SOL    HW163117   5.345   0.178   9.420  0.4593 -3.2381 -0.5428
20321SOL    HW263118   5.365   0.113   9.285  2.1480  0.6320 -2.3256
20322SOL     OW63119   2.831   1.739   6.402 -0.6448 -0.2206 -0.1558
20322SOL    HW163120   2.740   1.742   6.372 -1.1074 -0.0553  1.1852
20322SOL    HW263121   2.842   1.650   6.435 -0.7549  0.1529  0.9269
20323SOL     OW63122   2.854   8.869   1.983 -0.4363  0.5614  0.4414
20323SOL    HW163123   2.768   8.850   2.019 -0.2482 -1.8116 -0.2069
20323SOL    HW263124   2.839   8.880   1.889  0.1966 -2.6769 -0.1746
20324SOL     OW63125   1.727   1.666   1.122 -0.0416 -0.4020  0.0359
20324SOL    HW163126   1.708   1.759   1.126  0.7429 -0.2428  0.2351
20324SOL    HW263127   1.665   1.631   1.058  0.1430  0.3720 -0.5696
20325SOL     OW63128   1.921   7.864   4.969  0.5293 -0.1506  0.0665
20325SOL    HW163129   1.910   7.810   4.891 -1.3324 -0.8523  0.7682
20325SOL    HW263130   1.900   7.806   5.043  0.7135  0.9129  0.9943
20326SOL     OW63131   9.030   3.579   2.689  0.5491 -0.2019 -0.0428
20326SOL    HW163132   8.982   3.592   2.770 -0.5595 -0.0173 -0.7131
20326SOL    HW263133   9.035   3.483   2.679  1.3491 -0.2416  0.6031
20327SOL     OW63134   3.020   0.359   8.152 -0.3506  0.3828  0.6622
20327SOL    HW163135   3.115   0.368   8.163 -0.2374 -0.8956  0.9001
20327SOL    HW263136   2.985   0.442   8.185  0.5893  0.2664  2.0912
20328SOL     OW63137   6.035   4.598   1.986 -0.1968 -0.5237  0.3035
20328SOL    HW163138   6.061   4.558   2.070 -1.9028 -1.9433  0.2076
20328SOL    HW263139   6.024   4.524   1.927  0.3286  0.4261 -1.0281
20329SOL     OW63140   5.666   5.004   2.563 -0.0552  0.2126 -0.1744
20329SOL    HW163141   5.729   4.954   2.511  1.4031  2.8012 -1.0830
20329SOL    HW263142   5.694   5.095   2.553 -1.8179  1.1388  2.3847
20330SOL     OW63143   6.699   9.143   7.545  0.8384  0.4072 -0.0866
20330SOL    HW163144   6.714   9.060   7.499  0.0269  0.7722 -1.0234
20330SOL    HW263145   6.744   9.131   7.629  0.2188 -1.2247  0.0596
20331SOL     OW63146   1.235   5.124   9.087  0.3620 -0.0306 -0.0023
20331SOL    HW163147   1.236   5.051   9.025  1.0180  0.2276 -0.3112
20331SOL    HW263148   1.193   5.089   9.165 -0.1793 -0.4558 -0.4807
20332SOL     OW63149   2.188   1.366   4.199  0.2880  0.1239 -0.0044
20332SOL    HW163150   2.096   1.353   4.223 -0.1826  1.8059 -0.7980
20332SOL    HW263151   2.206   1.457   4.220  1.6569 -0.0607 -0.2877
20333SOL     OW63152   6.960   3.667   0.294  0.2455  0.1775 -0.4687
20333SOL    HW163153   6.920   3.749   0.264  0.5184 -0.2204 -2.0098
20333SOL    HW263154   7.049   3.692   0.319  0.0883  0.4866 -0.2158
20334SOL     OW63155   7.218   7.387   1.952  0.3204 -0.6111 -0.4123
20334SOL    HW163156   7.128   7.357   1.943  0.7926 -2.0661 -0.5075
20334SOL    HW263157   7.240   7.371   2.043  0.4064  0.0158 -0.3158
20335SOL     OW63158   1.416   8.054   4.413  0.0006 -0.1873 -1.1641
20335SOL    HW163159   1.496   8.064   4.465  0.9589 -1.0539 -2.4002
20335SOL    HW263160   1.362   8.128   4.438  0.3031 -0.6769  1.2168
20336SOL     OW63161   2.533   5.105   2.500  0.8197  0.8958  1.0757
20336SOL    HW163162   2.569   5.177   2.448  0.1234  0.1240 -0.5586
20336SOL    HW263163   2.464   5.145   2.552  0.7401  1.4965  0.5185
20337SOL     OW63164   0.471   3.148   6.698 -0.6243 -0.2048 -0.5115
20337SOL    HW163165   0.536   3.182   6.759 -1.8232  2.3799 -0.5003
20337SOL    HW263166   0.495   3.186   6.614 -1.4005 -0.2018 -0.7414
20338SOL     OW63167   8.596   7.325   8.455  0.1052 -0.7614  0.3537
20338SOL    HW163168   8.584   7.415   8.483 -0.3616 -0.8091  0.3098
20338SOL    HW263169   8.575   7.272   8.532  0.1554 -0.8418  0.3132
20339SOL     OW63170   5.312   2.173   6.329 -0.2955  0.2612  0.6917
20339SOL    HW163171   5.218   2.183   6.345 -0.4605  0.4445 -0.3148
20339SOL    HW263172   5.318   2.149   6.236  0.6494  0.2068  0.7568
20340SOL     OW63173   4.435   7.095   7.923  0.7285 -0.2107  0.6534
20340SOL    HW163174   4.502   7.140   7.871  1.8127 -2.8551 -0.4093
20340SOL    HW263175   4.352   7.130   7.890  1.4775  0.0876 -1.0135
20341SOL     OW63176   6.167   1.274   5.646  0.1775  0.0481 -0.0223
20341SOL    HW163177   6.148   1.335   5.718 -2.0828 -0.2155 -0.3262
20341SOL    HW263178   6.183   1.331   5.571 -1.8958  0.3601 -0.2983
20342SOL     OW63179   0.249   9.087   5.993  0.1372  0.6623 -0.2494
20342SOL    HW163180   0.167   9.038   6.004 -0.0379  1.1628  0.7713
20342SOL    HW263181   0.311   9.044   6.051  0.9717 -0.4629 -1.9093
20343SOL     OW63182   6.542   7.920   3.223 -0.9410 -0.2573 -0.6778
20343SOL    HW163183   6.568   7.916   3.315 -0.9377  0.1059 -0.6607
20343SOL    HW263184   6.513   7.831   3.203 -0.8919 -0.3536 -0.3408
20344SOL     OW63185   4.002   2.642   4.430  0.0375  0.1624 -0.3597
20344SOL    HW163186   4.046   2.623   4.348 -0.8857  0.6589 -0.9884
20344SOL    HW263187   3.976   2.734   4.423 -0.2601  0.1473  0.3845
20345SOL     OW63188   1.238   1.381   3.520  0.0673 -0.2070  0.4428
20345SOL    HW163189   1.152   1.391   3.481  0.3928 -0.8902 -0.4947
20345SOL    HW263190   1.268   1.470   3.538  0.1836  0.1950 -1.5239
20346SOL     OW63191   2.510   0.454   1.282  0.1391 -0.3679  0.1134
20346SOL    HW163192   2.488   0.511   1.209 -0.1470 -1.5579 -0.7726
20346SOL    HW263193   2.604   0.436   1.272  0.2921  0.1796  0.5623
20347SOL     OW63194   5.160   6.113   5.947 -0.2077 -0.1250  0.1137
20347SOL    HW163195   5.120   6.062   5.876  0.2914 -0.5034  0.0934
20347SOL    HW263196   5.253   6.118   5.922 -0.7029  3.4865 -1.5229
20348SOL     OW63197   3.223   9.108   1.169  0.9467  0.6143 -0.0575
20348SOL    HW163198   3.182   9.195   1.168 -0.4710 -0.0124  0.6303
20348SOL    HW263199   3.194   9.070   1.252  0.2744 -1.1007 -1.0338
20349SOL     OW63200   8.359   0.569   6.483 -0.3175 -0.5510  0.2630
20349SOL    HW163201   8.294   0.639   6.474  3.4832  3.4008  0.6464
20349SOL    HW263202   8.373   0.560   6.577  0.0473 -1.0826  0.1636
20350SOL     OW63203   8.156   1.375   9.352  0.1349  0.4562 -0.3139
20350SOL    HW163204   8.103   1.360   9.273 -1.4538 -2.8485  1.1992
20350SOL    HW263205   8.219   1.303   9.352  0.2104  0.4963  1.3190
20351SOL     OW63206   1.985   5.312   2.590  0.4279 -0.4197  0.1716
20351SOL    HW163207   2.059   5.258   2.619  0.2117 -0.7346  0.1367
20351SOL    HW263208   2.007   5.400   2.621  0.0985 -0.7824  1.4981
20352SOL     OW63209   4.482   8.665   9.575  0.1166  0.2133  0.2116
20352SOL    HW163210   4.491   8.700   9.486  0.0231  0.9439  0.4818
20352SOL    HW263211   4.549   8.596   9.581 -1.2076 -1.2612 -1.0890
20353SOL     OW63212   5.989   3.429   7.264  0.1147  0.2778  0.8027
20353SOL    HW163213   5.968   3.484   7.189  2.6962  0.0998 -0.1382
20353SOL    HW263214   5.967   3.340   7.235  2.8335 -0.0528 -0.5994
20354SOL     OW63215   6.465   6.273   9.133  0.5069 -0.4603 -0.1335
20354SOL    HW163216   6.459   6.368   9.141 -1.1712 -0.4461 -1.1114
20354SOL    HW263217   6.504   6.258   9.047  0.3434 -0.6525 -0.1745
20355SOL     OW63218   7.702   5.262   1.704  0.0198  0.1053 -0.3380
20355SOL    HW163219   7.775   5.319   1.681 -0.1076 -0.3650 -2.0148
20355SOL    HW263220   7.624   5.313   1.680 -0.1193 -0.4026 -0.9764
20356SOL     OW63221   5.117   9.112   4.799  0.1456 -0.1905 -0.1131
20356SOL    HW163222   5.211   9.104   4.812  0.3871  1.3708 -0.5930
20356SOL    HW263223   5.080   9.031   4.834  1.8329 -1.8218 -1.9166
20357SOL     OW63224   5.251   3.836   5.356  0.2320 -0.3118 -0.1817
20357SOL    HW163225   5.198   3.770   5.400  0.3904 -0.6532 -0.4946
20357SOL    HW263226   5.200   3.858   5.277 -0.4857  0.9492  0.5976
20358SOL     OW63227   6.828   4.898   7.931 -0.4641  0.3113 -0.0903
20358SOL    HW163228   6.806   4.941   8.014 -0.2628 -2.1390  1.3272
20358SOL    HW263229   6.924   4.900   7.928 -0.4172 -0.6472  0.3701
20359SOL     OW63230   1.437   1.611   4.697 -0.2650  0.5725 -0.2597
20359SOL    HW163231   1.347   1.643   4.710 -0.6274 -0.6049  0.2089
20359SOL    HW263232   1.428   1.545   4.628  0.0724 -0.2663  0.4876
20360SOL     OW63233   6.525   2.466   7.624 -0.4413 -0.4315 -0.3112
20360SOL    HW163234   6.477   2.451   7.542 -0.4871  2.8407 -1.0251
20360SOL    HW263235   6.603   2.515   7.597 -0.6338  1.0342  1.6109
20361SOL     OW63236   4.514   8.418   2.233  0.3687  0.2384  0.0152
20361SOL    HW163237   4.570   8.447   2.161 -1.0968 -1.1747 -1.8055
20361SOL    HW263238   4.461   8.494   2.255 -0.9460  0.0576 -2.2234
20362SOL     OW63239   8.825   9.158   0.708  0.1044  0.4109  0.1129
20362SOL    HW163240   8.792   9.076   0.670  0.7366 -0.4232  1.2862
20362SOL    HW263241   8.748   9.200   0.746 -0.2122  0.3263 -0.4213
20363SOL     OW63242   3.257   9.292   2.554 -0.2878 -0.0620  0.3096
20363SOL    HW163243   3.259   9.375   2.602 -0.1989 -1.0372  2.0854
20363SOL    HW263244   3.347   9.281   2.522  0.1555 -0.2882  1.5737
20364SOL     OW63245   2.903   0.420   3.515 -0.3977 -0.3985 -0.2906
20364SOL    HW163246   2.936   0.509   3.531 -2.7738  0.2219  1.9230
20364SOL    HW263247   2.905   0.410   3.420  0.1029  1.9778 -0.6052
20365SOL     OW63248   0.599   4.222   4.633  0.3602 -0.4680 -0.1376
20365SOL    HW163249   0.604   4.131   4.605  1.1549 -0.3979 -0.2522
20365SOL    HW263250   0.506   4.244   4.628  0.3774 -0.6858 -1.9911
20366SOL     OW63251   5.426   6.904   9.625 -0.6791  0.3646 -0.1644
20366SOL    HW163252   5.470   6.937   9.547 -1.7208  1.2510 -0.3985
20366SOL    HW263253   5.406   6.813   9.605  1.3837 -0.2150  0.1221
20367SOL     OW63254   3.404   4.808   5.615 -0.0592  0.1782  0.2435
20367SOL    HW163255   3.493   4.819   5.584  0.2504  0.6827  1.2914
20367SOL    HW263256   3.412   4.799   5.710 -1.0072 -1.0918  0.2264
20368SOL     OW63257   4.448   7.774   2.802  0.3152  0.4042 -0.2837
20368SOL    HW163258   4.436   7.814   2.889  0.8541 -1.0282  0.4759
20368SOL    HW263259   4.538   7.740   2.804  0.0505 -0.3593 -1.1102
20369SOL     OW63260   6.607   6.194   3.076  0.1696  0.0541 -0.0162
20369SOL    HW163261   6.530   6.216   3.024  0.8182  1.0925 -0.5764
20369SOL    HW263262   6.675   6.176   3.011  0.8535  0.8426  0.4700
20370SOL     OW63263   7.745   9.293   4.969  0.3256 -0.1624 -1.1788
20370SOL    HW163264   7.727   9.375   4.923 -0.7995 -0.3140 -1.0544
20370SOL    HW263265   7.659   9.265   5.001  0.9072 -0.6617 -0.0042
20371SOL     OW63266   4.971   3.420   4.807  0.3590 -0.4883 -0.0626
20371SOL    HW163267   5.043   3.416   4.744 -0.9993 -0.6808 -1.6936
20371SOL    HW263268   5.007   3.464   4.884  1.7615  0.8763 -1.4486
20372SOL     OW63269   6.549   0.328   4.004  0.3105 -0.5615  0.7143
20372SOL    HW163270   6.538   0.264   3.934 -0.5011 -0.3620  0.6568
20372SOL    HW263271   6.624   0.296   4.054  1.0666 -0.5631 -0.3958
20373SOL     OW63272   8.848   3.096   7.134  0.1952 -0.9843 -0.0871
20373SOL    HW163273   8.826   3.174   7.082 -1.7347 -1.1356  0.4276
20373SOL    HW263274   8.872   3.131   7.220 -0.3983 -0.9402  0.0621
20374SOL     OW63275   3.868   5.635   8.203  0.1393 -0.1733 -0.1462
20374SOL    HW163276   3.885   5.542   8.215 -1.5223 -1.0033 -3.3162
20374SOL    HW263277   3.928   5.663   8.134 -0.2155  0.8106 -0.0843
20375SOL     OW63278   3.643   3.577   2.102  0.0814  0.7496  0.3291
20375SOL    HW163279   3.612   3.491   2.074 -1.9033  1.3469  0.5797
20375SOL    HW263280   3.722   3.559   2.153 -0.4009 -0.9374  0.5258
20376SOL     OW63281   8.733   1.552   6.310  0.3879 -0.1816 -0.0477
20376SOL    HW163282   8.681   1.610   6.365 -1.3064 -1.4427 -0.2250
20376SOL    HW263283   8.726   1.590   6.222 -0.9656 -0.7430 -0.2188
20377SOL     OW63284   4.659   3.736   4.756  0.2072  0.1900 -0.1075
20377SOL    HW163285   4.727   3.754   4.690  1.7936  1.1172  1.6990
20377SOL    HW263286   4.589   3.798   4.735 -0.6084 -1.3930 -2.5684
20378SOL     OW63287   8.039   9.082   0.916 -0.4634  0.6682 -0.1571
20378SOL    HW163288   8.017   9.052   1.004  0.1810 -0.7532 -0.4645
20378SOL    HW263289   8.133   9.097   0.919 -0.3919  0.3207 -0.6933
20379SOL     OW63290   6.133   3.580   3.802  0.1199 -0.1826  0.2426
20379SOL    HW163291   6.059   3.576   3.742  0.0905 -1.0069  0.3259
20379SOL    HW263292   6.178   3.662   3.779 -0.0959 -0.3057 -0.6561
20380SOL     OW63293   1.289   8.903   0.006 -0.4511 -0.0180 -0.4380
20380SOL    HW163294   1.313   8.964  -0.064 -0.1354  1.8487  1.2170
20380SOL    HW263295   1.370   8.855   0.025  0.1145  1.1310  0.1876
20381SOL     OW63296   8.223   8.976   1.521 -0.5907 -0.1025 -0.3329
20381SOL    HW163297   8.134   9.003   1.497 -1.3323 -0.1577  2.0946
20381SOL    HW263298   8.230   8.886   1.490 -1.2093  0.0399 -0.9147
20382SOL     OW63299   8.255   7.398   5.377 -0.7139  0.0887  0.3094
20382SOL    HW163300   8.167   7.401   5.414 -0.4609  1.3909  0.8797
20382SOL    HW263301   8.259   7.472   5.317 -0.0624 -0.0508  0.1669
20383SOL     OW63302   4.645   7.814   1.042 -0.6166  0.3648 -0.1177
20383SOL    HW163303   4.636   7.768   1.125 -0.3897 -0.2532 -0.4290
20383SOL    HW263304   4.564   7.794   0.995 -0.4295  0.1029 -0.3352
20384SOL     OW63305   7.594   6.213   3.904 -0.0048  0.3022 -0.2885
20384SOL    HW163306   7.523   6.267   3.938 -2.0752 -1.4147 -1.5641
20384SOL    HW263307   7.593   6.135   3.960  1.5648  0.6340  0.2584
20385SOL     OW63308   1.353   5.679   6.507  0.3251  0.2262 -0.0144
20385SOL    HW163309   1.269   5.637   6.524  0.5589 -1.1798 -1.9920
20385SOL    HW263310   1.398   5.679   6.592 -1.0191 -0.4580  0.7258
20386SOL     OW63311   8.346   8.529   5.137 -0.3506  0.5329  0.3194
20386SOL    HW163312   8.353   8.452   5.192 -1.7587  0.5702  0.5876
20386SOL    HW263313   8.351   8.603   5.197  0.1046  0.6330  0.1639
20387SOL     OW63314   4.757   3.779   9.367 -0.0834 -0.0539 -0.5312
20387SOL    HW163315   4.771   3.808   9.277 -1.4123 -0.9938 -1.0791
20387SOL    HW263316   4.774   3.857   9.421 -1.6584  1.2506 -1.7979
20388SOL     OW63317   0.783   4.887   0.006  0.0887  0.1398 -0.4155
20388SOL    HW163318   0.688   4.900   0.000 -0.2136 -1.4121  0.4864
20388SOL    HW263319   0.793   4.792   0.017  1.5563  0.5554  2.6488
20389SOL     OW63320   8.505   8.130   2.556 -0.2887 -0.1076 -0.0038
20389SOL    HW163321   8.438   8.174   2.609  1.2099  1.5230  0.6348
20389SOL    HW263322   8.488   8.160   2.467 -0.3679  0.3402  0.1603
20390SOL     OW63323   3.727   0.308   4.252  0.5212  0.1272  0.4927
20390SOL    HW163324   3.635   0.283   4.263  1.0385 -0.9195  3.1073
20390SOL    HW263325   3.764   0.238   4.198  0.0602 -0.0995  0.4614
20391SOL     OW63326   8.747   1.071   0.296 -0.0849 -0.4213  0.0851
20391SOL    HW163327   8.693   1.117   0.231  0.1590 -0.0397  0.1498
20391SOL    HW263328   8.811   1.022   0.245  0.6430  0.5411  0.0495
20392SOL     OW63329   4.768   6.473   8.578 -0.5919  0.1184 -0.1988
20392SOL    HW163330   4.771   6.379   8.563 -2.4055  0.1917 -1.2826
20392SOL    HW263331   4.741   6.482   8.669 -1.5307 -0.4206 -0.4221
20393SOL     OW63332   6.110   6.761   7.731 -0.2033  0.5706  0.4535
20393SOL    HW163333   6.198   6.740   7.701 -0.4722 -1.2690  0.8197
20393SOL    HW263334   6.122   6.810   7.812  0.4839  0.5626  0.3566
20394SOL     OW63335   3.352   6.900   9.254 -0.1692 -0.9415 -0.6151
20394SOL    HW163336   3.367   6.915   9.160 -0.4417  1.4024 -0.3292
20394SOL    HW263337   3.412   6.828   9.276  0.9751 -0.5622 -2.2759
20395SOL     OW63338   5.219   0.415   8.769 -0.4354 -0.3166  0.3453
20395SOL    HW163339   5.306   0.429   8.733 -0.3778 -0.6991  0.3307
20395SOL    HW263340   5.184   0.503   8.783  0.0588 -0.1584  0.6180
20396SOL     OW63341   6.366   2.304   3.697  0.7227  0.0571  0.6381
20396SOL    HW163342   6.398   2.215   3.716  1.2134  0.6512  2.7934
20396SOL    HW263343   6.373   2.351   3.780 -3.4381  0.9901  0.6998
20397SOL     OW63344   0.646   2.893   6.213  0.3971 -0.1191 -0.3391
20397SOL    HW163345   0.608   2.813   6.248  0.4119  1.2261  3.1677
20397SOL    HW263346   0.739   2.872   6.200  0.4469 -0.6359  0.7542
20398SOL     OW63347   3.770   1.283   6.243 -0.0185  0.5243  0.6149
20398SOL    HW163348   3.731   1.203   6.278  2.0398 -0.0963  1.6097
20398SOL    HW263349   3.831   1.311   6.311 -0.1640  2.5612 -0.0356
20399SOL     OW63350   8.838   0.721   9.498 -0.3429 -0.2735  0.0585
20399SOL    HW163351   8.894   0.708   9.574 -0.8116 -0.0584  0.4483
20399SOL    HW263352   8.749   0.714   9.532 -0.5772  0.8384 -0.2723
20400SOL     OW63353   5.375   6.551   6.724 -0.1333  0.0961  1.0498
20400SOL    HW163354   5.303   6.550   6.662  0.3595  2.8195  0.3273
20400SOL    HW263355   5.332   6.559   6.810 -0.7140  1.2874  0.6623
20401SOL     OW63356   5.323   8.068   8.703  0.0134  0.4077 -0.1926
20401SOL    HW163357   5.327   8.017   8.622 -0.5714 -0.4431  0.3107
20401SOL    HW263358   5.250   8.129   8.689  0.0218  0.3760 -0.3745
20402SOL     OW63359   4.163   6.298   8.611  0.3001  0.4735 -0.0456
20402SOL    HW163360   4.211   6.349   8.546  2.9450  0.5149  1.7673
20402SOL    HW263361   4.219   6.299   8.688 -0.8567 -2.7969  1.0147
20403SOL     OW63362   8.736   3.568   0.312 -0.7747 -0.0723 -0.2767
20403SOL    HW163363   8.642   3.585   0.299 -0.9722 -0.7686  0.2121
20403SOL    HW263364   8.770   3.650   0.346 -1.7095 -0.5780  2.0463
20404SOL     OW63365   4.430   3.819   3.413 -0.2917  0.1292  0.7482
20404SOL    HW163366   4.433   3.832   3.318 -0.6104  2.4410  0.9792
20404SOL    HW263367   4.484   3.889   3.448 -0.7880 -0.2268  2.3021
20405SOL     OW63368   3.592   2.222   8.384 -0.1196  0.2204  0.0703
20405SOL    HW163369   3.623   2.303   8.425 -0.0447 -0.5189  1.5320
20405SOL    HW263370   3.514   2.198   8.434 -0.6401 -0.1690 -0.9038
20406SOL     OW63371   3.075   3.132   3.087 -0.1684 -0.5697 -0.5123
20406SOL    HW163372   3.091   3.052   3.136  0.3501 -0.6957 -0.8755
20406SOL    HW263373   3.100   3.110   2.997 -1.0410 -0.3282 -0.8259
20407SOL     OW63374   7.915   2.842   4.554 -0.0075  0.5595 -0.2460
20407SOL    HW163375   7.944   2.895   4.479  1.9782  0.8072  0.6256
20407SOL    HW263376   7.886   2.759   4.515 -0.0648  1.0973 -1.3811
20408SOL     OW63377   6.737   8.171   3.418 -0.0633  0.0633 -0.1532
20408SOL    HW163378   6.743   8.083   3.456  0.0495 -0.9181 -2.3015
20408SOL    HW263379   6.644   8.184   3.402 -0.0961  0.4132  0.3036
20409SOL     OW63380   7.980   7.228   2.725  0.0222 -0.0134  0.0909
20409SOL    HW163381   7.957   7.168   2.655 -0.2608  0.3574 -0.1398
20409SOL    HW263382   8.065   7.199   2.756  0.9366  0.8264 -1.5238
20410SOL     OW63383   6.049   8.308   7.484  0.6904  0.5270 -0.2146
20410SOL    HW163384   6.118   8.345   7.540 -0.6323  0.4033  1.5617
20410SOL    HW263385   5.971   8.359   7.505 -0.1763 -0.4742 -0.8906
20411SOL     OW63386   1.748   1.262   1.098  0.2417  0.5333 -0.0611
20411SOL    HW163387   1.686   1.333   1.117  0.8225  1.3103 -0.9617
20411SOL    HW263388   1.697   1.182   1.111 -0.5281  1.1172  0.6316
20412SOL     OW63389   4.104   7.208   0.783  0.4917  0.5880  0.7271
20412SOL    HW163390   4.193   7.227   0.754  1.0895 -1.2218  1.2195
20412SOL    HW263391   4.106   7.222   0.878 -0.1491  1.8351  0.5871
20413SOL     OW63392   5.819   1.242   6.640  0.3806 -0.2258 -0.2901
20413SOL    HW163393   5.898   1.195   6.617  1.7829  2.3695 -1.1916
20413SOL    HW263394   5.812   1.312   6.575 -2.7710 -0.4226 -0.3365
20414SOL     OW63395   2.852   2.902   2.278  0.6718 -0.4442  0.4301
20414SOL    HW163396   2.902   2.865   2.350  2.7688  1.0354 -0.1571
20414SOL    HW263397   2.760   2.886   2.301  1.3436 -2.3875  2.0534
20415SOL     OW63398   2.224   8.140   3.221  0.2620 -0.8216 -0.0560
20415SOL    HW163399   2.153   8.133   3.285 -0.1954  1.7686 -0.1848
20415SOL    HW263400   2.274   8.059   3.233 -0.9222 -1.3176  2.2071
20416SOL     OW63401   5.621   5.472   1.839 -0.5151 -0.0386  0.3602
20416SOL    HW163402   5.696   5.413   1.851 -0.4481 -0.4339 -1.6095
20416SOL    HW263403   5.559   5.445   1.907  0.6424 -0.4929  1.2781
20417SOL     OW63404   1.859   8.323   0.826  0.5357 -0.1351 -0.1877
20417SOL    HW163405   1.919   8.343   0.898  0.1240 -0.9262  0.3854
20417SOL    HW263406   1.793   8.265   0.864  0.0455 -0.1991 -1.0899
20418SOL     OW63407   4.016   3.128   3.096  0.5345 -0.4043  0.4939
20418SOL    HW163408   4.055   3.199   3.044  1.0557 -0.9849  0.0812
20418SOL    HW263409   4.086   3.064   3.106 -0.4654 -1.7913 -0.8552
20419SOL     OW63410   6.657   5.752   1.203  0.4110  0.1289 -0.0794
20419SOL    HW163411   6.668   5.796   1.287  0.7703  1.0309 -0.5858
20419SOL    HW263412   6.617   5.668   1.225  1.3048 -0.0215  1.0797
20420SOL     OW63413   4.423   8.829   8.142 -0.0606 -0.1531  0.0704
20420SOL    HW163414   4.469   8.746   8.153  0.5773  0.1940  0.0361
20420SOL    HW263415   4.492   8.894   8.128 -0.5395  0.4338  0.3841
20421SOL     OW63416   7.347   5.344   4.440 -0.3646  0.1928 -0.0605
20421SOL    HW163417   7.296   5.284   4.495  1.3916  0.3708  1.8859
20421SOL    HW263418   7.295   5.424   4.436 -0.5155  0.1961  1.4428
20422SOL     OW63419   1.327   1.090   4.067  0.3353  0.1564  0.2351
20422SOL    HW163420   1.390   1.145   4.021  0.6768 -0.6713 -0.3235
20422SOL    HW263421   1.344   1.107   4.160  0.1034  1.3340  0.0709
20423SOL     OW63422   6.326   8.790   6.925  0.1652 -0.3095 -0.1359
20423SOL    HW163423   6.252   8.758   6.976 -1.8506  0.0197 -2.6387
20423SOL    HW263424   6.376   8.711   6.903 -0.5259 -0.7860 -0.0182
20424SOL     OW63425   2.087   0.768   0.049 -0.3728  0.0730  0.2786
20424SOL    HW163426   2.089   0.859   0.079  1.4596  0.4981 -0.9183
20424SOL    HW263427   1.995   0.742   0.055 -0.7994  1.6864  1.5110
20425SOL     OW63428   8.729   3.923   5.195  0.0730 -0.0292  0.2072
20425SOL    HW163429   8.768   3.837   5.208 -0.8582 -0.7035 -1.2557
20425SOL    HW263430   8.649   3.921   5.247  0.4854  0.2893  0.8695
20426SOL     OW63431   4.677   5.755   5.173 -0.0778 -0.0217 -0.0073
20426SOL    HW163432   4.676   5.829   5.234  0.4589 -1.0728  1.3265
20426SOL    HW263433   4.701   5.794   5.089  1.2673  1.1670  0.8868
20427SOL     OW63434   3.243   8.301   7.588  0.0443 -0.0433 -0.3742
20427SOL    HW163435   3.320   8.244   7.597  0.0009 -0.0223  0.1485
20427SOL    HW263436   3.267   8.362   7.518  0.5901  0.0988 -0.0743
20428SOL     OW63437   0.790   6.890   4.493 -0.6185  0.2190 -0.5718
20428SOL    HW163438   0.843   6.952   4.442 -0.2232 -1.9420 -3.0073
20428SOL    HW263439   0.727   6.856   4.430 -2.1448 -0.4269  1.2131
20429SOL     OW63440   4.920   0.808   2.243 -0.4627 -0.6133 -0.6047
20429SOL    HW163441   4.889   0.788   2.332  0.9436 -1.8773 -0.3549
20429SOL    HW263442   4.896   0.899   2.229  0.0232 -0.1171  1.4208
20430SOL     OW63443   7.319   6.699   8.806 -0.6062  0.2502  0.0823
20430SOL    HW163444   7.304   6.604   8.810 -0.8686  0.3442  1.9464
20430SOL    HW263445   7.410   6.707   8.778 -0.8979 -0.5036 -1.1896
20431SOL     OW63446   7.159   3.048   1.277  0.0099  0.3143  0.4455
20431SOL    HW163447   7.106   3.042   1.197  1.5118  0.5431 -0.6109
20431SOL    HW263448   7.124   3.124   1.322  0.9550  1.9639 -1.4435
20432SOL     OW63449   8.054   9.228   9.538  0.0795  0.3910 -0.1445
20432SOL    HW163450   7.999   9.252   9.463 -1.2403 -1.7300  0.0622
20432SOL    HW263451   8.031   9.291   9.606 -0.1797  1.1107 -0.8791
20433SOL     OW63452   2.804   8.291   2.591 -0.2426 -0.0835 -0.1172
20433SOL    HW163453   2.749   8.284   2.513 -0.6465 -0.3435  0.1872
20433SOL    HW263454   2.841   8.203   2.603  0.7024  0.2248 -0.6473
20434SOL     OW63455   8.965   2.077   6.261 -0.4128  0.6488 -0.5430
20434SOL    HW163456   9.035   2.112   6.316 -0.4517  2.1100 -1.3774
20434SOL    HW263457   9.009   2.044   6.183 -0.3320 -1.6446  0.4036
20435SOL     OW63458   0.285   7.133   8.819 -0.1631  0.8567 -0.2069
20435SOL    HW163459   0.323   7.093   8.741 -0.1577  1.1053 -0.3315
20435SOL    HW263460   0.350   7.197   8.848 -0.9430  2.0762 -1.0579
20436SOL     OW63461   2.121   7.310   7.750 -0.3083 -0.5826  0.3590
20436SOL    HW163462   2.208   7.284   7.782 -0.3938 -0.1437  0.9498
20436SOL    HW263463   2.087   7.231   7.708  0.2594 -0.8422  0.3702
20437SOL     OW63464   9.146   0.623   8.345 -0.1742 -0.0844 -0.0735
20437SOL    HW163465   9.178   0.706   8.381 -0.7108  0.0859  0.0308
20437SOL    HW263466   9.128   0.569   8.421 -1.5690  0.3732 -0.0408
20438SOL     OW63467   1.770   4.389   8.065  0.5969  0.1285  1.0456
20438SOL    HW163468   1.814   4.427   7.988  1.2386  1.2281  1.9314
20438SOL    HW263469   1.789   4.295   8.059  1.2694  0.3002  0.2616
20439SOL     OW63470   4.168   7.336   3.325  0.4758  0.1408  0.1161
20439SOL    HW163471   4.235   7.344   3.394 -0.3507  0.9963  0.8681
20439SOL    HW263472   4.207   7.378   3.249  1.3783 -0.7433  0.0760
20440SOL     OW63473   4.781   6.846   0.877 -0.0028  0.2140  0.1860
20440SOL    HW163474   4.811   6.851   0.787  0.3613  1.5795  0.3684
20440SOL    HW263475   4.737   6.929   0.894  0.6229  0.3207  1.4914
20441SOL     OW63476   2.673   4.005   7.637 -0.0890  0.2336  0.1904
20441SOL    HW163477   2.620   3.965   7.706  1.1950 -0.9147  0.5434
20441SOL    HW263478   2.667   3.944   7.563 -0.2509  0.7173 -0.2036
20442SOL     OW63479   1.446   8.793   4.965 -0.2333  0.1063 -0.4835
20442SOL    HW163480   1.414   8.775   4.877  1.0592  0.1806 -0.9830
20442SOL    HW263481   1.525   8.739   4.973  0.7008  1.5041 -0.0616
20443SOL     OW63482   5.472   0.222   8.118  0.4012 -0.0942 -0.7432
20443SOL    HW163483   5.547   0.162   8.122  0.1672 -0.3499  0.4111
20443SOL    HW263484   5.434   0.207   8.032  1.8357  0.2457 -1.4655
20444SOL     OW63485   8.776   7.809   0.612 -0.9956 -0.0184 -0.3731
20444SOL    HW163486   8.833   7.860   0.554 -0.6274 -0.2000 -0.1742
20444SOL    HW263487   8.834   7.745   0.652 -1.2834 -0.0067  0.0703
20445SOL     OW63488   4.803   7.482   4.375  0.0240 -0.3002  0.0575
20445SOL    HW163489   4.755   7.400   4.372 -2.7967  1.2394 -0.3385
20445SOL    HW263490   4.895   7.456   4.381 -0.8419 -3.4610  2.4555
20446SOL     OW63491   9.522   1.701   7.018  0.3970  0.1008  0.2030
20446SOL    HW163492   9.544   1.708   6.925 -4.3120  0.3435 -1.1485
20446SOL    HW263493   9.486   1.787   7.041 -2.0139 -1.0315  1.0383
20447SOL     OW63494   7.111   8.215   0.539 -0.8100 -0.5761  0.2949
20447SOL    HW163495   7.023   8.252   0.546  0.2882  1.9541  1.8385
20447SOL    HW263496   7.123   8.164   0.619 -0.6513 -0.3968  0.3859
20448SOL     OW63497   6.269   1.710   1.224 -0.3015  0.1689 -0.0137
20448SOL    HW163498   6.336   1.774   1.201 -0.4743  0.3882  0.0875
20448SOL    HW263499   6.194   1.762   1.251 -0.0615 -0.0738  1.1838
20449SOL     OW63500   2.879   1.651   4.323 -0.1190  0.0160  0.0688
20449SOL    HW163501   2.898   1.613   4.409  1.1885  0.3490 -0.0541
20449SOL    HW263502   2.881   1.745   4.337  0.6310  0.0799 -0.4226
20450SOL     OW63503   2.081   0.916   2.420  0.0519 -0.3326 -0.2775
20450SOL    HW163504   1.999   0.919   2.372 -1.4638 -0.6911  2.1158
20450SOL    HW263505   2.114   1.006   2.419 -1.4544  0.2526  0.4282
20451SOL     OW63506   4.473   3.240   5.828 -0.8038  0.2534  0.0812
20451SOL    HW163507   4.392   3.253   5.779 -0.6733 -0.3684 -0.3126
20451SOL    HW263508   4.503   3.152   5.802 -1.5555 -0.7847  2.4515
20452SOL     OW63509   3.271   7.065   3.583  0.8877 -0.0653  0.1531
20452SOL    HW163510   3.317   7.105   3.656  1.1296  0.6246 -0.3633
20452SOL    HW263511   3.251   6.976   3.612  0.8509  0.2431  1.1071
20453SOL     OW63512   5.491   3.068   1.731 -0.1860  0.0345 -0.1902
20453SOL    HW163513   5.538   3.145   1.700  1.3430 -0.9027 -0.3010
20453SOL    HW263514   5.409   3.103   1.766 -0.2100  1.5432 -1.6056
20454SOL     OW63515   6.538   0.908   6.506  0.0359 -0.4450  0.4862
20454SOL    HW163516   6.608   0.864   6.458  0.2473 -0.6993  1.0173
20454SOL    HW263517   6.553   1.001   6.492  1.6934 -0.4051  2.2522
20455SOL     OW63518   6.574   6.386   5.268 -0.3475 -0.0378  0.5668
20455SOL    HW163519   6.667   6.383   5.245 -0.1474 -1.1851  1.3998
20455SOL    HW263520   6.561   6.308   5.323 -1.6926  0.3716  0.8614
20456SOL     OW63521   2.463   8.416   0.927 -0.1473  0.3593  0.0854
20456SOL    HW163522   2.468   8.323   0.952 -1.0315 -0.0755 -1.2581
20456SOL    HW263523   2.553   8.439   0.904  0.1160 -0.0911  0.6241
20457SOL     OW63524   6.951   1.236   5.712  0.1105  0.1910 -0.2460
20457SOL    HW163525   6.919   1.299   5.647 -0.8857 -0.9381 -0.8809
20457SOL    HW263526   7.015   1.183   5.665 -0.1112 -0.1936 -0.1196
20458SOL     OW63527   3.438   6.978   6.233 -0.0991 -0.2744 -0.6541
20458SOL    HW163528   3.415   7.070   6.246 -1.1332 -0.5180 -0.6786
20458SOL    HW263529   3.360   6.930   6.261  0.8932 -1.2133  0.6216
20459SOL     OW63530   3.920   6.316   6.141 -0.0770 -0.1212  0.0140
20459SOL    HW163531   4.007   6.344   6.111 -0.4746 -0.5269 -1.6261
20459SOL    HW263532   3.935   6.231   6.183  0.1885 -0.7187 -1.2464
20460SOL     OW63533   6.529   1.880   2.628 -0.2389  0.9420 -0.2876
20460SOL    HW163534   6.586   1.839   2.694  0.8039 -2.1889 -2.8649
20460SOL    HW263535   6.543   1.974   2.640  0.2877  0.5633  3.4939
20461SOL     OW63536   8.240   3.619   1.983  0.0245 -0.0882  0.2776
20461SOL    HW163537   8.203   3.533   1.960 -1.7656  0.9138 -0.9012
20461SOL    HW263538   8.164   3.670   2.011  0.5581  1.9094 -1.6407
20462SOL     OW63539   9.186   6.722   5.175  0.2633  0.2287 -0.4078
20462SOL    HW163540   9.188   6.778   5.097 -1.2832 -1.6061 -1.8387
20462SOL    HW263541   9.264   6.667   5.166  0.6276  0.6797 -0.1002
20463SOL     OW63542   2.106   6.219   0.885 -0.5792 -0.1517 -0.3979
20463SOL    HW163543   2.077   6.164   0.813  1.0013 -0.6077 -0.7200
20463SOL    HW263544   2.054   6.190   0.960 -1.7553 -0.1313 -1.1899
20464SOL     OW63545   8.631   8.178   6.821  0.3925  0.3415  0.2202
20464SOL    HW163546   8.568   8.134   6.763 -0.3849  0.4314  0.9727
20464SOL    HW263547   8.626   8.129   6.903 -0.0344  1.4501  0.8737
20465SOL     OW63548   4.075   4.664   0.553  0.2911  0.2898  0.2674
20465SOL    HW163549   4.057   4.577   0.520 -0.0085  0.0097  1.1401
20465SOL    HW263550   4.073   4.720   0.476  2.4965 -0.7456 -0.6396
20466SOL     OW63551   3.399   7.363   2.821 -0.2716 -0.3561  0.0561
20466SOL    HW163552   3.360   7.314   2.749  0.8251  0.3464 -1.0473
20466SOL    HW263553   3.437   7.296   2.878 -0.2413 -0.8652 -0.5518
20467SOL     OW63554   4.088   2.666   5.057 -0.0790  0.1102 -0.1669
20467SOL    HW163555   4.069   2.593   5.116  1.3294 -0.6527 -0.6191
20467SOL    HW263556   4.153   2.632   4.996 -1.9339  0.6654 -2.6412
20468SOL     OW63557   5.483   0.175   3.942  0.1425 -0.2658  0.8091
20468SOL    HW163558   5.508   0.191   3.851 -0.8409  1.4576  0.7847
20468SOL    HW263559   5.444   0.088   3.942 -1.4161  0.3729 -0.7966
20469SOL     OW63560   6.881   4.177   2.555  0.0758  0.3250 -0.6347
20469SOL    HW163561   6.834   4.178   2.471 -1.2846 -0.1706  0.1010
20469SOL    HW263562   6.933   4.257   2.554  0.6380 -0.0197 -2.2565
20470SOL     OW63563   8.954   3.038   1.749 -0.1635 -0.1092 -0.3819
20470SOL    HW163564   8.906   3.074   1.674  0.7721 -1.3769 -1.6481
20470SOL    HW263565   9.046   3.048   1.725  0.2382  1.3693  1.5642
20471SOL     OW63566   3.357   1.129   3.370 -0.0825  0.5250  0.6801
20471SOL    HW163567   3.373   1.038   3.392 -0.8964  0.3321  0.5159
20471SOL    HW263568   3.412   1.179   3.431  0.0257 -0.0675  1.0705
20472SOL     OW63569   1.547   5.857   2.381  0.1848  0.3061  0.4381
20472SOL    HW163570   1.607   5.866   2.455 -0.7815 -0.8385  1.4024
20472SOL    HW263571   1.500   5.776   2.398 -0.9628  0.6801 -0.7851
20473SOL     OW63572   9.082   5.762   8.264 -0.5739 -0.2016  0.5741
20473SOL    HW163573   9.019   5.824   8.228 -0.7865 -0.7343  0.0239
20473SOL    HW263574   9.038   5.725   8.340  0.4097  1.9685  2.3382
20474SOL     OW63575   1.102   1.673   4.127 -0.0928 -0.3013 -0.0672
20474SOL    HW163576   1.040   1.707   4.191  0.2742 -0.3944  0.3442
20474SOL    HW263577   1.053   1.670   4.045  0.0379  1.8827 -0.2946
20475SOL     OW63578   4.774   8.689   6.181 -0.4833 -1.0789  0.6481
20475SOL    HW163579   4.718   8.635   6.125 -0.8855  0.1166 -0.1404
20475SOL    HW263580   4.738   8.675   6.269 -1.5156 -0.9686  0.2660
20476SOL     OW63581   0.176   6.117   4.824  0.0510  0.1346  0.1719
20476SOL    HW163582   0.177   6.207   4.857 -1.0848  0.0294  0.5268
20476SOL    HW263583   0.265   6.085   4.838  1.0122  1.7979 -1.6346
20477SOL     OW63584   5.659   8.495   0.082 -0.6419 -0.0311 -0.0156
20477SOL    HW163585   5.584   8.444   0.051 -0.5242 -0.4774  0.4140
20477SOL    HW263586   5.658   8.575   0.030 -1.7434  0.2182  0.3655
20478SOL     OW63587   1.452   4.755   8.297 -0.0959 -0.8057 -0.2522
20478SOL    HW163588   1.525   4.785   8.242 -0.4999 -0.6783 -0.7280
20478SOL    HW263589   1.419   4.678   8.251 -0.1347 -0.9830  0.0735
20479SOL     OW63590   7.840   4.178   6.211 -0.0717  0.5868 -0.6117
20479SOL    HW163591   7.776   4.157   6.144  0.2010  0.9616 -0.9930
20479SOL    HW263592   7.799   4.247   6.263 -0.1429  0.5402 -0.6068
20480SOL     OW63593   3.913   5.742   3.546 -0.3975 -0.2179  0.0328
20480SOL    HW163594   3.900   5.699   3.630  1.8705  2.3082  1.8795
20480SOL    HW263595   3.924   5.671   3.483  0.2532 -2.2643  2.3118
20481SOL     OW63596   0.126   8.832   4.080 -0.4486  0.1984  0.3461
20481SOL    HW163597   0.189   8.902   4.098 -0.9517  0.2894  1.9232
20481SOL    HW263598   0.149   8.800   3.993  1.8503  0.1215  0.9341
20482SOL     OW63599   4.820   8.547   5.738  0.4196  0.5631  0.1927
20482SOL    HW163600   4.898   8.501   5.770  0.8802  2.1800  1.5051
20482SOL    HW263601   4.853   8.616   5.681 -0.1777  0.1787 -0.6402
20483SOL     OW63602   2.174   6.106   0.423  0.4336  0.0180  0.0523
20483SOL    HW163603   2.124   6.120   0.343 -1.0756  2.7063  1.3135
20483SOL    HW263604   2.239   6.176   0.424  2.2417 -1.5813 -0.0410
20484SOL     OW63605   8.388   0.561   1.892 -0.1934 -0.0301 -0.2144
20484SOL    HW163606   8.439   0.507   1.952  0.7008 -0.0668 -0.9908
20484SOL    HW263607   8.300   0.524   1.894 -0.1281 -0.1605  0.9033
20485SOL     OW63608   1.846   2.106   1.396  0.4621 -0.2715 -0.2837
20485SOL    HW163609   1.852   2.189   1.444  0.3538 -0.0523 -0.6529
20485SOL    HW263610   1.936   2.089   1.368  0.5155 -0.3702 -0.0606
20486SOL     OW63611   6.647   7.451   5.819 -0.1670 -0.5087  0.4001
20486SOL    HW163612   6.725   7.461   5.873  0.1438 -1.9423  0.2405
20486SOL    HW263613   6.680   7.445   5.729 -0.5710  0.1918  0.1903
20487SOL     OW63614   4.752   3.590   5.035  0.0007 -0.4431 -0.4432
20487SOL    HW163615   4.691   3.664   5.029 -0.7215 -1.0542 -0.7886
20487SOL    HW263616   4.802   3.594   4.953  1.5437  0.9860  0.5075
20488SOL     OW63617   7.553   9.191   6.313  0.9056 -0.0430  0.1821
20488SOL    HW163618   7.486   9.260   6.318  1.3501  0.4875 -0.9720
20488SOL    HW263619   7.523   9.125   6.376 -0.0238  0.7677  0.6276
20489SOL     OW63620   3.269   6.236   8.826  0.3806 -0.1687  0.6999
20489SOL    HW163621   3.269   6.223   8.731 -0.5663  2.4112  0.2511
20489SOL    HW263622   3.310   6.321   8.838  0.0942 -0.2568  2.5797
20490SOL     OW63623   1.753   7.710   6.869  0.6706 -0.5149 -0.2837
20490SOL    HW163624   1.827   7.702   6.808  0.5735  1.2238 -0.6788
20490SOL    HW263625   1.785   7.771   6.936 -0.2809  0.0016 -0.2862
20491SOL     OW63626   7.884   1.747   1.787  0.1715  0.3632 -0.1676
20491SOL    HW163627   7.819   1.807   1.747 -0.2135  0.1829  0.1840
20491SOL    HW263628   7.850   1.660   1.767 -1.0378  0.2424  2.1245
20492SOL     OW63629   0.441   4.142   1.634  0.1575 -0.0714 -0.1543
20492SOL    HW163630   0.483   4.197   1.701  2.1465  1.6506 -2.6134
20492SOL    HW263631   0.512   4.088   1.600 -1.2197 -2.3183  0.3023
20493SOL     OW63632   0.463   4.890   9.404  0.3590 -0.1105  0.1192
20493SOL    HW163633   0.476   4.914   9.496 -0.2467  1.1076 -0.0793
20493SOL    HW263634   0.497   4.801   9.396 -0.0672 -0.4332  1.6434
20494SOL     OW63635   5.438   9.309   7.294 -0.6761 -0.1349  0.3982
20494SOL    HW163636   5.418   9.225   7.253  1.9450 -0.2480 -0.9084
20494SOL    HW263637   5.478   9.286   7.378  1.3824 -0.3705 -0.5729
20495SOL     OW63638   8.526   2.143   9.347  0.3423 -0.1361 -0.1701
20495SOL    HW163639   8.547   2.103   9.431  0.7501 -2.4861 -1.2937
20495SOL    HW263640   8.610   2.146   9.301  0.1485  1.2321 -0.4617
20496SOL     OW63641   5.984   5.788   1.620 -0.2568  0.1720  0.3016
20496SOL    HW163642   5.964   5.874   1.656  1.6031  0.6924  0.1533
20496SOL    HW263643   5.940   5.787   1.535 -1.0579  0.5862  0.6936
20497SOL     OW63644   7.452   2.743   3.332  0.6035  0.0990 -0.3276
20497SOL    HW163645   7.380   2.754   3.269 -0.1666 -0.0278  0.5182
20497SOL    HW263646   7.455   2.649   3.349  0.3903  0.2071  0.3111
20498SOL     OW63647   1.741   0.372   8.754  0.0309  0.1159 -0.0813
20498SOL    HW163648   1.745   0.397   8.846  0.0287 -1.4635  0.3894
20498SOL    HW263649   1.691   0.441   8.712  2.0429  2.1103  0.6191
20499SOL     OW63650   8.605   1.700   1.684  0.4923  0.1060 -0.1961
20499SOL    HW163651   8.689   1.700   1.639 -0.0760  0.7267 -1.2880
20499SOL    HW263652   8.612   1.628   1.747  3.0968  2.1776  2.1672
20500SOL     OW63653   7.744   3.565   5.666 -0.5042 -0.4885  0.5472
20500SOL    HW163654   7.798   3.628   5.618  0.1072 -2.8205 -2.0542
20500SOL    HW263655   7.678   3.619   5.710  1.6462  2.1589  0.8140
20501SOL     OW63656   2.913   9.602   3.451  0.1778  0.0313  0.0945
20501SOL    HW163657   2.868   9.522   3.480 -0.0342  0.4900  1.0954
20501SOL    HW263658   2.905   9.661   3.526  2.4163  0.1535  0.2762
20502SOL     OW63659   2.174   2.903   1.051 -0.3105  0.5526 -0.0819
20502SOL    HW163660   2.183   2.832   1.115 -1.2138  1.6270  1.2961
20502SOL    HW263661   2.080   2.913   1.039 -0.1928  1.3779 -0.4122
20503SOL     OW63662   9.137   0.026   9.420 -0.2043  0.7589  0.3743
20503SOL    HW163663   9.089   0.003   9.499 -1.2531  0.4915 -0.3137
20503SOL    HW263664   9.098  -0.029   9.352  2.7050 -1.3155  0.1930
20504SOL     OW63665   5.451   9.148   3.219  0.3934 -0.6540  0.3679
20504SOL    HW163666   5.509   9.213   3.178 -0.9204 -0.8734 -2.0378
20504SOL    HW263667   5.509   9.075   3.240  1.3696  0.0276  0.1478
20505SOL     OW63668   9.440   2.036   4.560  0.8747 -0.0780 -0.5267
20505SOL    HW163669   9.380   2.014   4.631 -1.1609 -0.6064 -2.3224
20505SOL    HW263670   9.517   2.071   4.604 -0.6171  0.3571  1.8957
20506SOL     OW63671   9.141   7.283   1.847 -0.0498  0.0921  0.0466
20506SOL    HW163672   9.113   7.310   1.760  0.2178  1.1824  0.2822
20506SOL    HW263673   9.234   7.264   1.838 -0.8490 -4.6483 -1.0056
20507SOL     OW63674   0.091   7.171   5.305  0.1435 -0.1905 -0.1783
20507SOL    HW163675   0.102   7.089   5.256 -0.1681  0.5129 -1.4638
20507SOL    HW263676   0.056   7.233   5.241 -2.6563  0.1428  1.4696
20508SOL     OW63677   2.826   0.597   1.940 -0.8430 -0.3803 -0.4932
20508SOL    HW163678   2.784   0.523   1.985  0.5085 -0.6966  0.3338
20508SOL    HW263679   2.860   0.560   1.859  0.8516 -1.0339  0.4398
20509SOL     OW63680   1.564   9.345   4.445 -0.4266  0.9726 -0.3693
20509SOL    HW163681   1.573   9.428   4.399 -1.8724  0.3988 -1.7896
20509SOL    HW263682   1.636   9.291   4.412  0.4283  1.5928  0.4474
20510SOL     OW63683   7.360   3.033   9.319 -0.5760  0.4710  0.1435
20510SOL    HW163684   7.455   3.026   9.328 -0.5997 -1.1711 -0.5664
20510SOL    HW263685   7.326   2.981   9.392 -0.9150  0.3675 -0.0891
20511SOL     OW63686   0.308   8.222   5.138  0.4301  0.5450  0.3035
20511SOL    HW163687   0.325   8.281   5.211 -0.6997 -0.7418  1.6602
20511SOL    HW263688   0.302   8.280   5.062 -3.4799  2.6305  1.9299
20512SOL     OW63689   6.007   4.390   5.014 -0.3876 -0.8342 -0.2623
20512SOL    HW163690   6.022   4.426   5.102  0.9986  0.3014 -0.9301
20512SOL    HW263691   6.080   4.330   5.000  0.3819  0.2868 -1.2736
20513SOL     OW63692   6.043   7.252   4.016 -0.5178 -0.1870  0.2686
20513SOL    HW163693   6.040   7.172   3.963 -0.1892  0.4343 -0.7201
20513SOL    HW263694   5.973   7.241   4.080 -0.7620 -1.0766 -0.1294
20514SOL     OW63695   8.144   4.290   1.248 -0.3714 -0.3788 -0.2691
20514SOL    HW163696   8.193   4.285   1.330 -1.1811  1.5288  0.3760
20514SOL    HW263697   8.053   4.297   1.275 -0.6586  0.1608 -1.3276
20515SOL     OW63698   1.810   1.950   0.262 -0.0241  0.5461  0.0748
20515SOL    HW163699   1.860   1.925   0.340  1.0690  1.9325 -0.1321
20515SOL    HW263700   1.877   1.961   0.194 -0.8634  0.2740 -0.8104
20516SOL     OW63701   0.687   4.973   2.874 -0.0324 -0.3864  0.2308
20516SOL    HW163702   0.614   4.935   2.923  0.7744 -1.2260  0.8419
20516SOL    HW263703   0.750   4.999   2.941 -0.4065  1.8012 -0.1983
20517SOL     OW63704   8.097   0.243   8.665  0.8176 -0.1974  0.0491
20517SOL    HW163705   8.033   0.279   8.727  1.4793 -0.6582  1.0386
20517SOL    HW263706   8.049   0.231   8.584 -0.2974 -0.3388  0.7146
20518SOL     OW63707   0.883   4.106   4.213  0.8457  0.5994  0.1828
20518SOL    HW163708   0.810   4.048   4.238  0.9231  0.7827  0.8568
20518SOL    HW263709   0.853   4.194   4.238  2.1807  0.4554  2.6765
20519SOL     OW63710   2.280   5.365   0.551  1.0129 -0.1125 -0.0139
20519SOL    HW163711   2.282   5.269   0.553  0.2564 -0.1191  2.1290
20519SOL    HW263712   2.243   5.391   0.635 -2.2346  2.0032 -1.8898
20520SOL     OW63713   6.903   3.760   1.012 -0.6698 -0.0676 -0.6088
20520SOL    HW163714   6.857   3.765   0.929 -0.5739  0.0833 -0.6533
20520SOL    HW263715   6.996   3.761   0.988 -0.6385  0.2487 -0.4849
20521SOL     OW63716   4.534   5.065   9.547  0.5286  0.7914 -0.2515
20521SOL    HW163717   4.516   5.158   9.532  1.5569  0.9888 -0.3154
20521SOL    HW263718   4.489   5.020   9.475  0.4752  1.2795 -0.5265
20522SOL     OW63719   8.210   8.986   0.341 -0.0442  0.4717 -0.4817
20522SOL    HW163720   8.199   8.910   0.398 -0.6466  0.5839 -0.4387
20522SOL    HW263721   8.191   8.952   0.253  0.1095  0.4729 -0.5148
20523SOL     OW63722   7.446   6.063   8.527 -0.1442  0.4521  0.3797
20523SOL    HW163723   7.480   6.044   8.440  0.0192  2.6954 -0.0826
20523SOL    HW263724   7.495   6.004   8.585  2.3481  1.4110 -0.6320
20524SOL     OW63725   4.602   4.182   7.533  0.1351  0.0853 -0.4684
20524SOL    HW163726   4.568   4.144   7.452 -1.2486  0.5234 -0.1158
20524SOL    HW263727   4.624   4.272   7.510 -0.5708  0.3113 -0.3039
20525SOL     OW63728   6.021   3.104   1.534  0.1379  0.2147  0.5219
20525SOL    HW163729   6.035   3.198   1.542  0.2178  0.1789  0.7949
20525SOL    HW263730   5.952   3.096   1.467  1.3485  0.3881 -0.7817
20526SOL     OW63731   4.035   6.547   4.620  0.2294 -0.0914  0.5124
20526SOL    HW163732   3.961   6.539   4.559  0.4768 -0.9116  0.3078
20526SOL    HW263733   4.013   6.623   4.673 -1.1090 -0.7034  0.9015
20527SOL     OW63734   7.470   0.363   3.893 -0.2093  0.7446  0.2985
20527SOL    HW163735   7.455   0.325   3.807 -0.5632  2.0959 -0.2763
20527SOL    HW263736   7.412   0.315   3.952 -2.5397  2.0067 -0.8438
20528SOL     OW63737   2.947   9.358   9.460  0.3895 -0.9267  0.3667
20528SOL    HW163738   2.868   9.360   9.513  1.9581  0.0783  2.8750
20528SOL    HW263739   3.013   9.401   9.514  2.3390 -0.4886 -2.1642
20529SOL     OW63740   7.762   3.667   1.673 -0.7952 -0.5545  0.5937
20529SOL    HW163741   7.737   3.685   1.763  1.5225  0.3210  1.1300
20529SOL    HW263742   7.854   3.641   1.678  0.8107  3.6683 -1.8501
20530SOL     OW63743   1.574   8.467   4.789  1.1565 -0.0697 -0.1441
20530SOL    HW163744   1.481   8.490   4.795  0.8289 -0.8016 -1.6944
20530SOL    HW263745   1.609   8.528   4.724  1.5631 -0.3506 -0.1874
20531SOL     OW63746   3.933   5.642   3.199 -0.4603  0.2732  0.5373
20531SOL    HW163747   3.943   5.560   3.150 -0.2304  1.2088 -1.0531
20531SOL    HW263748   4.021   5.664   3.227 -0.6150 -0.3517  1.5730
20532SOL     OW63749   6.857   8.096   4.884  0.2061 -1.0739 -0.3435
20532SOL    HW163750   6.776   8.113   4.837  0.5438 -1.2252 -0.9889
20532SOL    HW263751   6.872   8.175   4.936 -0.4214 -1.1028 -0.1113
20533SOL     OW63752   1.246   3.310   3.903 -0.2351  0.0218  0.2427
20533SOL    HW163753   1.266   3.251   3.830 -1.9606 -0.1888 -0.1012
20533SOL    HW263754   1.219   3.253   3.974  0.2345  0.2960  0.6466
20534SOL     OW63755   5.437   5.072   2.145  0.2571 -0.2799  0.2133
20534SOL    HW163756   5.418   5.166   2.146 -2.9971 -0.8233  0.1789
20534SOL    HW263757   5.456   5.053   2.053 -1.4641  0.0226 -0.2476
20535SOL     OW63758   2.600   6.455   6.729 -0.3660  0.3901 -0.6970
20535SOL    HW163759   2.671   6.406   6.772 -0.4518  0.5031 -0.4209
20535SOL    HW263760   2.569   6.398   6.660 -2.5383 -1.3223  1.5146
20536SOL     OW63761   6.744   5.027   2.935 -0.3029 -0.0952 -0.5430
20536SOL    HW163762   6.727   4.934   2.947  0.1909 -0.3960 -1.9757
20536SOL    HW263763   6.712   5.046   2.846  1.6411  0.5696 -1.1538
20537SOL     OW63764   0.087   0.466   4.307 -0.0938  0.3714  0.2805
20537SOL    HW163765   0.022   0.399   4.285 -0.1914  0.5019  0.1778
20537SOL    HW263766   0.038   0.533   4.354  0.4158 -0.7988  2.6713
20538SOL     OW63767   2.577   2.519   4.318 -0.0012 -0.5004 -0.0954
20538SOL    HW163768   2.563   2.513   4.223 -0.6573  2.1583 -0.2484
20538SOL    HW263769   2.522   2.450   4.355  1.4434 -2.6045 -1.6689
20539SOL     OW63770   3.242   6.932   1.616 -0.0258 -0.4919 -0.0731
20539SOL    HW163771   3.166   6.975   1.655 -1.2226 -2.2762 -0.3306
20539SOL    HW263772   3.212   6.843   1.599  1.1021 -0.3703 -3.1435
20540SOL     OW63773   4.229   9.540   7.143 -0.2666  0.0677  0.0292
20540SOL    HW163774   4.229   9.528   7.048  0.8836  1.3937 -0.1629
20540SOL    HW263775   4.169   9.614   7.157 -1.8541 -1.2623  0.5349
20541SOL     OW63776   2.881   2.097   4.618  0.1078 -0.3118 -0.5702
20541SOL    HW163777   2.851   2.188   4.625  0.7472 -0.2073  1.2338
20541SOL    HW263778   2.819   2.047   4.671  1.7590 -0.3928  1.3935
20542SOL     OW63779   1.896   8.605   9.503  0.3404 -0.5256  0.3908
20542SOL    HW163780   1.913   8.534   9.441  0.6009 -0.9066  0.8939
20542SOL    HW263781   1.868   8.679   9.448  0.3170 -0.9374 -0.1558
20543SOL     OW63782   0.084   8.726   2.569  0.0927  0.0197 -0.7457
20543SOL    HW163783  -0.011   8.734   2.575 -0.1543 -2.4829 -0.1096
20543SOL    HW263784   0.098   8.647   2.518  1.9250  1.5598 -2.7915
20544SOL     OW63785   6.842   6.801   4.958  0.1814  0.0223 -0.4546
20544SOL    HW163786   6.803   6.888   4.969  1.3232  0.4362  0.5777
20544SOL    HW263787   6.778   6.741   4.995 -1.3060  0.2257 -2.5390
20545SOL     OW63788   5.989   7.033   3.872  0.3270 -0.0485  0.3502
20545SOL    HW163789   5.911   7.026   3.817  1.7422  2.4230 -2.2611
20545SOL    HW263790   6.051   6.970   3.835  0.0635 -1.0268  1.5360
20546SOL     OW63791   8.683   0.461   4.421 -0.3444 -0.0673  0.3895
20546SOL    HW163792   8.717   0.405   4.490 -1.1157  1.5760  2.2125
20546SOL    HW263793   8.599   0.422   4.397 -0.5723 -0.0781  1.1761
20547SOL     OW63794   8.303   1.356   7.240  0.5078  0.8710  0.1619
20547SOL    HW163795   8.354   1.278   7.263 -0.6062  0.1727  0.3374
20547SOL    HW263796   8.311   1.414   7.316 -1.5152 -0.5796  1.5708
20548SOL     OW63797   0.421   1.098   0.690  0.2129  0.0820 -0.0363
20548SOL    HW163798   0.515   1.096   0.710  0.4348 -0.0979 -1.0000
20548SOL    HW263799   0.409   1.024   0.629 -0.1512  1.2824 -1.4831
20549SOL     OW63800   4.438   8.910   1.336  0.5710 -0.8005 -0.5957
20549SOL    HW163801   4.457   8.905   1.242  0.7248  0.8385 -0.6813
20549SOL    HW263802   4.347   8.939   1.340  1.3996  2.1498 -0.3477
20550SOL     OW63803   7.419   4.399   6.011 -0.4102 -0.3151  0.3741
20550SOL    HW163804   7.466   4.374   5.931 -0.9777 -1.5663  0.3953
20550SOL    HW263805   7.383   4.316   6.044 -4.0810  0.7035 -0.5882
20551SOL     OW63806   1.092   1.780   5.649 -0.3715  0.0211  0.3442
20551SOL    HW163807   1.165   1.803   5.590  0.8004 -1.7809  1.0002
20551SOL    HW263808   1.126   1.796   5.737  0.0114 -2.6248  0.7634
20552SOL     OW63809   7.398   6.275   7.054 -0.3109 -0.0921 -0.1360
20552SOL    HW163810   7.472   6.327   7.087 -0.7331  0.6533 -0.3457
20552SOL    HW263811   7.360   6.329   6.985 -1.6857  0.0045  0.6752
20553SOL     OW63812   8.343   0.389   3.317 -0.2667  0.3676  0.0353
20553SOL    HW163813   8.268   0.445   3.297  0.3323  0.9879 -0.5296
20553SOL    HW263814   8.306   0.301   3.322 -1.1054  0.7197  0.2244
20554SOL     OW63815   0.880   5.753   0.615 -0.3431 -0.2678  0.4361
20554SOL    HW163816   0.913   5.840   0.634  1.5008 -0.7421 -0.3736
20554SOL    HW263817   0.828   5.729   0.692 -1.0986  1.6143  0.5515
20555SOL     OW63818   8.341   6.073   8.218 -0.0490 -0.1213 -0.3805
20555SOL    HW163819   8.338   6.006   8.149  0.0792 -0.4083 -0.1129
20555SOL    HW263820   8.267   6.052   8.274  0.9389 -1.0833  0.6406
20556SOL     OW63821   8.553   3.932   3.767  0.2759  0.1136 -0.4266
20556SOL    HW163822   8.627   3.981   3.803  1.0513 -1.0262 -0.3961
20556SOL    HW263823   8.560   3.942   3.672  1.0005 -0.6899 -0.4715
20557SOL     OW63824   0.632   0.297   6.477 -0.0619  0.4045  0.1641
20557SOL    HW163825   0.698   0.289   6.409 -0.0856 -0.8508  0.2606
20557SOL    HW263826   0.674   0.260   6.555 -1.2950 -1.6840 -0.0929
20558SOL     OW63827   2.832   5.975   8.352 -0.4517  0.2497 -0.1731
20558SOL    HW163828   2.890   6.027   8.408  0.4409  0.7855 -1.5560
20558SOL    HW263829   2.891   5.916   8.305 -0.9664  1.0046 -1.8256
20559SOL     OW63830   5.030   7.163   3.988  0.4825  0.0232  0.7223
20559SOL    HW163831   5.081   7.175   3.907 -1.8870 -2.5944 -1.3420
20559SOL    HW263832   4.958   7.225   3.980  0.1928 -0.3066  0.7750
20560SOL     OW63833   8.442   4.985   3.310 -0.0663 -0.0215  0.3065
20560SOL    HW163834   8.467   4.893   3.306 -0.3889 -0.0966  0.0129
20560SOL    HW263835   8.476   5.022   3.228  0.7290  0.2906  0.7641
20561SOL     OW63836   1.196   0.517   1.077  0.0227  0.0575 -0.5955
20561SOL    HW163837   1.256   0.489   1.008 -0.1178  0.5784 -0.9385
20561SOL    HW263838   1.110   0.517   1.035  0.1925  2.5063 -1.1208
20562SOL     OW63839   2.334   7.164   0.265 -0.1855 -0.5734  0.1611
20562SOL    HW163840   2.419   7.123   0.250 -0.0316 -0.0116 -0.6030
20562SOL    HW263841   2.294   7.112   0.334  1.6543  0.3980  2.0967
20563SOL     OW63842   5.822   3.449   0.281 -0.5447 -0.2497  0.7244
20563SOL    HW163843   5.755   3.399   0.327 -0.4822 -0.4845  0.5614
20563SOL    HW263844   5.854   3.512   0.346 -0.8793 -0.1743  0.8183
20564SOL     OW63845   5.663   5.909   7.179 -0.5331  0.3981  0.7339
20564SOL    HW163846   5.714   5.910   7.098 -0.5888  0.8374  0.7054
20564SOL    HW263847   5.575   5.884   7.152 -0.4629  0.1732  0.7113
20565SOL     OW63848   8.473   7.854   7.911 -0.3355 -0.4992  0.3445
20565SOL    HW163849   8.472   7.805   7.993 -1.4380 -0.2435  0.4993
20565SOL    HW263850   8.432   7.938   7.933  2.4427  0.9945  0.3518
20566SOL     OW63851   4.242   1.466   9.334 -0.0739  0.2001 -0.2399
20566SOL    HW163852   4.302   1.469   9.259  0.3913 -2.9976 -0.1482
20566SOL    HW263853   4.161   1.430   9.298  0.2735 -1.7339  0.7911
20567SOL     OW63854   9.018   6.588   4.519 -0.0825  0.3463 -0.1402
20567SOL    HW163855   9.042   6.497   4.501 -0.2264  0.1404  0.6658
20567SOL    HW263856   9.101   6.635   4.523  0.2699 -0.3186  2.4183
20568SOL     OW63857   9.411   0.357   3.864  0.1448  0.1911 -0.0889
20568SOL    HW163858   9.350   0.372   3.936 -0.4018 -0.1835 -0.4655
20568SOL    HW263859   9.361   0.306   3.801  1.1448 -0.9544  0.0093
20569SOL     OW63860   5.613   8.123   2.019 -0.2101 -0.5630  0.1701
20569SOL    HW163861   5.572   8.209   2.015  1.0385  0.0309 -2.4066
20569SOL    HW263862   5.540   8.062   2.024 -1.3669  0.5426 -1.7058
20570SOL     OW63863   1.294   4.291   3.281  0.5139 -0.3196 -0.7169
20570SOL    HW163864   1.375   4.283   3.231  2.1554  1.7507  1.3856
20570SOL    HW263865   1.225   4.265   3.219  2.3845  1.7306 -3.9577
20571SOL     OW63866   3.471   3.560   8.606 -0.6319 -0.5028 -0.4284
20571SOL    HW163867   3.554   3.602   8.581 -0.0628 -1.1699  0.2681
20571SOL    HW263868   3.439   3.614   8.679 -0.6521 -0.4202 -0.4980
20572SOL     OW63869   8.004   6.593   7.492 -0.4464 -0.7075  0.7011
20572SOL    HW163870   7.912   6.575   7.512 -0.6063 -1.8355 -0.8672
20572SOL    HW263871   8.053   6.528   7.543 -0.5687 -0.6780  0.8556
20573SOL     OW63872   4.485   6.332   3.481 -0.1743  0.0491 -0.4104
20573SOL    HW163873   4.426   6.319   3.407  1.2595 -0.9571 -1.4448
20573SOL    HW263874   4.498   6.427   3.484 -0.4953  0.1362 -1.2715
20574SOL     OW63875   3.145   0.903   5.488  0.6151 -0.1266  0.5303
20574SOL    HW163876   3.189   0.854   5.558  0.2109 -1.7849 -0.3182
20574SOL    HW263877   3.054   0.911   5.517  0.8883  0.9945  1.1036
20575SOL     OW63878   0.509   0.062   2.428  0.5955 -0.3835 -0.7666
20575SOL    HW163879   0.532   0.002   2.499  0.4531  0.6371  0.1810
20575SOL    HW263880   0.554   0.027   2.351  2.9859 -0.0614  0.4022
20576SOL     OW63881   5.490   0.875   2.280  0.1966  0.1568  0.7336
20576SOL    HW163882   5.498   0.783   2.307  0.9012  0.0988  0.3441
20576SOL    HW263883   5.494   0.872   2.184 -2.6660  0.3071  0.5113
20577SOL     OW63884   8.681   3.792   1.761 -0.0716  0.1418 -0.1546
20577SOL    HW163885   8.668   3.698   1.746  1.0503  0.1808 -1.6475
20577SOL    HW263886   8.707   3.798   1.853 -0.5032 -0.9733  0.0565
20578SOL     OW63887   9.164   9.315   3.494 -0.3457  0.0423 -0.3911
20578SOL    HW163888   9.093   9.299   3.432 -0.1830 -1.4252 -0.2189
20578SOL    HW263889   9.177   9.410   3.491 -2.5152  0.4035 -0.1883
20579SOL     OW63890   1.257   7.166   8.578  0.5230 -0.1872  0.1448
20579SOL    HW163891   1.264   7.139   8.487 -2.1223 -0.4278 -0.0673
20579SOL    HW263892   1.295   7.253   8.581  0.5677 -0.1437 -1.2037
20580SOL     OW63893   0.477   6.940   2.970 -0.4076 -0.6094 -0.4308
20580SOL    HW163894   0.569   6.918   2.986 -0.9431 -2.3762  0.6171
20580SOL    HW263895   0.454   7.001   3.040 -0.4288 -1.4807  0.3531
20581SOL     OW63896   9.362   7.654   2.193  0.8942 -0.2160 -0.9232
20581SOL    HW163897   9.387   7.728   2.249 -0.8082  0.8382 -1.5017
20581SOL    HW263898   9.386   7.681   2.105 -0.1418 -0.1468 -1.1950
20582SOL     OW63899   6.553   8.064   0.163  0.3431  0.6952 -0.0606
20582SOL    HW163900   6.561   8.079   0.069 -0.6252  0.3588 -0.2098
20582SOL    HW263901   6.472   8.013   0.173  1.3851 -0.8910  0.7902
20583SOL     OW63902   9.350   9.496   8.049 -0.0394  0.4285  0.3424
20583SOL    HW163903   9.388   9.508   8.136  1.4823 -0.8052 -0.1118
20583SOL    HW263904   9.292   9.572   8.037  1.6312  1.9460  1.4194
20584SOL     OW63905   8.978   4.245   2.088  0.1263 -0.2650  0.3411
20584SOL    HW163906   9.050   4.270   2.146 -0.4409  0.8662  0.5933
20584SOL    HW263907   9.017   4.240   2.002  0.3748  1.1479  0.3459
20585SOL     OW63908   0.414   4.095   6.192  0.3096  0.6079 -0.3754
20585SOL    HW163909   0.338   4.143   6.225  0.9711  1.6424 -0.3084
20585SOL    HW263910   0.426   4.023   6.254 -1.6447 -0.6405 -1.3350
20586SOL     OW63911   0.589   6.786   4.245 -0.0046 -0.3412  0.4236
20586SOL    HW163912   0.539   6.841   4.186 -0.2111  0.0844  0.9897
20586SOL    HW263913   0.676   6.782   4.206 -0.1478 -0.0945  0.0739
20587SOL     OW63914   7.399   5.549   5.137  0.3167  0.2026 -0.7223
20587SOL    HW163915   7.421   5.473   5.191 -0.6726  0.1533 -0.3629
20587SOL    HW263916   7.328   5.518   5.080  1.6217  0.1281 -2.3773
20588SOL     OW63917   0.864   8.497   8.889  0.4864  0.8756 -0.0858
20588SOL    HW163918   0.931   8.517   8.823  1.6717 -2.4547 -0.0843
20588SOL    HW263919   0.911   8.498   8.972 -0.6043  3.2304  0.5772
20589SOL     OW63920   5.069   0.405   2.257 -0.7935 -0.6463 -0.5216
20589SOL    HW163921   4.976   0.383   2.251 -1.0664  0.1251  0.6433
20589SOL    HW263922   5.077   0.454   2.338  0.2447  1.3203 -1.7514
20590SOL     OW63923   0.622   1.508   1.842  0.4589 -0.3696 -0.0864
20590SOL    HW163924   0.651   1.504   1.933 -1.4389 -0.2519  0.5568
20590SOL    HW263925   0.681   1.448   1.796 -1.1497 -3.8663  1.9999
20591SOL     OW63926   7.221   5.289   7.907 -0.2481 -0.4911 -0.2684
20591SOL    HW163927   7.135   5.267   7.944 -1.4882  4.3460  0.4021
20591SOL    HW263928   7.278   5.302   7.982  1.1578 -3.2881 -0.7048
20592SOL     OW63929   7.460   4.861   7.916 -0.6537  0.0893  0.1891
20592SOL    HW163930   7.371   4.857   7.949 -0.9619 -0.6680 -0.7009
20592SOL    HW263931   7.460   4.936   7.856  0.3002  2.4618  2.9046
20593SOL     OW63932   5.610   4.807   5.843  0.3400  0.4280  0.3236
20593SOL    HW163933   5.588   4.832   5.753  0.1287  0.1333  0.2911
20593SOL    HW263934   5.701   4.777   5.838  0.5141  0.9510  0.3169
20594SOL     OW63935   8.101   0.539   0.575  0.5574 -0.3174  0.1165
20594SOL    HW163936   8.005   0.539   0.580  0.5625  1.7805  0.8529
20594SOL    HW263937   8.119   0.528   0.481 -0.3955 -0.4660 -0.0689
20595SOL     OW63938   6.228   8.566   5.526 -0.3282  0.4966  0.2505
20595SOL    HW163939   6.188   8.622   5.593 -1.4560  2.8701 -2.1913
20595SOL    HW263940   6.154   8.535   5.474  0.6146  0.1121 -0.8983
20596SOL     OW63941   1.375   6.387   1.273 -0.5251 -0.1555  0.1048
20596SOL    HW163942   1.309   6.382   1.341 -1.8562  1.2279 -1.0134
20596SOL    HW263943   1.355   6.313   1.215  0.5345 -1.2610  1.0865
20597SOL     OW63944   5.819   7.881   3.224  0.5082 -0.3153  0.0309
20597SOL    HW163945   5.730   7.912   3.240  1.1166  2.5664 -1.5262
20597SOL    HW263946   5.869   7.911   3.300  0.1840 -2.3343  1.1370
20598SOL     OW63947   1.520   8.809   9.140 -0.4351 -0.4091 -0.8617
20598SOL    HW163948   1.436   8.786   9.179 -0.1887 -0.4739 -0.3681
20598SOL    HW263949   1.498   8.875   9.074 -0.6610  1.0839  0.6279
20599SOL     OW63950   1.497   8.494   5.630 -1.0328  0.0424  0.5313
20599SOL    HW163951   1.552   8.529   5.559 -0.1470  0.4323  1.3860
20599SOL    HW263952   1.466   8.410   5.596  0.6794 -0.5295  0.2684
20600SOL     OW63953   4.121   1.448   4.129 -0.0821  0.2224  0.1440
20600SOL    HW163954   4.100   1.356   4.145  0.6847  0.0653  0.2932
20600SOL    HW263955   4.058   1.496   4.183  0.2332 -0.2411  0.9466
20601SOL     OW63956   3.546   0.023   1.542 -0.3616 -0.1327  0.5072
20601SOL    HW163957   3.608   0.012   1.615 -0.6177  0.6907  0.8613
20601SOL    HW263958   3.536  -0.065   1.506  0.8769 -0.3231  0.5569
20602SOL     OW63959   0.500   1.754   5.991 -0.1279 -0.4825  0.5184
20602SOL    HW163960   0.582   1.803   5.995 -0.7036  0.4832  0.8641
20602SOL    HW263961   0.435   1.819   5.965 -1.2486 -0.5701  2.8483
20603SOL     OW63962   2.926   4.478   8.925 -0.4236  0.6277 -0.2676
20603SOL    HW163963   2.868   4.488   9.000 -0.4260 -2.3566  0.2534
20603SOL    HW263964   2.870   4.444   8.856  0.4426 -1.2360 -0.0971
20604SOL     OW63965   3.774   3.446   3.805 -0.1447 -0.0814 -0.3712
20604SOL    HW163966   3.813   3.502   3.873 -0.8141 -0.2264  0.1458
20604SOL    HW263967   3.805   3.484   3.723  1.3246 -0.3722  0.0053
20605SOL     OW63968   1.392   5.781   4.252  0.1567  0.3390 -0.4276
20605SOL    HW163969   1.410   5.796   4.159  0.6812  1.0811 -0.2157
20605SOL    HW263970   1.420   5.861   4.295 -2.5390  1.0840  0.1110
20606SOL     OW63971   4.652   2.574   0.886 -0.5134 -0.0248  0.0559
20606SOL    HW163972   4.654   2.537   0.974  0.9772  0.6652  0.3351
20606SOL    HW263973   4.559   2.572   0.862 -0.7844 -1.5351  1.0601
20607SOL     OW63974   0.435   6.124   5.893 -0.5157  0.6786  0.0603
20607SOL    HW163975   0.420   6.144   5.986  0.6286 -2.3581  1.0410
20607SOL    HW263976   0.404   6.034   5.883 -0.0697  0.7318 -2.3960
20608SOL     OW63977   1.502   8.062   0.509  0.2071  0.1275  0.3598
20608SOL    HW163978   1.493   8.037   0.417  0.1148 -0.5151  0.5424
20608SOL    HW263979   1.433   8.128   0.522  0.1398  0.1299 -0.0003
20609SOL     OW63980   9.030   4.882   6.073 -0.6064 -0.3965 -0.4104
20609SOL    HW163981   9.079   4.842   6.145  1.0360 -0.3522 -1.4311
20609SOL    HW263982   9.040   4.976   6.087  0.5002 -0.3850 -1.1628
20610SOL     OW63983   6.462   7.523   0.408  0.3144  0.4834  0.3916
20610SOL    HW163984   6.416   7.603   0.435  0.4223  0.6385  0.1095
20610SOL    HW263985   6.473   7.532   0.314  0.7496  0.3515  0.4308
20611SOL     OW63986   2.900   7.814   8.733 -0.2579  0.1179 -0.1033
20611SOL    HW163987   2.946   7.880   8.785  1.7748 -1.5562  0.3751
20611SOL    HW263988   2.900   7.849   8.644  0.5699  0.8766  0.1780
20612SOL     OW63989   0.147   2.166   7.889 -0.0671 -0.2634  0.1504
20612SOL    HW163990   0.082   2.206   7.831  1.1723  0.4208 -0.8105
20612SOL    HW263991   0.195   2.240   7.926 -0.6005 -0.7030  1.8127
20613SOL     OW63992   5.272   8.543   2.568 -0.3946  0.1521  0.0978
20613SOL    HW163993   5.283   8.460   2.615 -1.1364 -1.9989 -3.1367
20613SOL    HW263994   5.330   8.604   2.613  0.5767 -2.2235  2.3705
20614SOL     OW63995   2.517   9.137   5.942  0.0268  0.8714 -0.4462
20614SOL    HW163996   2.541   9.107   6.029  0.5112  1.4409 -0.3754
20614SOL    HW263997   2.490   9.058   5.895 -0.0757  0.5401  0.1657
20615SOL     OW63998   9.114   0.455   2.687 -0.5532 -0.4092 -0.0026
20615SOL    HW163999   9.067   0.492   2.612 -1.2575  0.7438  0.9722
20615SOL    HW264000   9.064   0.483   2.764  0.8931 -0.3928  0.9879
20616SOL     OW64001   7.439   5.949   7.701 -0.7601 -0.4705  0.1863
20616SOL    HW164002   7.449   5.919   7.791 -3.0882 -0.9589  0.3524
20616SOL    HW264003   7.468   5.876   7.648  2.2469  0.4178  0.4371
20617SOL     OW64004   7.789   2.046   8.349  0.2771 -0.1206 -0.1556
20617SOL    HW164005   7.740   2.128   8.346  2.0320  1.0356  1.2258
20617SOL    HW264006   7.721   1.978   8.347 -1.3077  1.3842  0.1944
20618SOL     OW64007   6.773   4.800   5.600 -0.1679 -0.0328  0.3551
20618SOL    HW164008   6.836   4.795   5.672 -0.9305 -1.2668  0.9729
20618SOL    HW264009   6.826   4.824   5.524  1.2046 -1.7407  0.6995
20619SOL     OW64010   7.490   9.143   1.111  0.0448  0.3375  0.0431
20619SOL    HW164011   7.430   9.206   1.070  1.2776  1.4828 -0.0611
20619SOL    HW264012   7.574   9.187   1.112  0.9914 -1.3836 -0.1277
20620SOL     OW64013   2.943   8.109   0.973  0.0552 -0.2698 -0.7048
20620SOL    HW164014   2.944   8.016   0.993  0.7327 -0.2040 -0.4114
20620SOL    HW264015   2.911   8.151   1.053 -3.6123 -0.4505 -1.8716
20621SOL     OW64016   9.001   8.810   5.020  0.7028  0.0780 -0.1239
20621SOL    HW164017   8.998   8.755   4.941  0.6047  0.2148 -0.2149
20621SOL    HW264018   9.069   8.770   5.074  0.8781  0.0736 -0.3453
20622SOL     OW64019   5.013   6.550   2.550 -0.1242 -0.3752 -0.4174
20622SOL    HW164020   4.973   6.510   2.473  0.3829  1.6168 -1.7721
20622SOL    HW264021   5.107   6.535   2.539  0.0578  0.9640 -0.8507
20623SOL     OW64022   3.343   6.235   8.289 -0.4886 -0.1004  0.1853
20623SOL    HW164023   3.419   6.287   8.315 -1.5535  2.1725 -0.9973
20623SOL    HW264024   3.368   6.195   8.206 -0.8461  1.3521 -0.6476
20624SOL     OW64025   4.047   3.299   3.780 -0.3383 -0.4081  0.4419
20624SOL    HW164026   4.067   3.283   3.872 -0.0029 -0.2433  0.3984
20624SOL    HW264027   4.051   3.394   3.772 -0.8270 -0.3883  0.3586
20625SOL     OW64028   5.354   2.484   8.654 -0.1720  0.0525  0.1445
20625SOL    HW164029   5.368   2.509   8.745 -0.2599  2.6257 -0.4757
20625SOL    HW264030   5.260   2.471   8.646 -0.1737 -0.0839  0.3868
20626SOL     OW64031   1.081   5.008   7.556 -0.2213 -0.1143 -0.8844
20626SOL    HW164032   1.097   4.988   7.464 -2.0998  0.4068 -1.3580
20626SOL    HW264033   0.986   5.003   7.567 -0.2022  1.4619  0.6195
20627SOL     OW64034   0.426   3.417   8.115  0.2266 -0.0028 -0.3823
20627SOL    HW164035   0.392   3.334   8.150 -0.5982 -0.5418 -2.3527
20627SOL    HW264036   0.350   3.459   8.075  0.7849  1.4162 -0.0055
20628SOL     OW64037   3.604   0.799   4.260  0.0461  0.2439  0.0393
20628SOL    HW164038   3.591   0.890   4.232  0.3070 -0.0952 -1.2597
20628SOL    HW264039   3.552   0.748   4.198 -0.3940 -0.4797  0.9869
20629SOL     OW64040   6.322   2.322   4.099 -0.6523 -0.2412  0.1994
20629SOL    HW164041   6.397   2.288   4.050 -1.3408 -1.3389 -0.1447
20629SOL    HW264042   6.360   2.379   4.166  0.4306 -0.2255 -0.4154
20630SOL     OW64043   2.976   3.211   7.792 -0.3010 -0.0655 -0.5676
20630SOL    HW164044   2.929   3.206   7.708 -2.2415 -1.6480  0.5052
20630SOL    HW264045   2.917   3.261   7.849 -1.0156 -2.4709  0.9467
20631SOL     OW64046   5.253   4.960   9.029 -0.4833  0.4006  0.5544
20631SOL    HW164047   5.297   4.918   9.103 -0.7349 -0.0486  0.4530
20631SOL    HW264048   5.323   4.997   8.977 -0.1857 -0.6633  0.1774
20632SOL     OW64049   1.904   6.874   6.782  0.0153 -0.0618  0.1721
20632SOL    HW164050   1.998   6.865   6.793 -0.0979  0.7533  2.0981
20632SOL    HW264051   1.876   6.932   6.853 -1.8596  0.2047 -0.7078
20633SOL     OW64052   5.416   4.329   6.030  0.3403  0.3347  0.0032
20633SOL    HW164053   5.467   4.408   6.012 -0.4200  0.8913  0.2334
20633SOL    HW264054   5.345   4.359   6.087 -0.1055 -0.4697 -0.1187
20634SOL     OW64055   2.562   7.688   5.423  0.1241 -0.1448 -0.3694
20634SOL    HW164056   2.496   7.644   5.370  1.3310 -0.1238 -1.9758
20634SOL    HW264057   2.642   7.637   5.409  0.8721  0.8708  0.0689
20635SOL     OW64058   3.855   4.652   1.220  0.3229 -0.1885 -0.0322
20635SOL    HW164059   3.856   4.744   1.196 -1.3122 -0.3007 -0.6717
20635SOL    HW264060   3.946   4.622   1.207  0.9250  1.3657  0.4462
20636SOL     OW64061   3.980   9.000   5.116 -0.3558  0.0113  0.0839
20636SOL    HW164062   3.958   9.069   5.054 -0.9713  1.6825  2.0424
20636SOL    HW264063   4.032   8.937   5.065 -0.7097  1.3466 -2.0405
20637SOL     OW64064   0.401   7.328   3.960 -0.0465 -0.0942  0.4327
20637SOL    HW164065   0.395   7.405   3.904  0.2590  0.1097  0.6753
20637SOL    HW264066   0.436   7.260   3.902 -1.4190 -0.3851 -0.0912
20638SOL     OW64067   8.293   8.779   9.402 -0.1692 -0.3874 -0.3528
20638SOL    HW164068   8.385   8.765   9.423  0.6854  3.6835 -0.6588
20638SOL    HW264069   8.284   8.746   9.312  1.2388  0.0324 -0.6616
20639SOL     OW64070   9.407   8.541   9.618 -0.3583 -0.0259  0.1375
20639SOL    HW164071   9.472   8.483   9.579 -0.0530 -1.2455  2.2949
20639SOL    HW264072   9.323   8.505   9.590 -0.1767  0.8318 -1.6556
20640SOL     OW64073   1.554   1.878   4.377  0.1901  0.6592  0.0073
20640SOL    HW164074   1.579   1.953   4.323 -1.5269  2.4388  1.4814
20640SOL    HW264075   1.473   1.846   4.338 -0.1138  0.8412  0.4703
20641SOL     OW64076   5.875   0.877   1.013 -0.2574  0.3834  0.0725
20641SOL    HW164077   5.866   0.828   1.095  0.0106  0.3198  0.0664
20641SOL    HW264078   5.789   0.914   0.998 -0.4426 -0.0126  0.1259
20642SOL     OW64079   5.107   8.557   0.366 -0.0167  0.8196  0.5758
20642SOL    HW164080   5.040   8.496   0.398 -1.2093  0.0870 -2.7960
20642SOL    HW264081   5.188   8.507   0.368 -0.2874  0.3881  1.2167
20643SOL     OW64082   2.223   1.356   5.227 -0.3438 -0.1466 -0.2192
20643SOL    HW164083   2.317   1.349   5.247 -0.2964 -1.2151 -0.7153
20643SOL    HW264084   2.197   1.442   5.261  0.7684  0.0776  0.1062
20644SOL     OW64085   4.412   5.676   2.167  0.1673 -0.1498 -0.1772
20644SOL    HW164086   4.363   5.595   2.177  1.0076 -0.7190 -0.5832
20644SOL    HW264087   4.386   5.730   2.242  0.0546 -1.0186  0.4180
20645SOL     OW64088   3.621   9.097   4.770 -0.6036 -0.6313  0.4943
20645SOL    HW164089   3.688   9.134   4.827  0.3011 -0.9429 -0.3282
20645SOL    HW264090   3.539   9.109   4.818  0.0464 -0.3228  1.5647
20646SOL     OW64091   4.298   1.347   0.361 -0.4674  0.2663 -0.0064
20646SOL    HW164092   4.206   1.323   0.355 -1.1055  2.2427  1.1389
20646SOL    HW264093   4.331   1.299   0.437 -0.7295  0.1189  0.0162
20647SOL     OW64094   1.986   4.177   3.848 -0.3459 -0.1323 -0.1533
20647SOL    HW164095   2.019   4.159   3.760 -0.0651  0.1627 -0.1076
20647SOL    HW264096   1.996   4.093   3.895  2.9099  0.5803  0.6889
20648SOL     OW64097   0.770   5.637   4.576  0.0019 -0.1194  0.9692
20648SOL    HW164098   0.713   5.680   4.512  0.0319 -0.0693  0.9756
20648SOL    HW264099   0.827   5.581   4.524  0.1817  0.0966  0.9300
20649SOL     OW64100   1.546   2.899   6.035 -0.2142  0.5220 -0.5764
20649SOL    HW164101   1.557   2.868   5.945 -0.1673 -1.4939  0.0910
20649SOL    HW264102   1.626   2.871   6.080 -0.3348  1.3228  0.1584
20650SOL     OW64103   8.938   8.572   8.449 -0.7231 -0.3159  0.6926
20650SOL    HW164104   8.883   8.506   8.407 -1.8797  0.9852  0.1096
20650SOL    HW264105   8.889   8.598   8.527  0.1041 -0.7030  1.3616
20651SOL     OW64106   7.595   8.142   1.405  0.3556 -0.0600  0.2388
20651SOL    HW164107   7.542   8.174   1.332 -2.3950 -1.7810  1.3340
20651SOL    HW264108   7.579   8.205   1.476 -0.7420 -0.8787  0.7418
20652SOL     OW64109   6.952   1.664   1.818  0.2439  0.2330 -0.1660
20652SOL    HW164110   6.934   1.742   1.766  0.5048 -0.9218 -2.0605
20652SOL    HW264111   6.923   1.688   1.907 -1.5967  1.7631 -1.0940
20653SOL     OW64112   2.723   2.328   6.698  0.0715  0.0111 -0.4173
20653SOL    HW164113   2.774   2.269   6.644 -0.5449 -0.3520 -0.6146
20653SOL    HW264114   2.710   2.406   6.644 -1.0475 -0.5862 -1.0378
20654SOL     OW64115   6.137   9.486   4.319 -0.6338 -0.2810 -0.3862
20654SOL    HW164116   6.213   9.520   4.366  0.9186  1.0063 -3.4971
20654SOL    HW264117   6.066   9.546   4.340 -0.0847  0.0599  0.5152
20655SOL     OW64118   3.750   8.759   6.348 -0.2885 -0.1883 -0.5189
20655SOL    HW164119   3.841   8.734   6.332  0.5844  1.0322  2.0197
20655SOL    HW264120   3.756   8.837   6.403 -2.8927  0.1616 -0.6189
20656SOL     OW64121   8.498   9.390   7.302 -0.0486 -0.1784 -0.1209
20656SOL    HW164122   8.551   9.376   7.224 -0.1935 -1.1242 -0.0644
20656SOL    HW264123   8.426   9.447   7.273 -0.3723 -0.9135 -0.8025
20657SOL     OW64124   5.939   3.260   0.537  0.0470 -0.3192  0.4192
20657SOL    HW164125   5.947   3.355   0.542 -1.1758  0.0630 -2.7542
20657SOL    HW264126   6.029   3.229   0.531  0.4230  0.7631  0.1567
20658SOL     OW64127   7.151   1.263   5.143 -0.4158 -0.1239  0.2261
20658SOL    HW164128   7.247   1.261   5.134 -0.3287  0.2566  0.9791
20658SOL    HW264129   7.131   1.188   5.200 -0.3574  0.9188  1.6740
20659SOL     OW64130   4.889   9.182   6.141  0.3591  0.4983  0.8206
20659SOL    HW164131   4.881   9.088   6.130 -0.6767  0.4270  1.9448
20659SOL    HW264132   4.880   9.218   6.053  1.3304 -0.4709  0.3085
20660SOL     OW64133   0.968   0.568   2.155 -0.3939  0.3345 -0.2888
20660SOL    HW164134   0.954   0.485   2.110  0.1964  0.5180 -0.8286
20660SOL    HW264135   0.908   0.566   2.230 -2.3273  0.5642 -1.7588
20661SOL     OW64136   4.727   4.249   3.613 -0.0728  0.0077 -0.2669
20661SOL    HW164137   4.692   4.183   3.553 -0.2270 -0.2651  0.1173
20661SOL    HW264138   4.821   4.235   3.611  0.1178  1.2451 -1.8905
20662SOL     OW64139   6.683   2.081   2.825  0.2997  0.2350  0.8133
20662SOL    HW164140   6.624   2.156   2.813  1.9976  1.4536 -0.4076
20662SOL    HW264141   6.771   2.119   2.822  1.1905 -1.6820  1.2892
20663SOL     OW64142   4.527   4.200   2.078 -0.1563 -0.5778 -0.3939
20663SOL    HW164143   4.594   4.218   2.011 -1.7023 -3.8081 -3.1121
20663SOL    HW264144   4.458   4.264   2.060  1.7458  2.5841  2.2440
20664SOL     OW64145   4.355   6.485   2.855  0.5785  0.2305 -0.1540
20664SOL    HW164146   4.445   6.518   2.853  0.4985  0.4268 -1.2869
20664SOL    HW264147   4.328   6.486   2.763 -0.1712 -0.9644  0.0400
20665SOL     OW64148   8.856   0.005   3.684  0.7593 -0.7068  0.2478
20665SOL    HW164149   8.792   0.060   3.638 -0.4162 -0.7041  1.8075
20665SOL    HW264150   8.826  -0.085   3.669 -0.0721 -0.6765  1.5622
20666SOL     OW64151   8.618   7.235   6.382  0.5923  0.5648  0.4045
20666SOL    HW164152   8.605   7.277   6.297  0.5723 -1.3373 -0.5720
20666SOL    HW264153   8.693   7.177   6.370  1.7126  1.5117  2.2160
20667SOL     OW64154   6.656   1.428   9.169 -0.0002  0.1985  0.4227
20667SOL    HW164155   6.710   1.351   9.189  0.4111  0.2464 -0.4277
20667SOL    HW264156   6.575   1.413   9.216  0.1876 -0.6273  0.5028
20668SOL     OW64157   4.190   0.491   4.076 -0.3375 -0.1488 -0.1539
20668SOL    HW164158   4.202   0.572   4.027 -0.8342 -0.5184 -0.9159
20668SOL    HW264159   4.276   0.448   4.073  0.1074  0.6330  0.8159
20669SOL     OW64160   1.646   4.039   3.122 -0.3207 -0.5579 -0.0150
20669SOL    HW164161   1.660   4.070   3.212 -0.0151  0.7592 -0.4879
20669SOL    HW264162   1.625   3.946   3.131  2.6166 -1.2099  1.2189
20670SOL     OW64163   1.468   4.137   0.742 -0.0467 -0.4341 -0.0239
20670SOL    HW164164   1.418   4.109   0.665  1.0443  0.1523 -0.9788
20670SOL    HW264165   1.487   4.229   0.727  0.3752 -0.3639  0.8501
20671SOL     OW64166   7.290   1.376   3.753 -0.3920 -0.1112  0.8246
20671SOL    HW164167   7.289   1.383   3.658 -2.9592  1.5107  0.8703
20671SOL    HW264168   7.340   1.297   3.771 -0.0297 -0.5800 -1.8735
20672SOL     OW64169   3.670   9.340   8.625 -0.7142  0.4259 -0.3518
20672SOL    HW164170   3.737   9.358   8.560 -0.4785  2.5953  0.3986
20672SOL    HW264171   3.695   9.393   8.701 -1.6340 -1.0805  1.0783
20673SOL     OW64172   3.899   3.006   0.931 -0.7249  0.1911 -0.2026
20673SOL    HW164173   3.883   2.913   0.920 -1.3276 -0.3662  3.7729
20673SOL    HW264174   3.992   3.013   0.949 -0.7498  0.3105 -0.1186
20674SOL     OW64175   3.956   8.600   5.025  0.4583 -0.4458 -0.4014
20674SOL    HW164176   4.036   8.615   5.074 -0.1213 -1.1333  0.8060
20674SOL    HW264177   3.886   8.610   5.089 -0.2847 -2.0771 -0.8863
20675SOL     OW64178   8.743   4.585   2.294  0.4571  0.0202 -0.3329
20675SOL    HW164179   8.728   4.668   2.340 -1.6479 -0.1495 -0.5924
20675SOL    HW264180   8.774   4.526   2.362  0.3349  0.5790  0.2206
20676SOL     OW64181   5.444   4.735   5.121  0.1416  0.0322 -0.2414
20676SOL    HW164182   5.413   4.688   5.197  0.4702 -0.3838 -0.3613
20676SOL    HW264183   5.393   4.700   5.048 -2.3245  2.4653  0.1212
20677SOL     OW64184   2.193   8.212   7.100 -0.9207 -0.8709 -0.2119
20677SOL    HW164185   2.168   8.196   7.191  1.6122  2.6072  1.3020
20677SOL    HW264186   2.123   8.267   7.065  0.1149  1.4533  1.1600
20678SOL     OW64187   3.478   7.654   7.884 -0.5528  0.0732 -0.2703
20678SOL    HW164188   3.384   7.672   7.894 -0.4242  0.3585  0.5437
20678SOL    HW264189   3.518   7.693   7.962  0.2546  0.0179 -0.6418
20679SOL     OW64190   3.542   6.276   3.932  0.3209  0.0079 -0.5558
20679SOL    HW164191   3.487   6.203   3.960 -0.0371 -0.0984 -1.5094
20679SOL    HW264192   3.581   6.247   3.850 -2.0282  1.8692 -2.5043
20680SOL     OW64193   5.274   6.127   5.120 -0.6866 -0.4480  0.0706
20680SOL    HW164194   5.187   6.118   5.159 -0.1702  0.8630  1.6358
20680SOL    HW264195   5.304   6.037   5.108 -1.9517 -0.9071  0.2238
20681SOL     OW64196   0.684   5.228   2.367 -0.0601 -0.5573 -0.1710
20681SOL    HW164197   0.753   5.268   2.420 -1.3964  1.9864 -0.1768
20681SOL    HW264198   0.696   5.266   2.280 -0.7091 -1.0543 -0.4899
20682SOL     OW64199   9.059   8.965   8.765  0.0679  0.3078 -0.0901
20682SOL    HW164200   9.020   8.982   8.679  0.6047  0.0857 -0.3786
20682SOL    HW264201   8.984   8.946   8.822 -0.4481  2.0995 -0.1112
20683SOL     OW64202   4.629   8.999   0.874  0.3237 -0.3821  0.1883
20683SOL    HW164203   4.661   9.083   0.842  2.1816 -1.4596 -0.9500
20683SOL    HW264204   4.667   8.934   0.815 -1.0955 -2.0478  0.9942
20684SOL     OW64205   5.380   8.926   5.087 -0.0838 -0.2665 -0.2755
20684SOL    HW164206   5.365   8.864   5.016  2.0468  0.9530 -1.9173
20684SOL    HW264207   5.388   8.871   5.165  1.5624 -2.1268 -1.6347
20685SOL     OW64208   4.915   9.575   2.004  0.4292 -0.7094  0.3061
20685SOL    HW164209   4.935   9.489   1.968 -0.2287 -1.1961  1.0596
20685SOL    HW264210   4.889   9.628   1.929 -1.4119 -1.8328  0.0748
20686SOL     OW64211   8.410   2.336   4.925 -0.1351  0.4531  0.5333
20686SOL    HW164212   8.482   2.278   4.903 -0.6656 -0.1171  0.2643
20686SOL    HW264213   8.433   2.420   4.884  0.4165  0.3066  0.5385
20687SOL     OW64214   8.217   9.295   4.621 -0.0061  0.1313  0.5601
20687SOL    HW164215   8.137   9.286   4.672 -1.0825 -0.7043 -1.1796
20687SOL    HW264216   8.199   9.369   4.562  0.5704  0.0460  0.2711
20688SOL     OW64217   6.903   3.712   5.385  0.2741 -0.0379  0.0551
20688SOL    HW164218   6.820   3.695   5.340 -0.1403  1.1044  0.3624
20688SOL    HW264219   6.916   3.635   5.441 -1.3244  0.4058  1.0910
20689SOL     OW64220   0.271   8.547   3.723 -0.0622 -0.1090  0.4336
20689SOL    HW164221   0.292   8.468   3.672  0.4712  0.4724 -0.2817
20689SOL    HW264222   0.286   8.521   3.814  1.4469 -0.4542  0.1182
20690SOL     OW64223   8.771   5.164   3.216  0.2403  0.1048 -0.0273
20690SOL    HW164224   8.816   5.181   3.299  0.2478  0.3165 -0.0760
20690SOL    HW264225   8.678   5.164   3.238  0.2266  0.5174 -0.0853
20691SOL     OW64226   6.391   9.095   9.373  0.1753 -0.0972  0.5565
20691SOL    HW164227   6.353   9.168   9.323 -0.4811  0.0715  1.2792
20691SOL    HW264228   6.370   9.017   9.321  1.0921  0.2405 -0.3431
20692SOL     OW64229   5.098   0.852   5.398  0.0084  0.5664  0.1699
20692SOL    HW164230   5.149   0.933   5.405  0.7054  0.3298 -1.6391
20692SOL    HW264231   5.126   0.814   5.315 -1.4020 -0.7920  0.2882
20693SOL     OW64232   9.049   6.917   3.447 -0.1965  0.0022  0.4628
20693SOL    HW164233   8.965   6.873   3.434  0.3234 -0.4091 -1.9506
20693SOL    HW264234   9.025   7.008   3.467 -1.2040 -0.4124  1.2365
20694SOL     OW64235   9.036   8.958   4.698 -0.1728 -0.0411  0.1017
20694SOL    HW164236   9.119   8.949   4.745 -0.1662  1.9176  0.5791
20694SOL    HW264237   9.010   8.868   4.677  1.8405 -0.7256  0.3012
20695SOL     OW64238   3.613   2.902   2.722  0.1432  0.1913  0.1747
20695SOL    HW164239   3.525   2.924   2.691  1.3592  2.3194 -2.2208
20695SOL    HW264240   3.625   2.956   2.800  0.1705  1.8921 -0.9607
20696SOL     OW64241   1.826   1.156   1.685  0.0364  0.0467  0.2932
20696SOL    HW164242   1.834   1.234   1.630 -0.1011 -0.9944 -1.2644
20696SOL    HW264243   1.748   1.112   1.652  1.2315 -1.7659 -0.2401
20697SOL     OW64244   1.750   5.067   5.448  0.0632 -0.2571 -0.9066
20697SOL    HW164245   1.818   5.050   5.513 -1.2241 -0.5477  0.3924
20697SOL    HW264246   1.681   5.004   5.467 -1.3728  1.2062 -1.0183
20698SOL     OW64247   6.137   6.975   9.015  0.4967 -0.1508 -0.4380
20698SOL    HW164248   6.098   6.972   8.928  0.5527 -2.0317 -0.4542
20698SOL    HW264249   6.131   7.066   9.042 -1.3266  0.1131 -1.6040
20699SOL     OW64250   7.389   9.244   4.097 -0.1837  0.3690 -0.0863
20699SOL    HW164251   7.386   9.153   4.124 -0.4137  0.3412 -0.2016
20699SOL    HW264252   7.300   9.276   4.109  0.0542  0.7756  0.6214
20700SOL     OW64253   8.353   2.962   7.168 -0.2744  0.2312 -0.2975
20700SOL    HW164254   8.357   2.871   7.195 -1.1489  0.2696  0.0083
20700SOL    HW264255   8.442   2.984   7.142  0.4313 -0.0505  1.7625
20701SOL     OW64256   6.477   1.886   7.107 -0.5535 -0.1263  0.1536
20701SOL    HW164257   6.426   1.942   7.049 -0.9807  0.2340  0.8687
20701SOL    HW264258   6.493   1.940   7.184  1.0776 -0.1616 -0.1250
20702SOL     OW64259   0.838   9.006   9.173 -0.3351 -0.0593 -0.3991
20702SOL    HW164260   0.836   9.030   9.266  1.9130  0.1698 -0.3477
20702SOL    HW264261   0.802   9.083   9.128  0.2540  0.5873  0.2012
20703SOL     OW64262   7.701   4.037   2.087  0.2323 -0.0791  0.3190
20703SOL    HW164263   7.659   4.012   2.005  0.9607  1.2814 -0.5035
20703SOL    HW264264   7.635   4.088   2.133  0.5538  1.0432 -0.4369
20704SOL     OW64265   2.850   4.427   1.684 -0.0928  0.9977 -0.3892
20704SOL    HW164266   2.931   4.406   1.636 -0.0288 -1.0319  0.5057
20704SOL    HW264267   2.787   4.450   1.616  1.1880  2.5800 -1.1151
20705SOL     OW64268   8.856   0.664   6.893 -0.1024 -0.5985  0.0295
20705SOL    HW164269   8.777   0.616   6.919  0.0031 -0.2589  1.0060
20705SOL    HW264270   8.882   0.624   6.810 -0.7424 -1.3707  0.1896
20706SOL     OW64271   1.304   2.230   5.270  0.1998  0.1727  0.1323
20706SOL    HW164272   1.274   2.318   5.294  0.6810  0.4282 -0.1891
20706SOL    HW264273   1.381   2.216   5.324  0.1517 -0.0378  0.1473
20707SOL     OW64274   7.515   5.858   1.161 -0.4007  0.4942 -0.5490
20707SOL    HW164275   7.475   5.775   1.188 -1.5179  0.9158 -0.8222
20707SOL    HW264276   7.497   5.863   1.067 -1.6863  1.7141 -0.2797
20708SOL     OW64277   9.259   1.886   1.716 -0.1014 -0.4175  0.4046
20708SOL    HW164278   9.321   1.953   1.745  0.2211  0.7104 -2.5434
20708SOL    HW264279   9.284   1.808   1.765  1.2028  0.9394  2.0375
20709SOL     OW64280   8.855   0.435   0.061 -0.5066  0.5395 -0.6237
20709SOL    HW164281   8.798   0.482   0.122  0.6105  0.5823  0.4104
20709SOL    HW264282   8.932   0.412   0.112  0.1426 -0.0727 -1.8329
20710SOL     OW64283   8.343   7.931   8.275  0.7040 -0.1854  0.0883
20710SOL    HW164284   8.425   7.968   8.242  0.1463  0.6110 -0.4537
20710SOL    HW264285   8.275   7.975   8.223 -0.1661  0.5629  1.7796
20711SOL     OW64286   1.424   0.195   6.791  0.1605 -0.0274  0.2147
20711SOL    HW164287   1.497   0.230   6.740  0.1606 -0.8452 -0.3662
20711SOL    HW264288   1.357   0.175   6.726 -0.2716 -0.0514  0.6595
20712SOL     OW64289   6.389   0.460   0.829 -0.1125 -0.1663 -0.2174
20712SOL    HW164290   6.362   0.377   0.867 -2.3975  1.6912  2.7114
20712SOL    HW264291   6.459   0.492   0.887  0.3379  0.2196 -0.9583
20713SOL     OW64292   1.321   4.298   6.171 -0.3029  0.0969  0.1242
20713SOL    HW164293   1.366   4.375   6.205 -2.2757  0.5762  1.8488
20713SOL    HW264294   1.239   4.332   6.135  0.7026 -0.6968 -3.2646
20714SOL     OW64295   5.385   5.022   8.435 -0.4967 -0.1011 -0.4251
20714SOL    HW164296   5.443   5.005   8.361 -3.1549 -0.8313 -2.5151
20714SOL    HW264297   5.385   5.117   8.445  1.5418 -0.1217  0.1274
20715SOL     OW64298   5.541   9.202   1.577  0.1565  0.2998  0.0450
20715SOL    HW164299   5.479   9.130   1.562 -0.4743  1.2074 -2.1435
20715SOL    HW264300   5.619   9.160   1.612 -0.6761 -1.2660  0.1075
20716SOL     OW64301   2.358   1.172   1.150 -0.3104 -0.1222 -0.2264
20716SOL    HW164302   2.444   1.160   1.189 -0.1779 -1.7569 -0.9590
20716SOL    HW264303   2.336   1.088   1.111 -2.9617 -0.2690  1.2987
20717SOL     OW64304   5.764   6.369   1.312  0.8399 -0.5405 -0.3329
20717SOL    HW164305   5.783   6.319   1.232  1.3228 -0.3971 -0.3114
20717SOL    HW264306   5.689   6.423   1.288 -0.6644 -2.3156  0.0924
20718SOL     OW64307   4.313   1.770   8.651 -0.0717 -0.4438  0.2965
20718SOL    HW164308   4.323   1.684   8.691  0.2762 -1.4909 -1.8697
20718SOL    HW264309   4.218   1.787   8.653 -0.1320 -0.8469  0.8084
20719SOL     OW64310   0.429   2.403   6.244  0.0199  0.2520 -0.2415
20719SOL    HW164311   0.479   2.383   6.165 -0.9114  0.6855 -0.9623
20719SOL    HW264312   0.445   2.496   6.260 -0.2288  0.2960 -0.2412
20720SOL     OW64313   0.321   2.028   0.809  0.2451  0.3677  0.0802
20720SOL    HW164314   0.251   1.993   0.864  0.1586 -0.2035 -0.3854
20720SOL    HW264315   0.356   2.102   0.859  0.4371 -0.3845  1.0961
20721SOL     OW64316   0.130   3.841   0.097 -0.0494 -0.6386  0.1367
20721SOL    HW164317   0.102   3.798   0.178  0.8468  1.8342  1.8630
20721SOL    HW264318   0.081   3.923   0.096  1.6868  0.4306 -0.5895
20722SOL     OW64319   6.478   6.393   4.904 -0.2550 -0.6370  0.7330
20722SOL    HW164320   6.413   6.323   4.915 -0.3015 -0.2764  3.5036
20722SOL    HW264321   6.450   6.461   4.966  2.2600 -0.0695  1.3344
20723SOL     OW64322   1.147   7.309   1.113 -0.0383  0.2363  0.9829
20723SOL    HW164323   1.183   7.390   1.078  0.8496 -0.3601  0.4449
20723SOL    HW264324   1.210   7.242   1.086 -2.0527 -1.0517 -0.9267
20724SOL     OW64325   7.674   4.664   3.491 -0.0864 -0.3192  0.1210
20724SOL    HW164326   7.707   4.639   3.577 -0.5898 -0.2869  0.3272
20724SOL    HW264327   7.582   4.682   3.505 -0.4905 -1.6226 -0.6915
20725SOL     OW64328   6.929   5.413   1.337  0.3894 -0.1585  0.3557
20725SOL    HW164329   6.936   5.354   1.261  0.3226  0.8071 -0.4129
20725SOL    HW264330   6.848   5.387   1.380  0.7656 -1.1669  0.5038
20726SOL     OW64331   6.010   1.374   3.154 -0.2836 -0.4012 -0.3131
20726SOL    HW164332   6.091   1.365   3.104  0.1851  1.3441  0.0699
20726SOL    HW264333   5.951   1.420   3.095 -1.2418 -2.1850 -0.8090
20727SOL     OW64334   5.465   2.352   9.365  0.6785  0.3060  0.1401
20727SOL    HW164335   5.542   2.351   9.421 -0.0584  0.2053  1.1759
20727SOL    HW264336   5.413   2.426   9.396 -0.2616 -0.4095  0.3233
20728SOL     OW64337   1.782   1.396   8.915 -0.0821  0.4590 -0.7395
20728SOL    HW164338   1.727   1.327   8.878 -0.1541  0.1696 -0.1058
20728SOL    HW264339   1.752   1.404   9.005 -2.2683  3.5098 -1.5568
20729SOL     OW64340   4.099   3.284   1.841  0.2535  0.7042  0.6801
20729SOL    HW164341   4.153   3.217   1.884  1.6282  0.6493 -0.9918
20729SOL    HW264342   4.162   3.345   1.803 -0.9403  1.8759  0.5116
20730SOL     OW64343   3.592   0.381   1.175  0.2475  0.4767  0.2201
20730SOL    HW164344   3.496   0.380   1.165  0.1840  0.0963  0.8392
20730SOL    HW264345   3.606   0.367   1.269  0.9733 -1.6812 -0.1597
20731SOL     OW64346   5.173   5.450   7.838  0.0839  0.0022 -0.2632
20731SOL    HW164347   5.250   5.438   7.782  0.5702 -1.5704  0.6900
20731SOL    HW264348   5.202   5.424   7.925 -0.9832  1.3371  0.5296
20732SOL     OW64349   0.885   3.137   6.057 -0.4405 -0.3513  0.6613
20732SOL    HW164350   0.978   3.117   6.059 -0.3078  0.1665 -0.1293
20732SOL    HW264351   0.854   3.102   5.974 -0.5472  1.1596  0.0222
20733SOL     OW64352   4.803   7.616   8.063  0.0302  0.0712  0.0540
20733SOL    HW164353   4.728   7.671   8.039 -0.3889 -0.7835 -0.6271
20733SOL    HW264354   4.869   7.679   8.093 -1.0987  0.8214  1.1192
20734SOL     OW64355   6.325   7.421   8.638 -0.3559 -0.3889  0.2182
20734SOL    HW164356   6.389   7.458   8.578 -0.1638  0.6172  1.0092
20734SOL    HW264357   6.374   7.353   8.686 -0.8672 -2.1940 -1.6502
20735SOL     OW64358   3.229   7.220   4.978 -0.8465 -1.0125 -0.0387
20735SOL    HW164359   3.174   7.176   5.044 -0.5786 -1.4042 -0.0757
20735SOL    HW264360   3.208   7.174   4.896 -2.4963  0.5970 -0.5926
20736SOL     OW64361   8.760   4.556   2.635  0.0825 -0.4178 -0.0785
20736SOL    HW164362   8.807   4.531   2.715 -1.1570 -0.8895  0.5347
20736SOL    HW264363   8.772   4.480   2.577  1.1114 -0.0121 -0.4213
20737SOL     OW64364   9.572   9.006   3.857 -0.3324  0.1413  0.3010
20737SOL    HW164365   9.510   9.067   3.898  0.1523  0.9175 -0.0806
20737SOL    HW264366   9.518   8.951   3.800 -0.8888 -0.3387  1.2571
20738SOL     OW64367   6.950   2.726   0.733 -0.3034 -0.3080  0.0742
20738SOL    HW164368   6.993   2.786   0.672  0.4075 -0.8244  0.0507
20738SOL    HW264369   6.929   2.780   0.809  1.1540 -0.1949  0.4381
20739SOL     OW64370   2.638   3.958   1.733  0.5894  0.1868 -0.1544
20739SOL    HW164371   2.724   3.973   1.772  0.8131  1.5910 -1.1347
20739SOL    HW264372   2.587   4.035   1.757 -0.7578 -1.0480  1.2420
20740SOL     OW64373   5.793   5.857   8.440  0.1527  0.4236  0.0676
20740SOL    HW164374   5.855   5.839   8.369  1.5476  1.3599  0.9792
20740SOL    HW264375   5.754   5.941   8.417 -0.3168  0.1331 -0.1987
20741SOL     OW64376   5.031   7.628   3.539  0.0974 -0.3678 -0.4428
20741SOL    HW164377   4.950   7.603   3.583  0.6570 -1.8407 -0.1995
20741SOL    HW264378   5.096   7.631   3.609  0.3321  0.4986 -0.6846
20742SOL     OW64379   6.868   0.352   0.318  0.5325  0.2767  0.0700
20742SOL    HW164380   6.857   0.431   0.369 -1.6776  0.5685 -0.7480
20742SOL    HW264381   6.804   0.290   0.354 -0.2538  0.1003 -1.5161
20743SOL     OW64382   4.406   9.506   1.267  0.4564  0.0805 -0.0514
20743SOL    HW164383   4.457   9.512   1.186 -1.5826 -0.4169 -1.4473
20743SOL    HW264384   4.345   9.579   1.261 -0.8455 -0.9660  0.2004
20744SOL     OW64385   2.950   1.827   8.725 -0.0908 -0.2394  0.0267
20744SOL    HW164386   2.965   1.835   8.819  0.1701  0.6719 -0.0766
20744SOL    HW264387   2.978   1.911   8.690 -0.8275 -0.3207 -0.7850
20745SOL     OW64388   3.954   1.833   2.012  0.3621  0.9234 -0.0334
20745SOL    HW164389   3.924   1.753   1.971 -0.2291  0.8144  0.6010
20745SOL    HW264390   4.029   1.861   1.958 -0.3854  0.7931 -1.1820
20746SOL     OW64391   7.496   1.091   9.529  0.3895  0.3341 -0.6010
20746SOL    HW164392   7.429   1.144   9.487  0.7522 -0.1394 -1.8182
20746SOL    HW264393   7.483   1.105   9.623 -1.4573  0.1774 -0.8053
20747SOL     OW64394   1.317   6.810   6.802  0.0767 -0.3484  0.1114
20747SOL    HW164395   1.358   6.776   6.882  0.3982  0.5876  0.3569
20747SOL    HW264396   1.376   6.784   6.732  1.7403  1.9246  0.5692
20748SOL     OW64397   3.919   5.154   4.199  0.4754 -0.1184  0.1414
20748SOL    HW164398   3.919   5.120   4.288 -0.4126 -0.2338  0.1020
20748SOL    HW264399   3.921   5.076   4.143  0.8690 -0.0501  0.0561
20749SOL     OW64400   4.960   3.494   8.769 -0.1374  0.0386  0.4013
20749SOL    HW164401   5.040   3.447   8.746 -1.5393 -1.6646 -1.2481
20749SOL    HW264402   4.889   3.435   8.744 -1.9679  2.2436  0.0709
20750SOL     OW64403   4.985   0.590   1.543 -0.2278 -0.3060 -0.5992
20750SOL    HW164404   4.906   0.640   1.561 -0.8615 -1.0368 -1.2578
20750SOL    HW264405   4.962   0.500   1.564  1.7106 -0.1099  3.1564
20751SOL     OW64406   5.964   7.943   5.712  0.2760 -0.3751  0.4830
20751SOL    HW164407   5.959   8.038   5.698  0.0071 -0.2846  1.1697
20751SOL    HW264408   5.875   7.918   5.738  0.2853 -0.8597  0.0696
20752SOL     OW64409   5.045   5.234   7.542  0.0360  0.2309  0.2217
20752SOL    HW164410   5.081   5.149   7.515  2.2729  0.6954  1.4548
20752SOL    HW264411   5.080   5.247   7.630 -0.7127  2.1930  0.2756
20753SOL     OW64412   6.659   3.239   8.099  0.5046  0.1884 -0.0049
20753SOL    HW164413   6.673   3.286   8.181 -2.4363  0.5610  0.3891
20753SOL    HW264414   6.701   3.154   8.112 -0.4840 -0.0330  2.1919
20754SOL     OW64415   7.220   4.302   5.198 -0.6905 -0.5883  0.1574
20754SOL    HW164416   7.216   4.397   5.213 -2.6856 -0.5820 -0.2024
20754SOL    HW264417   7.259   4.268   5.279 -1.2105  0.4233  0.8684
20755SOL     OW64418   2.559   3.737   2.960  0.2010 -0.1182 -0.7837
20755SOL    HW164419   2.607   3.820   2.958 -0.4418  0.6691  3.8323
20755SOL    HW264420   2.471   3.760   2.930  0.4892  0.4598 -1.1953
20756SOL     OW64421   7.509   6.660   6.925 -0.1511 -0.6506 -0.0484
20756SOL    HW164422   7.450   6.660   6.849 -1.1386  0.5255  0.6779
20756SOL    HW264423   7.578   6.722   6.902 -1.0281  0.5343  0.4033
20757SOL     OW64424   7.436   6.158   8.217  0.0638  0.0327 -0.0688
20757SOL    HW164425   7.526   6.127   8.232  0.1414 -0.3478 -1.2446
20757SOL    HW264426   7.384   6.077   8.213 -0.2307  0.2198 -0.0315
20758SOL     OW64427   0.798   2.818   8.185 -0.5450 -0.8014  0.4034
20758SOL    HW164428   0.725   2.781   8.235 -0.4409 -1.8561 -0.1962
20758SOL    HW264429   0.815   2.754   8.116  1.6154 -1.0817  1.1218
20759SOL     OW64430   0.924   1.370   0.661 -0.2665  0.2222 -0.0639
20759SOL    HW164431   1.007   1.412   0.640  0.8940 -0.7555  2.1980
20759SOL    HW264432   0.902   1.402   0.749  0.0116 -2.7167  1.2061
20760SOL     OW64433   1.920   1.474   7.114  0.1796 -0.2872 -0.5682
20760SOL    HW164434   1.969   1.425   7.180  0.2532  0.6272  0.0803
20760SOL    HW264435   1.980   1.481   7.040  1.3344  1.3977  0.4579
20761SOL     OW64436   1.425   7.377   2.370 -0.4031 -0.0973 -0.0204
20761SOL    HW164437   1.478   7.316   2.421 -0.3351  0.6734  0.8492
20761SOL    HW264438   1.360   7.322   2.327  0.0806 -0.8594  0.1976
20762SOL     OW64439   0.405   5.423   8.088 -0.0236  0.0403  0.1310
20762SOL    HW164440   0.407   5.518   8.101 -0.1189  0.3164 -1.5610
20762SOL    HW264441   0.496   5.399   8.075 -0.0590  0.0162 -0.0803
20763SOL     OW64442   5.930   8.881   1.413  0.3005 -0.0161 -0.2093
20763SOL    HW164443   5.909   8.802   1.463  0.1636  0.9641  1.3844
20763SOL    HW264444   5.966   8.849   1.331 -0.2634 -1.7265  0.1638
20764SOL     OW64445   7.885   9.435   0.555  0.3655  0.6343  0.2491
20764SOL    HW164446   7.923   9.436   0.467 -1.6987  0.1334 -0.7066
20764SOL    HW264447   7.945   9.380   0.606  2.0084  1.5543 -0.6176
20765SOL     OW64448   6.122   4.776   8.120  0.1596 -0.3596  0.2147
20765SOL    HW164449   6.044   4.813   8.080  0.8466  1.7509  0.6976
20765SOL    HW264450   6.155   4.845   8.178  2.8381 -0.8505 -0.5727
20766SOL     OW64451   3.209   3.596   2.204  0.0449  0.0293 -0.4342
20766SOL    HW164452   3.275   3.531   2.230  0.6576  0.6131 -0.5064
20766SOL    HW264453   3.239   3.677   2.245 -1.7335 -0.0953  1.2562
20767SOL     OW64454   8.704   5.197   4.419  0.4519 -1.0327  0.0627
20767SOL    HW164455   8.738   5.286   4.407  1.7802 -1.3872  1.0071
20767SOL    HW264456   8.645   5.205   4.494 -1.2872 -0.5135 -1.2887
20768SOL     OW64457   6.808   6.298   7.625  0.6895 -0.1761  0.7139
20768SOL    HW164458   6.735   6.274   7.569  1.1347  0.1085 -0.0045
20768SOL    HW264459   6.842   6.379   7.587  1.1797 -0.1329  1.2279
20769SOL     OW64460   6.601   5.012   7.150  0.1652  0.1145 -0.0420
20769SOL    HW164461   6.696   5.024   7.153  0.1402  1.1168 -1.8246
20769SOL    HW264462   6.587   4.922   7.177  1.5526  0.1791  0.9692
20770SOL     OW64463   6.664   4.083   1.793  0.3951  0.1364 -0.6729
20770SOL    HW164464   6.622   4.084   1.879 -0.7725 -1.4094 -1.1847
20770SOL    HW264465   6.756   4.065   1.811  0.1944 -0.0176  0.2497
20771SOL     OW64466   9.634   8.255   4.887 -0.2445 -0.4732 -0.3977
20771SOL    HW164467   9.726   8.281   4.886  0.1015 -1.5593  0.8869
20771SOL    HW264468   9.622   8.210   4.970 -1.5980 -1.5641 -1.1378
20772SOL     OW64469   2.165   1.886   5.657 -0.4005 -0.2376  0.4849
20772SOL    HW164470   2.226   1.893   5.731  1.4798 -0.3574 -0.9659
20772SOL    HW264471   2.089   1.939   5.683  1.1038  1.4864  1.6412
20773SOL     OW64472   1.600   4.248   7.287  0.4940 -0.2921 -0.0414
20773SOL    HW164473   1.603   4.307   7.363 -2.3797  0.2525 -0.2336
20773SOL    HW264474   1.572   4.304   7.214  0.2163 -1.3831 -0.8064
20774SOL     OW64475   0.489   1.070   9.523 -0.4690 -0.0259 -0.0487
20774SOL    HW164476   0.501   1.037   9.613 -2.5573  0.9509  0.6510
20774SOL    HW264477   0.547   1.146   9.517 -1.6644  1.0248  1.1521
20775SOL     OW64478   1.763   6.946   3.229 -0.4440  0.5173 -0.2791
20775SOL    HW164479   1.681   6.905   3.256  0.5476 -0.3550  1.5740
20775SOL    HW264480   1.824   6.873   3.215  0.1694  1.1675 -1.2059
20776SOL     OW64481   4.861   7.375   4.090  0.1759  0.6316 -0.4617
20776SOL    HW164482   4.777   7.407   4.123  0.0859  0.5426 -0.6037
20776SOL    HW264483   4.898   7.324   4.163  0.2458  0.9205 -0.2947
20777SOL     OW64484   6.498   6.874   4.786 -0.6849  0.0862 -0.4795
20777SOL    HW164485   6.544   6.792   4.768 -1.6778 -0.9435  1.4572
20777SOL    HW264486   6.566   6.933   4.818  0.3971  0.7291 -3.6089
20778SOL     OW64487   2.891   2.359   4.406  0.1422  0.1008  0.7544
20778SOL    HW164488   2.805   2.383   4.441 -0.4876  0.8743 -1.1630
20778SOL    HW264489   2.883   2.266   4.387 -0.0300  0.0128  1.2391
20779SOL     OW64490   6.294   9.118   5.559  0.3629 -0.5076  0.5207
20779SOL    HW164491   6.256   9.036   5.527  0.2112  0.3709 -1.7141
20779SOL    HW264492   6.242   9.187   5.519  2.2729  0.7016 -0.0372
20780SOL     OW64493   8.352   1.176   8.926 -0.0735 -0.4438 -0.7827
20780SOL    HW164494   8.393   1.235   8.989  0.0703  0.0215 -1.3134
20780SOL    HW264495   8.418   1.163   8.858  0.0879 -1.6109 -0.4354
20781SOL     OW64496   2.079   7.512   5.187 -0.3713  0.5733  0.0968
20781SOL    HW164497   2.138   7.530   5.114  1.1830 -1.1373  0.8531
20781SOL    HW264498   2.021   7.443   5.154 -1.5825  1.7755 -0.4124
20782SOL     OW64499   6.273   3.549   0.496 -0.0770  0.0149  0.5919
20782SOL    HW164500   6.310   3.520   0.413 -0.7703 -0.2719  0.3785
20782SOL    HW264501   6.300   3.640   0.504  0.2377 -0.0415  0.1921
20783SOL     OW64502   5.331   1.297   8.852 -0.4473  0.0145  0.0917
20783SOL    HW164503   5.303   1.217   8.895 -0.4268 -0.5616 -0.9380
20783SOL    HW264504   5.311   1.283   8.759 -0.0092  1.0082 -0.1711
20784SOL     OW64505   6.838   6.517   3.346  0.0410  0.0711  0.2373
20784SOL    HW164506   6.847   6.475   3.261  0.0179  2.1505 -0.8528
20784SOL    HW264507   6.928   6.536   3.374  0.0081  0.2449  0.2258
20785SOL     OW64508   5.402   8.814   2.948 -0.1369 -0.7690  0.0725
20785SOL    HW164509   5.319   8.776   2.976  0.5043 -2.1368  0.2163
20785SOL    HW264510   5.465   8.787   3.016  0.5275 -0.1882 -0.2916
20786SOL     OW64511   1.872   8.372   4.907 -0.0764  0.3868  0.3854
20786SOL    HW164512   1.831   8.365   4.821  2.9899  0.2216 -1.2121
20786SOL    HW264513   1.887   8.281   4.934  0.5442  0.4470  0.2517
20787SOL     OW64514   3.550   0.974   3.698 -0.1983  0.9505  0.0459
20787SOL    HW164515   3.603   0.991   3.776  0.8446 -2.0768  0.1163
20787SOL    HW264516   3.612   0.943   3.633 -1.4513  0.6111 -1.0212
20788SOL     OW64517   4.283   0.202   9.012  0.2933  0.3927 -0.0451
20788SOL    HW164518   4.271   0.293   9.040  3.2092  0.5627  0.9838
20788SOL    HW264519   4.220   0.191   8.941 -1.1161  2.7604  0.6885
20789SOL     OW64520   1.217   0.807   9.175 -0.4141  0.6028  0.4725
20789SOL    HW164521   1.151   0.802   9.245 -1.1704 -0.5117 -0.2830
20789SOL    HW264522   1.259   0.891   9.188  0.6442 -0.2576  3.3311
20790SOL     OW64523   5.560   0.111   6.266  0.6459 -0.4855 -0.1008
20790SOL    HW164524   5.606   0.060   6.333  1.0821  2.0041  1.6334
20790SOL    HW264525   5.630   0.157   6.220  0.1526  0.5143  0.1190
20791SOL     OW64526   7.277   5.778   7.057  0.3917  0.5446 -0.6685
20791SOL    HW164527   7.183   5.766   7.045  0.7139 -2.2327 -1.0675
20791SOL    HW264528   7.287   5.870   7.083 -2.5565  0.4945  1.0112
20792SOL     OW64529   8.146   6.013   4.300 -0.0710 -0.4032 -0.0728
20792SOL    HW164530   8.203   5.936   4.306 -0.2877 -0.4981  1.0073
20792SOL    HW264531   8.109   6.009   4.212  2.3110  0.1905 -1.1992
20793SOL     OW64532   0.224   4.541   1.350  0.0596  0.0566 -0.2436
20793SOL    HW164533   0.226   4.447   1.364  0.1820  0.2584  1.2236
20793SOL    HW264534   0.261   4.579   1.429 -2.3294  1.4187  0.3243
20794SOL     OW64535   3.890   0.509   7.804  0.1421  0.0393  0.4779
20794SOL    HW164536   3.799   0.485   7.825  0.0218  1.1121  1.2350
20794SOL    HW264537   3.943   0.467   7.871  0.1938 -0.4490  0.1337
20795SOL     OW64538   7.794   3.269   2.668  0.8716 -0.5321 -0.0075
20795SOL    HW164539   7.843   3.330   2.612  0.2090 -0.5684 -0.6425
20795SOL    HW264540   7.832   3.183   2.647  0.4764 -0.5759 -0.5931
20796SOL     OW64541   7.926   5.587   4.826  0.4090 -0.3176  0.2808
20796SOL    HW164542   7.939   5.494   4.844  2.6215 -0.3608 -1.1866
20796SOL    HW264543   8.005   5.614   4.779 -1.9872  1.2934 -3.2233
20797SOL     OW64544   3.804   0.342   1.682 -0.7067 -0.3248  0.6279
20797SOL    HW164545   3.823   0.255   1.718 -1.9263 -0.4777  0.9575
20797SOL    HW264546   3.728   0.372   1.732 -1.8464 -0.1140 -1.1621
20798SOL     OW64547   0.702   0.395   1.795 -0.1365 -0.2582 -0.3503
20798SOL    HW164548   0.733   0.307   1.775 -0.2122 -0.7546  1.5459
20798SOL    HW264549   0.700   0.399   1.890  0.3989  1.9906 -0.3699
20799SOL     OW64550   1.140   5.562   3.290  0.1113 -0.1436  0.3818
20799SOL    HW164551   1.113   5.642   3.335 -0.7065 -0.8213  1.1287
20799SOL    HW264552   1.174   5.506   3.359  1.5258 -0.1130 -0.2623
20800SOL     OW64553   5.017   4.457   0.977 -0.0422 -0.0755 -0.2296
20800SOL    HW164554   4.932   4.431   0.941  0.2340 -2.5395  0.6487
20800SOL    HW264555   4.999   4.475   1.069  0.4354 -1.3020  0.1333
20801SOL     OW64556   1.997   1.994   8.142  0.1241  0.8372  0.2064
20801SOL    HW164557   1.902   1.998   8.151 -0.0934  1.2989 -1.6994
20801SOL    HW264558   2.013   1.918   8.085  0.9008  0.7137  0.5703
20802SOL     OW64559   6.860   4.443   8.840  0.0366  0.1882 -0.0114
20802SOL    HW164560   6.768   4.420   8.829  0.5881 -1.7402 -1.1943
20802SOL    HW264561   6.884   4.489   8.760  0.9487 -2.7171 -1.5858
20803SOL     OW64562   2.609   8.986   7.299 -0.8371 -0.1806  0.8925
20803SOL    HW164563   2.634   9.004   7.209 -0.9018 -2.1663  0.4169
20803SOL    HW264564   2.606   8.890   7.304 -1.5722 -0.1065  2.7996
20804SOL     OW64565   9.488   1.025   7.371  0.2213 -0.3185 -0.1379
20804SOL    HW164566   9.507   0.964   7.442  2.1995  0.8602  0.4326
20804SOL    HW264567   9.435   0.975   7.309 -1.0823 -1.5420  1.8745
20805SOL     OW64568   2.547   7.940   1.125  0.1074 -0.1971 -0.4738
20805SOL    HW164569   2.630   7.962   1.166 -0.9491  0.3034  1.5373
20805SOL    HW264570   2.481   7.988   1.175 -1.4215 -0.6497 -1.9288
20806SOL     OW64571   7.538   8.434   6.706  0.6761  0.3919 -0.0063
20806SOL    HW164572   7.480   8.454   6.780  0.9323 -1.7407  0.8586
20806SOL    HW264573   7.501   8.354   6.669  1.1416  0.8838 -1.5884
20807SOL     OW64574   6.385   4.343   1.347  0.2138  0.4233 -0.5796
20807SOL    HW164575   6.395   4.248   1.346  0.1025  0.3939  0.2665
20807SOL    HW264576   6.291   4.357   1.339  0.1188  0.4197  0.4261
20808SOL     OW64577   8.367   2.129   8.023 -0.0418  0.0268 -0.1886
20808SOL    HW164578   8.433   2.089   8.079 -1.3470 -1.4441  0.4100
20808SOL    HW264579   8.327   2.054   7.978 -2.6881  0.5706  1.0683
20809SOL     OW64580   8.149   6.448   5.346  0.1772 -0.0658 -0.2068
20809SOL    HW164581   8.227   6.489   5.306 -0.3714  0.3878 -0.8309
20809SOL    HW264582   8.184   6.374   5.396  1.1978  1.0836  0.8671
20810SOL     OW64583   3.747   5.097   9.115 -0.7496 -0.4675  0.2824
20810SOL    HW164584   3.787   5.184   9.110 -0.6604 -0.5612 -0.7770
20810SOL    HW264585   3.817   5.041   9.149 -0.6507 -0.2228  0.4878
20811SOL     OW64586   0.473   7.084   6.768 -0.4823 -0.2610  0.4310
20811SOL    HW164587   0.386   7.064   6.804 -0.8228  1.8966  0.9708
20811SOL    HW264588   0.462   7.171   6.729  1.4321  0.0280  0.4801
20812SOL     OW64589   1.426   6.301   4.945  0.4231  0.2337 -0.3713
20812SOL    HW164590   1.477   6.380   4.928 -0.5946  0.8149 -0.7796
20812SOL    HW264591   1.338   6.333   4.964  0.3008 -0.7179  0.8237
20813SOL     OW64592   9.393   4.276   5.001  0.4551 -0.1585 -0.8938
20813SOL    HW164593   9.437   4.225   4.933  1.3608 -0.2582 -0.2608
20813SOL    HW264594   9.326   4.326   4.955  0.3778 -0.9891 -1.7058
20814SOL     OW64595   1.624   8.384   8.149  0.0923  0.1642 -0.8193
20814SOL    HW164596   1.673   8.456   8.108 -0.9918  0.9845 -0.7285
20814SOL    HW264597   1.618   8.317   8.081  1.4903 -0.0397 -0.7704
20815SOL     OW64598   8.463   8.341   3.093 -0.4648 -0.1561  0.3451
20815SOL    HW164599   8.371   8.354   3.117 -0.1187  0.5401  1.3414
20815SOL    HW264600   8.498   8.288   3.164 -0.4900 -1.9028 -0.8855
20816SOL     OW64601   4.198   4.527   1.592  0.0849  0.5913 -0.0391
20816SOL    HW164602   4.248   4.607   1.576 -1.2808  2.0649  2.5920
20816SOL    HW264603   4.235   4.491   1.672 -0.1361 -0.8006 -0.5274
20817SOL     OW64604   8.698   8.248   1.076  0.3026 -0.3337  0.4559
20817SOL    HW164605   8.745   8.171   1.045  1.9088  0.9991 -0.5690
20817SOL    HW264606   8.644   8.215   1.148  1.9994 -2.1510  0.9971
20818SOL     OW64607   4.729   7.850   3.672 -0.2800  0.0222  0.5897
20818SOL    HW164608   4.757   7.856   3.764 -1.0372 -1.1935  0.9129
20818SOL    HW264609   4.761   7.932   3.633  2.4254 -0.6026  1.2775
20819SOL     OW64610   9.302   3.082   2.925 -0.2196 -0.0467 -0.2638
20819SOL    HW164611   9.276   3.000   2.967  0.8193 -0.4183 -0.3089
20819SOL    HW264612   9.279   3.150   2.988 -0.5874 -0.4255  0.0136
20820SOL     OW64613   3.037   7.182   6.946  0.1037 -0.3313  0.1151
20820SOL    HW164614   3.070   7.159   6.859  0.6798 -2.5619  0.8675
20820SOL    HW264615   3.115   7.189   7.000 -0.2461  1.1346  0.4775
20821SOL     OW64616   5.391   7.101   8.183 -0.1683  0.2715  0.0677
20821SOL    HW164617   5.482   7.111   8.156 -0.7507  1.3352 -1.6827
20821SOL    HW264618   5.393   7.034   8.251  1.9085  0.2721  0.0616
20822SOL     OW64619   9.579   9.577   6.757 -0.4473 -0.0323 -0.1786
20822SOL    HW164620   9.602   9.640   6.689  1.2723  0.3781  0.7227
20822SOL    HW264621   9.662   9.536   6.782 -1.3801 -1.9818 -0.0473
20823SOL     OW64622   6.175   1.417   5.895 -0.6759 -0.2825 -0.4058
20823SOL    HW164623   6.130   1.443   5.975  1.5746  0.7087  0.6170
20823SOL    HW264624   6.210   1.499   5.859 -0.4432 -0.8932 -1.6358
20824SOL     OW64625   2.213   6.024   8.241 -0.2197  0.0555 -0.3939
20824SOL    HW164626   2.184   5.938   8.271 -0.0355 -0.0522 -0.5158
20824SOL    HW264627   2.285   6.005   8.180  0.5260  0.3281  0.3732
20825SOL     OW64628   0.421   8.647   1.290 -0.0609  0.3661 -0.4013
20825SOL    HW164629   0.482   8.710   1.327 -0.3725  1.5791 -1.8497
20825SOL    HW264630   0.363   8.623   1.362  1.4122  0.0369  0.7194
20826SOL     OW64631   8.478   7.575   6.460 -0.9351  0.1780 -0.4500
20826SOL    HW164632   8.548   7.512   6.451 -0.6592  0.4055  0.0416
20826SOL    HW264633   8.409   7.544   6.401 -0.7892 -0.5529 -0.2447
20827SOL     OW64634   4.128   1.875   1.785  0.3660 -0.2647 -0.1687
20827SOL    HW164635   4.182   1.800   1.760  1.0304 -0.1885  0.9730
20827SOL    HW264636   4.157   1.946   1.728 -1.2372 -1.1662 -2.2536
20828SOL     OW64637   7.801   3.150   4.645 -0.2391 -0.3416  0.2881
20828SOL    HW164638   7.743   3.224   4.662  0.5010  0.5817 -1.0520
20828SOL    HW264639   7.809   3.146   4.550 -0.9085 -2.6909  0.2702
20829SOL     OW64640   9.557   3.090   0.977  0.3917  0.1547 -0.1051
20829SOL    HW164641   9.469   3.094   1.015 -0.2915  0.6485 -1.6366
20829SOL    HW264642   9.615   3.109   1.050 -0.7802  0.0254  0.9086
20830SOL     OW64643   9.101   1.714   7.867 -0.2865 -0.3760  0.2832
20830SOL    HW164644   9.060   1.754   7.943 -1.4994  1.3815 -1.2157
20830SOL    HW264645   9.186   1.758   7.858 -0.5116  0.0325  0.1369
20831SOL     OW64646   9.310   2.283   9.201  0.1047 -0.7693 -0.0292
20831SOL    HW164647   9.382   2.328   9.156 -0.6378  0.7303  0.1960
20831SOL    HW264648   9.231   2.327   9.169 -0.4939 -0.1835  2.1015
20832SOL     OW64649   7.700   1.057   3.434  0.2435  0.3371  0.7987
20832SOL    HW164650   7.763   1.019   3.495  0.6728 -0.2221  0.0202
20832SOL    HW264651   7.669   0.983   3.382  1.4801  1.0712 -1.1043
20833SOL     OW64652   5.905   6.492   6.644 -0.2251  0.6884 -0.4508
20833SOL    HW164653   5.811   6.497   6.663 -0.4661 -1.1157 -0.9816
20833SOL    HW264654   5.916   6.409   6.600  2.0594 -0.5720  2.1771
20834SOL     OW64655   5.569   5.743   8.978 -0.8306 -0.5209 -0.0812
20834SOL    HW164656   5.524   5.820   8.942 -0.7938 -0.8463 -0.8445
20834SOL    HW264657   5.541   5.739   9.069 -0.6757  0.5194  0.0217
20835SOL     OW64658   0.055   8.059   1.566 -0.1158  0.0679  0.5524
20835SOL    HW164659   0.146   8.076   1.592  0.4660 -0.2320 -1.1467
20835SOL    HW264660   0.010   8.038   1.647  1.4831 -0.4024  1.3516
20836SOL     OW64661   7.881   1.339   4.669  0.2894  0.2687 -0.4175
20836SOL    HW164662   7.888   1.286   4.589  0.2220  3.4589 -2.7329
20836SOL    HW264663   7.965   1.326   4.713  0.6662 -0.9470 -1.4160
20837SOL     OW64664   7.443   7.219   3.027  0.0246 -0.1587  0.0356
20837SOL    HW164665   7.398   7.270   3.095 -2.0184 -0.4404 -1.0376
20837SOL    HW264666   7.533   7.210   3.060 -0.7710  0.0696  2.4856
20838SOL     OW64667   7.508   8.422   3.642 -0.2508  0.1520 -0.2829
20838SOL    HW164668   7.463   8.338   3.644  1.9153 -1.1117 -1.0250
20838SOL    HW264669   7.470   8.468   3.567 -2.7126  0.6692  1.1778
20839SOL     OW64670   2.643   0.109   3.673 -0.4224  0.1930  0.2565
20839SOL    HW164671   2.576   0.062   3.624  0.0722  2.0753 -2.4366
20839SOL    HW264672   2.594   0.168   3.731 -1.0710 -0.3035  0.2161
20840SOL     OW64673   5.159   4.966   1.351 -0.0470  0.4269 -0.1431
20840SOL    HW164674   5.102   5.019   1.295 -1.0192 -0.7063 -0.2614
20840SOL    HW264675   5.234   4.944   1.296 -1.1237 -0.9214 -1.1460
20841SOL     OW64676   3.115   5.749   6.751 -0.0983  0.0331  0.0962
20841SOL    HW164677   3.178   5.682   6.725 -1.1280 -0.3133 -1.7067
20841SOL    HW264678   3.037   5.701   6.777 -0.5195  0.4850 -0.2939
20842SOL     OW64679   0.343   0.362   8.421  0.0207  0.0839 -0.5869
20842SOL    HW164680   0.408   0.409   8.368  0.3968  0.1041 -0.1144
20842SOL    HW264681   0.288   0.317   8.357  1.2144 -0.8890 -0.9762
20843SOL     OW64682   7.487   3.916   7.713  0.0724  0.4674 -0.0329
20843SOL    HW164683   7.501   3.840   7.656  0.6558  0.6415 -0.1318
20843SOL    HW264684   7.543   3.900   7.789 -1.8956 -0.5381  1.2832
20844SOL     OW64685   0.390   7.317   4.375 -0.0819 -0.2240 -0.1523
20844SOL    HW164686   0.429   7.246   4.425  0.9137  0.8221  0.6143
20844SOL    HW264687   0.461   7.350   4.320 -0.3926  0.4938 -0.1319
20845SOL     OW64688   6.240   7.095   4.304 -0.4883  0.2934 -0.0295
20845SOL    HW164689   6.281   7.013   4.331 -0.6761  0.4505  0.7629
20845SOL    HW264690   6.250   7.097   4.209 -0.6954 -0.7663 -0.0881
20846SOL     OW64691   5.710   4.330   8.379 -0.9187 -0.0970 -0.3628
20846SOL    HW164692   5.806   4.330   8.387 -0.9107  1.9103  0.3074
20846SOL    HW264693   5.694   4.376   8.297 -1.3148 -0.6635 -0.6039
20847SOL     OW64694   3.136   6.539   5.535 -0.0592 -0.4012  0.3759
20847SOL    HW164695   3.136   6.512   5.627 -1.4793 -0.4866  0.3667
20847SOL    HW264696   3.172   6.628   5.536  1.1714 -0.8837  0.8404
20848SOL     OW64697   5.940   1.653   4.256 -0.7324  0.3665 -0.0511
20848SOL    HW164698   5.908   1.628   4.343  0.5348  0.1625  0.3776
20848SOL    HW264699   5.961   1.746   4.264  0.4966  0.0809  0.2277
20849SOL     OW64700   9.220   7.065   3.020  0.1482 -0.1278  0.5832
20849SOL    HW164701   9.142   7.087   2.968 -0.1523 -2.2986  0.0136
20849SOL    HW264702   9.244   6.977   2.991  1.5726 -0.3455  2.2684
20850SOL     OW64703   3.077   6.770   5.050  0.9602 -0.3735 -0.5740
20850SOL    HW164704   3.112   6.825   5.120 -0.3513 -0.4505  0.1726
20850SOL    HW264705   3.154   6.731   5.009  1.7867  0.2768  0.3226
20851SOL     OW64706   3.103   4.048   2.640 -0.4296  0.1918  0.7427
20851SOL    HW164707   3.103   4.046   2.544  1.6809  0.7716  0.6842
20851SOL    HW264708   3.189   4.084   2.663 -1.1217  0.6244  2.8517
20852SOL     OW64709   6.283   2.297   8.556  0.3127 -0.2437 -0.3249
20852SOL    HW164710   6.233   2.281   8.636  0.5281  0.1840 -0.1003
20852SOL    HW264711   6.373   2.309   8.586  0.4233 -0.2659 -0.6498
20853SOL     OW64712   8.991   4.880   7.771 -0.7113  0.1404 -0.1423
20853SOL    HW164713   9.015   4.791   7.743 -0.2830  0.3046 -0.3105
20853SOL    HW264714   8.964   4.924   7.690  0.5295  0.6152 -0.3233
20854SOL     OW64715   8.040   6.188   0.197  0.9677  0.2230 -0.3126
20854SOL    HW164716   8.116   6.146   0.238 -0.9569 -0.4766  2.9074
20854SOL    HW264717   7.976   6.118   0.186 -0.1328  1.2247 -0.5228
20855SOL     OW64718   5.452   3.392   4.945 -0.1903  0.5956  0.2211
20855SOL    HW164719   5.435   3.328   4.876  0.5350  1.3588 -0.7143
20855SOL    HW264720   5.511   3.347   5.006 -0.1959  0.1721 -0.0822
20856SOL     OW64721   8.203   8.605   0.320  0.4364 -0.3370  0.2205
20856SOL    HW164722   8.146   8.639   0.389 -0.4971  0.5927 -0.9506
20856SOL    HW264723   8.185   8.662   0.245  2.4778 -0.4019 -0.3725
20857SOL     OW64724   4.320   2.847   3.394 -0.0204  0.6146  0.3689
20857SOL    HW164725   4.400   2.861   3.445 -0.6323  1.3386  1.1655
20857SOL    HW264726   4.294   2.757   3.412  0.9686  0.1509 -0.4287
20858SOL     OW64727   3.027   9.038   6.942  0.4906 -0.3059 -0.0288
20858SOL    HW164728   3.077   9.117   6.925  0.1696 -0.5665 -2.6293
20858SOL    HW264729   3.059   8.975   6.877 -2.9323 -0.5362 -1.7388
20859SOL     OW64730   1.632   0.240   3.162  0.0023  0.1371  0.3389
20859SOL    HW164731   1.618   0.292   3.083 -0.6768  0.5545  0.7246
20859SOL    HW264732   1.726   0.241   3.176  0.0527  0.6759 -0.0551
20860SOL     OW64733   3.027   3.333   4.185  0.6116  0.0755  0.3461
20860SOL    HW164734   2.961   3.340   4.254 -0.7481 -3.2015 -0.4430
20860SOL    HW264735   2.987   3.375   4.109  1.2766  1.8324  0.8917
20861SOL     OW64736   0.860   2.563   2.471  0.3044 -0.1309  0.0804
20861SOL    HW164737   0.825   2.481   2.439 -1.4013  1.1474 -1.5595
20861SOL    HW264738   0.795   2.595   2.533 -0.0879  0.9087 -0.8317
20862SOL     OW64739   4.866   3.160   4.865 -0.0983  0.0101 -0.0112
20862SOL    HW164740   4.778   3.135   4.893 -0.6219  0.1000 -1.5015
20862SOL    HW264741   4.865   3.255   4.862  0.2529  0.0395  0.5384
20863SOL     OW64742   0.244   1.020   2.909 -0.0818  0.5673  0.3467
20863SOL    HW164743   0.327   0.976   2.893  0.6643  1.3352  1.8623
20863SOL    HW264744   0.178   0.958   2.879  1.0219 -0.1047 -0.7887
20864SOL     OW64745   5.251   9.258   1.847  0.0194 -0.2339 -0.0887
20864SOL    HW164746   5.333   9.234   1.804  0.2687 -2.0686  1.2908
20864SOL    HW264747   5.230   9.183   1.903 -2.4908  0.2645 -0.2180
20865SOL     OW64748   2.607   2.706   7.544  0.6075 -0.5009  0.2911
20865SOL    HW164749   2.632   2.792   7.575 -0.0039  0.0255 -0.6251
20865SOL    HW264750   2.532   2.682   7.599  0.4578 -0.2176  0.2149
20866SOL     OW64751   2.843   3.677   6.816  0.1430 -0.5082 -0.2686
20866SOL    HW164752   2.936   3.660   6.796  0.4161  0.1058  0.4369
20866SOL    HW264753   2.838   3.669   6.911 -0.4984 -0.3322 -0.2849
20867SOL     OW64754   8.994   3.549   0.907  0.4736 -0.2272  0.1350
20867SOL    HW164755   8.996   3.453   0.915 -0.3580 -0.2748 -0.0676
20867SOL    HW264756   8.901   3.570   0.899  0.6320  0.6271  0.4547
20868SOL     OW64757   3.593   5.063   4.486  0.5262  0.0787 -0.1837
20868SOL    HW164758   3.541   5.130   4.531  0.5349 -0.8352  1.2248
20868SOL    HW264759   3.531   5.018   4.429 -0.2259 -0.8882  1.3534
20869SOL     OW64760   6.808   9.548   5.592  0.6695  0.1947  0.5525
20869SOL    HW164761   6.834   9.640   5.599 -0.9739  1.1238 -3.1989
20869SOL    HW264762   6.859   9.514   5.518 -2.4024 -0.3021 -1.4960
20870SOL     OW64763   4.343   4.008   9.394 -0.0188  0.2468 -0.0129
20870SOL    HW164764   4.294   3.996   9.313 -0.6464 -0.4128  0.4459
20870SOL    HW264765   4.348   4.103   9.406 -0.4307  0.3358 -0.5118
20871SOL     OW64766   0.966   5.150   1.636  0.5381 -0.1991 -0.3804
20871SOL    HW164767   0.906   5.224   1.648  0.7595 -0.0035 -0.4893
20871SOL    HW264768   0.956   5.126   1.543 -1.3685 -1.8764  0.1606
20872SOL     OW64769   8.719   3.627   0.884 -0.4771  0.0321  0.3494
20872SOL    HW164770   8.661   3.703   0.889 -0.5768  0.0704 -0.9173
20872SOL    HW264771   8.673   3.565   0.828  0.6660  0.0681 -0.6935
20873SOL     OW64772   4.598   0.947   8.176  0.5697 -0.6598 -0.0239
20873SOL    HW164773   4.546   0.906   8.245  0.5433 -0.1116  0.2827
20873SOL    HW264774   4.687   0.949   8.211  0.5363 -0.2798  0.0373
20874SOL     OW64775   3.045   5.870   7.193 -0.1557 -0.1312 -0.1587
20874SOL    HW164776   3.115   5.903   7.136  0.3731  1.3484  1.2362
20874SOL    HW264777   2.970   5.858   7.135  0.9376 -0.7333 -1.5082
20875SOL     OW64778   7.949   3.103   6.692 -0.0122 -0.2221 -0.4752
20875SOL    HW164779   8.039   3.137   6.696 -0.3739  0.6505  1.6238
20875SOL    HW264780   7.945   3.038   6.762 -1.1912  0.2316 -0.0976
20876SOL     OW64781   2.850   5.941   9.520  0.3069  0.5570 -0.8069
20876SOL    HW164782   2.930   5.968   9.475  1.4377 -1.5124 -0.2057
20876SOL    HW264783   2.817   5.868   9.469  1.2990 -1.4608  1.2327
20877SOL     OW64784   9.422   2.839   0.124  0.6912 -0.0527  0.6710
20877SOL    HW164785   9.339   2.887   0.124 -0.6534 -2.2367  1.3303
20877SOL    HW264786   9.407   2.767   0.063  2.4977  0.0778  0.0303
20878SOL     OW64787   2.553   6.252   6.258  0.0175 -0.0060 -0.4126
20878SOL    HW164788   2.531   6.183   6.320 -0.9967  0.1745 -0.5427
20878SOL    HW264789   2.646   6.239   6.239 -0.2641 -1.6476 -0.8319
20879SOL     OW64790   3.974   6.307   7.875  0.1263  0.7029 -0.1915
20879SOL    HW164791   3.899   6.343   7.826 -0.4641  2.0082  1.5610
20879SOL    HW264792   4.039   6.287   7.808 -0.8941  1.8012 -1.5704
20880SOL     OW64793   5.723   1.807   6.618 -0.0693  0.0237  0.2374
20880SOL    HW164794   5.815   1.795   6.642  0.4677  0.9836 -1.2492
20880SOL    HW264795   5.714   1.901   6.603 -1.0228 -0.1987 -0.6599
20881SOL     OW64796   5.214   4.319   2.875 -0.4749  0.6715 -0.2174
20881SOL    HW164797   5.294   4.333   2.926 -0.9156 -1.1218  1.0542
20881SOL    HW264798   5.147   4.371   2.921 -0.4508  0.6223 -0.1254
20882SOL     OW64799   3.135   7.806   2.956  0.6846 -0.3542 -0.3524
20882SOL    HW164800   3.153   7.722   2.914  1.5277 -0.6436  0.5530
20882SOL    HW264801   3.205   7.864   2.927  1.9271 -0.8697  1.4703
20883SOL     OW64802   8.797   5.295   1.085  0.5077  0.1118 -0.0526
20883SOL    HW164803   8.750   5.365   1.129  2.1826  1.9079 -0.9744
20883SOL    HW264804   8.729   5.241   1.045 -0.8728  0.3906  1.8169
20884SOL     OW64805   3.754   1.322   4.112  0.1782  0.1609 -0.0931
20884SOL    HW164806   3.707   1.390   4.159  2.4148  0.4628  1.9063
20884SOL    HW264807   3.693   1.248   4.109 -1.3572  1.3865 -0.0381
20885SOL     OW64808   9.548   8.557   4.262 -0.4129 -0.3880 -0.2618
20885SOL    HW164809   9.601   8.495   4.313 -0.9677  0.0565  0.8829
20885SOL    HW264810   9.477   8.504   4.227 -0.3299 -0.5882 -0.1283
20886SOL     OW64811   8.738   3.812   8.838  0.5163  0.4684  0.8541
20886SOL    HW164812   8.775   3.894   8.870  0.8947 -0.1802  2.1116
20886SOL    HW264813   8.670   3.789   8.901 -0.5985  0.5543 -0.2855
20887SOL     OW64814   2.795   0.770   5.722  0.3127  0.1921  0.2552
20887SOL    HW164815   2.828   0.809   5.641 -1.0593 -0.6097 -0.7191
20887SOL    HW264816   2.800   0.676   5.708 -1.3452  0.0434  0.4798
20888SOL     OW64817   5.378   9.091   4.822  0.0477  0.1141  0.4962
20888SOL    HW164818   5.456   9.132   4.784 -0.3280  1.4008  1.0416
20888SOL    HW264819   5.408   9.057   4.906  0.2313 -0.2228  0.2955
20889SOL     OW64820   5.953   8.318   8.778 -0.1871 -0.0901  0.2365
20889SOL    HW164821   6.004   8.265   8.716 -0.8190  0.1629 -0.5158
20889SOL    HW264822   6.010   8.391   8.800  0.5617 -0.8698  1.0121
20890SOL     OW64823   1.417   7.708   3.235 -0.0481 -0.0466 -0.6406
20890SOL    HW164824   1.399   7.739   3.324 -0.2228 -0.3635 -0.5620
20890SOL    HW264825   1.510   7.687   3.234 -0.3137 -1.3855 -0.1006
20891SOL     OW64826   6.297   6.560   1.359 -0.2068  0.0348 -0.4047
20891SOL    HW164827   6.325   6.509   1.435 -1.9616  1.6550  1.4466
20891SOL    HW264828   6.201   6.563   1.367 -0.4239  0.5139 -2.5539
20892SOL     OW64829   5.200   6.452   3.468  0.0535 -0.4812  0.6969
20892SOL    HW164830   5.111   6.475   3.496  1.0661  0.8271  3.2222
20892SOL    HW264831   5.193   6.437   3.374 -2.9230 -0.9987  0.8983
20893SOL     OW64832   7.200   3.856   9.585  0.7076  0.1734 -0.1437
20893SOL    HW164833   7.164   3.907   9.658  2.5059  0.7961  0.3563
20893SOL    HW264834   7.294   3.853   9.601  0.7491 -3.0524 -0.3458
20894SOL     OW64835   4.507   6.710   4.721 -0.5463 -0.0716 -0.8171
20894SOL    HW164836   4.507   6.805   4.731 -1.0524 -0.0356 -1.0937
20894SOL    HW264837   4.522   6.676   4.809 -0.7847  0.2581 -0.6473
20895SOL     OW64838   4.371   1.812   1.161 -0.2340  0.3452 -0.0708
20895SOL    HW164839   4.280   1.821   1.188 -0.1620  0.7777  0.0313
20895SOL    HW264840   4.367   1.755   1.084 -0.5671  0.1956  0.0516
20896SOL     OW64841   1.903   2.923   0.687  0.3901  0.3457 -0.1168
20896SOL    HW164842   1.969   2.872   0.735 -2.3580 -1.7005  1.8205
20896SOL    HW264843   1.857   2.972   0.755 -1.3999  0.0856 -1.0871
20897SOL     OW64844   2.239   7.727   4.776 -0.1055 -0.8949 -0.1871
20897SOL    HW164845   2.297   7.772   4.713  0.1049 -2.7892 -1.4133
20897SOL    HW264846   2.151   7.744   4.743 -0.0602 -0.9096 -0.3165
20898SOL     OW64847   4.183   2.989   3.931  0.5520 -0.0317  0.1616
20898SOL    HW164848   4.143   3.056   3.987 -1.0569 -1.1899  0.4753
20898SOL    HW264849   4.153   3.010   3.843  0.6553  0.0806  0.1529
20899SOL     OW64850   5.011   1.772   8.692  0.0567 -0.2351  0.1174
20899SOL    HW164851   4.996   1.680   8.671  0.9073 -0.0796 -1.3201
20899SOL    HW264852   4.929   1.815   8.668  0.6197 -0.2348 -2.0504
20900SOL     OW64853   2.358   4.940   8.941  0.5523 -0.1297  0.6322
20900SOL    HW164854   2.450   4.928   8.919 -0.1543 -0.5053 -2.6645
20900SOL    HW264855   2.317   4.965   8.858 -2.3626 -0.1647  1.9505
20901SOL     OW64856   7.228   7.606   8.278  0.1459 -0.2113  0.9209
20901SOL    HW164857   7.133   7.612   8.269  0.1790  1.3757  1.3353
20901SOL    HW264858   7.255   7.548   8.207 -1.2761 -2.1253  1.8630
20902SOL     OW64859   7.952   6.886   6.754  0.1176 -0.8018  0.0483
20902SOL    HW164860   7.959   6.976   6.787 -0.7693  0.0478 -1.8722
20902SOL    HW264861   8.028   6.841   6.790  0.6754  0.7695  0.9354
20903SOL     OW64862   5.732   5.050   4.442 -0.0895  0.0212  0.0007
20903SOL    HW164863   5.669   5.086   4.505 -0.1216  0.8544 -0.4952
20903SOL    HW264864   5.678   5.015   4.371 -0.0138  0.5197 -0.3102
20904SOL     OW64865   5.927   1.227   1.874 -0.1084  0.1217  0.3525
20904SOL    HW164866   5.832   1.225   1.868 -0.2012 -0.7001  1.7742
20904SOL    HW264867   5.951   1.142   1.909  1.0086  0.9069  1.6034
20905SOL     OW64868   3.939   2.597   3.686 -0.1548 -0.1491  0.0868
20905SOL    HW164869   3.919   2.515   3.641  1.2691  0.2069 -1.2696
20905SOL    HW264870   3.866   2.655   3.663 -0.2475 -0.4693 -0.4481
20906SOL     OW64871   5.205   9.122   5.171  0.3584 -0.1440 -0.2228
20906SOL    HW164872   5.229   9.190   5.234  1.5094 -1.5336  0.9306
20906SOL    HW264873   5.288   9.080   5.149 -0.2992 -1.0624 -1.0172
20907SOL     OW64874   1.738   5.927   4.841 -0.1020  0.3197  0.5186
20907SOL    HW164875   1.642   5.929   4.838 -0.1184  0.3241  0.9948
20907SOL    HW264876   1.759   5.885   4.924  0.3094 -0.2380  0.1504
20908SOL     OW64877   1.955   7.799   1.004 -0.3701  0.0243  0.7165
20908SOL    HW164878   1.866   7.764   0.999 -0.2933 -0.0267 -1.2570
20908SOL    HW264879   1.966   7.848   0.923  0.9841  1.1002  1.5029
20909SOL     OW64880   8.548   8.697   0.837 -0.0600 -0.0584  0.4432
20909SOL    HW164881   8.474   8.637   0.826  0.0881  0.0826 -2.0241
20909SOL    HW264882   8.610   8.669   0.769  1.8987  0.2263  2.0394
20910SOL     OW64883   5.959   1.084   0.275 -0.2824  0.1981 -0.4983
20910SOL    HW164884   5.869   1.091   0.243 -0.1802 -1.3026 -1.1712
20910SOL    HW264885   5.957   1.014   0.341  0.5115 -0.3346 -1.0166
20911SOL     OW64886   8.430   0.207   6.605 -0.0324  0.3270 -0.4377
20911SOL    HW164887   8.367   0.241   6.670 -1.4148 -1.5897 -0.6642
20911SOL    HW264888   8.375   0.163   6.540  1.5487 -1.7117 -0.4846
20912SOL     OW64889   0.068   1.744   5.353 -0.2229 -0.6802 -0.3722
20912SOL    HW164890   0.113   1.806   5.411 -1.0770 -1.0224  0.6940
20912SOL    HW264891   0.138   1.706   5.299  0.5577 -0.1379  0.2417
20913SOL     OW64892   1.649   8.065   7.958  0.3205  0.6218 -0.3179
20913SOL    HW164893   1.614   8.066   7.869  0.8228 -2.0353 -0.6277
20913SOL    HW264894   1.574   8.042   8.013  0.2170  1.3251 -0.1559
20914SOL     OW64895   4.296   3.974   5.072  0.1872  0.4431  0.3505
20914SOL    HW164896   4.302   3.885   5.107 -1.0089  0.3591  0.3997
20914SOL    HW264897   4.387   4.003   5.064  0.5596  0.0589  2.4516
20915SOL     OW64898   5.983   7.534   7.796  0.0953 -0.2248  0.2121
20915SOL    HW164899   5.959   7.503   7.709 -0.1323 -1.5382  0.7280
20915SOL    HW264900   5.989   7.629   7.786  1.6437 -0.4507 -1.6196
20916SOL     OW64901   7.740   3.628   8.822 -0.1585 -0.3520 -0.6840
20916SOL    HW164902   7.724   3.617   8.916 -1.0307 -1.9721 -0.9800
20916SOL    HW264903   7.811   3.566   8.803 -0.0617 -0.1113 -1.1176
20917SOL     OW64904   3.351   4.554   9.139  0.0641  0.0849  0.2692
20917SOL    HW164905   3.259   4.534   9.154 -0.2610  1.2292 -0.1135
20917SOL    HW264906   3.390   4.554   9.227 -0.5585  0.7619  0.5585
20918SOL     OW64907   7.001   8.121   2.600  0.5848 -0.2414 -0.1626
20918SOL    HW164908   6.949   8.044   2.579 -0.2922  0.4010 -0.4233
20918SOL    HW264909   6.942   8.195   2.583  1.6605  0.5232 -0.7206
20919SOL     OW64910   0.505   0.485   3.305  0.8288 -0.0441  0.1602
20919SOL    HW164911   0.422   0.506   3.348  0.1007  0.4923 -1.4193
20919SOL    HW264912   0.569   0.482   3.376 -0.7120 -1.5737  1.5530
20920SOL     OW64913   2.749   1.957   1.211 -0.2375 -0.1277 -0.4641
20920SOL    HW164914   2.694   1.941   1.287 -1.5330  1.3756 -1.0361
20920SOL    HW264915   2.831   1.989   1.248 -1.2332  1.6618  0.3141
20921SOL     OW64916   7.158   8.099   5.416  0.6733  0.1079  0.2556
20921SOL    HW164917   7.187   8.009   5.429 -1.1001 -0.4079  1.0296
20921SOL    HW264918   7.099   8.094   5.340  1.0741  0.7479 -0.1088
20922SOL     OW64919   2.138   4.020   1.177  0.5311 -0.1041  0.2335
20922SOL    HW164920   2.099   3.957   1.116  1.9553 -0.6828 -0.1284
20922SOL    HW264921   2.126   4.105   1.135  1.9555 -0.5402 -1.1679
20923SOL     OW64922   3.349   3.373   9.223  0.0194  0.2767 -0.2720
20923SOL    HW164923   3.311   3.412   9.302  1.0507  1.1733 -0.1950
20923SOL    HW264924   3.403   3.443   9.186  1.7019 -1.0032 -0.3007
20924SOL     OW64925   8.992   1.137   1.176  0.3305  0.3271  0.0744
20924SOL    HW164926   8.959   1.082   1.247 -1.9325  0.8538 -0.5040
20924SOL    HW264927   8.922   1.199   1.158  1.5546  1.3638 -1.4465
20925SOL     OW64928   2.433   1.104   2.611  0.0292  0.8876  0.1383
20925SOL    HW164929   2.493   1.056   2.668  1.4663  0.8190 -1.3237
20925SOL    HW264930   2.388   1.166   2.669  1.7852  1.1715  1.2853
20926SOL     OW64931   7.322   5.272   3.441 -0.4523  0.0807 -0.4157
20926SOL    HW164932   7.268   5.245   3.367  0.8363 -2.3338 -0.5679
20926SOL    HW264933   7.366   5.352   3.412 -1.2200  0.0859 -1.5984
20927SOL     OW64934   0.024   8.853   4.690 -0.2596 -0.2048  0.0725
20927SOL    HW164935  -0.044   8.830   4.627  0.3886  0.3962 -0.8741
20927SOL    HW264936   0.042   8.771   4.737 -0.8553 -0.6259 -0.4241
20928SOL     OW64937   3.814   8.595   9.187 -0.3137  0.0495 -0.5216
20928SOL    HW164938   3.908   8.610   9.176 -0.0124 -0.1914  1.2957
20928SOL    HW264939   3.800   8.507   9.153  0.2907 -0.2239 -0.0882
20929SOL     OW64940   5.812   1.928   4.878 -0.3699  0.0453 -0.1024
20929SOL    HW164941   5.832   1.856   4.819  1.5926 -0.3491  0.9632
20929SOL    HW264942   5.796   1.885   4.963 -0.0489  0.7866  0.3458
20930SOL     OW64943   6.970   4.107   1.673 -0.3593 -0.3681 -0.0795
20930SOL    HW164944   7.059   4.114   1.638 -1.3687  1.3309 -2.5776
20930SOL    HW264945   6.932   4.034   1.626 -1.2131  0.9065 -1.4731
20931SOL     OW64946   6.669   8.740   9.601  0.3217 -0.2477  0.6166
20931SOL    HW164947   6.641   8.829   9.619 -0.9262 -0.8618  1.8763
20931SOL    HW264948   6.642   8.690   9.677  0.6169 -1.7919 -0.2440
20932SOL     OW64949   0.773   9.381   7.399 -0.0689 -0.4711 -0.0744
20932SOL    HW164950   0.799   9.297   7.437 -1.2833 -1.0442 -0.4486
20932SOL    HW264951   0.788   9.371   7.305 -1.1009 -0.6438 -0.2393
20933SOL     OW64952   6.829   3.917   5.575 -0.2363  0.1121  0.2527
20933SOL    HW164953   6.734   3.921   5.576 -0.2831 -0.8595  1.1846
20933SOL    HW264954   6.850   3.866   5.497 -0.6332 -2.2153  1.5873
20934SOL     OW64955   9.291   0.175   7.259 -0.1512  0.6071  0.3635
20934SOL    HW164956   9.226   0.112   7.291  0.1492  0.1660  0.1163
20934SOL    HW264957   9.350   0.123   7.204  1.0357  0.7822  1.4191
20935SOL     OW64958   9.449   2.558   3.870 -0.0639  0.1869  0.3811
20935SOL    HW164959   9.514   2.489   3.882  1.1708  1.3103  0.3923
20935SOL    HW264960   9.434   2.561   3.776 -1.5424 -1.3278  0.5376
20936SOL     OW64961   6.715   7.469   4.828 -0.5103  0.0117 -0.4176
20936SOL    HW164962   6.739   7.529   4.899 -0.8603 -1.7015  1.2457
20936SOL    HW264963   6.627   7.440   4.849 -0.6491 -0.4936 -1.6081
20937SOL     OW64964   3.819   3.319   8.113  0.6615 -0.3759 -0.3306
20937SOL    HW164965   3.773   3.339   8.194 -1.0694  0.9415 -1.5575
20937SOL    HW264966   3.810   3.224   8.103 -0.5379 -0.3380  0.2051
20938SOL     OW64967   3.371   8.697   7.763 -0.2934  0.0983 -0.1492
20938SOL    HW164968   3.317   8.619   7.778  1.0769 -1.0858 -1.1558
20938SOL    HW264969   3.399   8.723   7.851 -0.8133 -0.5116  0.2082
20939SOL     OW64970   7.758   5.532   5.328  0.4477 -0.1076  0.4028
20939SOL    HW164971   7.792   5.616   5.357  1.7156 -0.3524 -0.2940
20939SOL    HW264972   7.805   5.514   5.247 -0.0336 -1.3467  0.3787
20940SOL     OW64973   1.402   6.911   2.263  0.3176 -0.0607 -0.2754
20940SOL    HW164974   1.344   6.885   2.192  0.5268  0.1746 -0.5325
20940SOL    HW264975   1.489   6.915   2.223  0.8120 -2.0895  0.4719
20941SOL     OW64976   3.928   2.818   6.008  0.1966 -0.0994  0.4203
20941SOL    HW164977   3.981   2.875   6.064 -0.2925 -0.8462  1.6871
20941SOL    HW264978   3.992   2.766   5.960  0.6811  2.0333 -1.3998
20942SOL     OW64979   6.638   5.592   7.080 -0.0473 -0.1007 -0.6463
20942SOL    HW164980   6.617   5.511   7.034  2.6269 -0.9263 -0.5809
20942SOL    HW264981   6.651   5.657   7.011 -1.1164  0.0043 -0.7560
20943SOL     OW64982   9.616   6.834   0.881 -0.1055 -0.8566  0.0458
20943SOL    HW164983   9.630   6.787   0.963  1.7617  0.3090  0.4547
20943SOL    HW264984   9.522   6.826   0.865 -0.5266 -1.1221  2.2880
20944SOL     OW64985   0.108   5.384   0.519 -0.3372 -0.0820 -0.5585
20944SOL    HW164986   0.031   5.354   0.566  0.2615 -1.8392 -0.6527
20944SOL    HW264987   0.169   5.412   0.587 -0.2332 -0.7464 -0.3735
20945SOL     OW64988   2.988   1.406   0.592  0.1978  0.1214  0.6280
20945SOL    HW164989   3.009   1.444   0.507 -2.4897 -0.7158 -0.5100
20945SOL    HW264990   2.894   1.387   0.587 -0.1343  0.3453  3.9131
20946SOL     OW64991   9.270   7.654   3.428 -0.6366  0.4048 -0.0217
20946SOL    HW164992   9.207   7.678   3.361 -0.9164 -0.7027 -0.1620
20946SOL    HW264993   9.355   7.663   3.385 -0.7251  1.1120 -0.0709
20947SOL     OW64994   7.245   0.419   8.025 -0.1391  0.2662  0.1086
20947SOL    HW164995   7.205   0.492   8.073 -1.0331 -1.4257  2.1320
20947SOL    HW264996   7.174   0.356   8.014  1.3483 -1.8928  1.8295
20948SOL     OW64997   4.263   9.555   1.523 -0.1101  0.3626  0.8222
20948SOL    HW164998   4.355   9.535   1.504 -0.4548  0.0727 -0.6280
20948SOL    HW264999   4.255   9.539   1.617  0.8578 -1.5489  0.6394
20949SOL     OW65000   5.653   8.270   2.331  0.8732 -0.1231  0.0482
20949SOL    HW165001   5.663   8.294   2.239  1.4608  0.0952  0.1606
20949SOL    HW265002   5.559   8.277   2.348  0.8784  0.8114 -0.2741
20950SOL     OW65003   9.343   2.057   8.154  0.4442  0.2835 -0.1372
20950SOL    HW165004   9.402   1.983   8.146  0.3684  0.2349 -0.2484
20950SOL    HW265005   9.384   2.114   8.219  1.3537  0.9606 -1.2780
20951SOL     OW65006   2.858   7.330   8.486 -0.5157  0.6667 -0.1989
20951SOL    HW165007   2.829   7.418   8.460 -1.6314  0.0158 -1.2579
20951SOL    HW265008   2.795   7.271   8.445 -0.3456 -0.5994  1.2562
20952SOL     OW65009   6.269   5.898   7.963  0.2342  0.4049 -0.7493
20952SOL    HW165010   6.302   5.822   7.917  0.0749 -0.2785  0.2495
20952SOL    HW265011   6.289   5.882   8.055 -0.3887  1.2570 -0.4505
20953SOL     OW65012   7.914   7.519   9.294  0.7439 -0.5448 -0.2104
20953SOL    HW165013   7.993   7.465   9.308 -0.0578 -1.5236  0.7713
20953SOL    HW265014   7.843   7.455   9.286  0.0375  0.3274 -1.0891
20954SOL     OW65015   3.684   1.493   2.181 -0.1958 -0.4259  0.1684
20954SOL    HW165016   3.651   1.427   2.242  0.9958 -0.3271  0.9619
20954SOL    HW265017   3.647   1.575   2.213 -0.8417 -0.5717 -0.1948
20955SOL     OW65018   6.425   4.224   8.022  0.3575  0.0681 -0.5033
20955SOL    HW165019   6.454   4.156   8.083 -0.4839 -0.8153 -1.0487
20955SOL    HW265020   6.480   4.212   7.945  0.3176  0.1021 -0.5372
20956SOL     OW65021   2.117   3.196   0.929 -0.3864  0.5192 -0.1461
20956SOL    HW165022   2.048   3.140   0.966  1.8007 -1.2158  1.5816
20956SOL    HW265023   2.177   3.134   0.886  0.0744  1.9964 -1.7383
20957SOL     OW65024   4.889   6.519   0.916  0.4497  0.1535  0.0572
20957SOL    HW165025   4.915   6.451   0.853 -1.0247  0.5581 -1.0422
20957SOL    HW265026   4.861   6.592   0.861  0.3011  0.9874  1.2124
20958SOL     OW65027   3.381   2.232   2.743 -0.1412 -0.5931 -0.1957
20958SOL    HW165028   3.347   2.264   2.827  0.5900 -0.4659  0.0604
20958SOL    HW265029   3.451   2.172   2.767 -0.4321 -1.1407 -0.7104
20959SOL     OW65030   8.609   0.053   8.760 -0.3354 -0.4671 -0.1097
20959SOL    HW165031   8.628   0.128   8.816  1.0495  0.4708 -1.7250
20959SOL    HW265032   8.515   0.041   8.766 -0.2849 -0.1011  2.0068
20960SOL     OW65033   0.918   4.589   7.185 -0.9104  0.1286  0.0371
20960SOL    HW165034   0.968   4.630   7.256 -1.6805  0.3858  0.4532
20960SOL    HW265035   0.983   4.542   7.133 -0.2446  0.4584  0.5542
20961SOL     OW65036   7.320   5.988   5.417  0.2290  0.1217 -0.0507
20961SOL    HW165037   7.315   5.902   5.375  1.3654 -0.5249  1.0705
20961SOL    HW265038   7.375   5.974   5.494 -0.9589  1.4854  1.0980
20962SOL     OW65039   9.042   9.184   6.169  0.2400 -0.2533 -0.4826
20962SOL    HW165040   9.000   9.228   6.095  0.3322 -0.5911 -0.7424
20962SOL    HW265041   8.979   9.190   6.240  1.3246  2.7700  0.3880
20963SOL     OW65042   3.656   3.508   4.185 -0.3474  0.1289  0.0719
20963SOL    HW165043   3.744   3.521   4.220 -0.1894  1.2619 -0.6753
20963SOL    HW265044   3.633   3.418   4.210  0.4569  0.2821  1.4618
20964SOL     OW65045   2.605   2.609   1.122  0.1743 -0.2095  0.2163
20964SOL    HW165046   2.620   2.694   1.081 -0.3312  0.0357  0.5327
20964SOL    HW265047   2.680   2.597   1.180  1.2534 -0.8698 -1.2576
20965SOL     OW65048   5.628   8.778   3.491 -0.0284 -0.0185 -0.4420
20965SOL    HW165049   5.631   8.691   3.451 -0.4475 -0.1419 -0.2140
20965SOL    HW265050   5.582   8.764   3.574  0.0856  0.3841 -0.3102
20966SOL     OW65051   3.035   8.303   0.010  0.7269  0.4599  0.0486
20966SOL    HW165052   3.076   8.337   0.090 -0.1661 -2.8848  2.1699
20966SOL    HW265053   2.942   8.320   0.021  0.2528 -2.2242  1.1698
20967SOL     OW65054   3.688   3.585   3.101 -0.6481 -0.3707 -0.1327
20967SOL    HW165055   3.652   3.502   3.131 -0.3153 -1.1837 -1.8464
20967SOL    HW265056   3.783   3.576   3.111 -0.6628  0.1833  0.5660
20968SOL     OW65057   6.342   3.613   5.881  0.2710 -0.0705  0.2180
20968SOL    HW165058   6.302   3.569   5.806 -0.7768  1.1706  0.0130
20968SOL    HW265059   6.417   3.660   5.845 -2.2278  3.4864 -0.8977
20969SOL     OW65060   7.251   5.447   7.694 -0.1998  0.6222 -0.0729
20969SOL    HW165061   7.211   5.399   7.623 -1.8272 -0.1277  1.2830
20969SOL    HW265062   7.232   5.395   7.772  4.1045 -0.2047  0.6619
20970SOL     OW65063   5.154   4.229   5.456 -0.4780 -0.1233  0.0115
20970SOL    HW165064   5.106   4.205   5.535 -0.8181  1.0912  0.1989
20970SOL    HW265065   5.235   4.178   5.460 -0.1370  0.4917  1.5487
20971SOL     OW65066   3.428   4.374   3.602  0.0276 -0.5617 -0.4445
20971SOL    HW165067   3.449   4.418   3.519  1.0254  1.6710  0.9034
20971SOL    HW265068   3.400   4.445   3.661 -0.3048 -2.0292  1.2493
20972SOL     OW65069   8.187   3.319   0.170 -0.7813 -0.0217  0.2555
20972SOL    HW165070   8.161   3.247   0.113  0.0780 -0.7485  0.7545
20972SOL    HW265071   8.243   3.278   0.236 -1.7427  0.7954  1.6269
20973SOL     OW65072   2.452   1.964   6.480  0.5995 -0.9222 -0.0370
20973SOL    HW165073   2.365   1.998   6.461  1.0172 -0.5761 -1.4041
20973SOL    HW265074   2.468   1.987   6.571 -0.7962 -1.1362  0.2761
20974SOL     OW65075   6.883   9.103   3.905 -0.4790  0.2262 -0.4292
20974SOL    HW165076   6.955   9.097   3.968 -0.5523  3.1130  0.0544
20974SOL    HW265077   6.840   9.186   3.925 -3.0300 -0.6635 -1.7154
20975SOL     OW65078   9.271   7.477   8.396 -0.2973 -0.0377  0.8120
20975SOL    HW165079   9.220   7.533   8.338 -0.2514  0.0120  0.8198
20975SOL    HW265080   9.354   7.524   8.408  0.9244 -1.4378 -1.4804
20976SOL     OW65081   7.128   3.458   4.577  0.3932 -0.0036  0.0855
20976SOL    HW165082   7.051   3.447   4.634  0.9769  1.4862  1.2254
20976SOL    HW265083   7.127   3.551   4.553  2.1381  0.1690  0.5639
20977SOL     OW65084   6.834   8.142   7.598 -0.4706  0.1362 -1.2859
20977SOL    HW165085   6.832   8.173   7.507 -1.5315  0.8190 -1.0396
20977SOL    HW265086   6.778   8.065   7.599  0.0020 -0.2158 -1.3179
20978SOL     OW65087   5.298   5.341   1.887  0.1998 -0.5621 -0.1850
20978SOL    HW165088   5.213   5.375   1.858  0.5748  0.8741  0.2951
20978SOL    HW265089   5.345   5.322   1.805  1.0103  2.8381 -0.7083
20979SOL     OW65090   2.466   2.172   2.069  0.1458 -0.4034  0.2833
20979SOL    HW165091   2.482   2.240   2.003 -0.4010 -1.0165 -0.5110
20979SOL    HW265092   2.457   2.220   2.151 -1.8205  0.6866 -0.4911
20980SOL     OW65093   7.097   9.622   1.542  0.5117  0.1593  0.1641
20980SOL    HW165094   7.069   9.572   1.619 -0.2668  0.5210  0.1175
20980SOL    HW265095   7.114   9.556   1.475 -1.2606 -0.0122 -0.1410
20981SOL     OW65096   4.668   6.047   1.873 -0.0275 -0.1716 -0.1595
20981SOL    HW165097   4.623   5.963   1.885 -0.4949  0.1612  0.4952
20981SOL    HW265098   4.722   6.035   1.795  1.1330 -1.6122  0.7933
20982SOL     OW65099   9.251   2.202   7.550 -0.2890 -0.2389  0.2432
20982SOL    HW165100   9.243   2.280   7.495  2.1476  0.3671  0.6184
20982SOL    HW265101   9.197   2.221   7.627 -1.9300 -0.1482 -0.8957
20983SOL     OW65102   9.553   0.647   9.288  0.0512  0.1139  0.1293
20983SOL    HW165103   9.464   0.645   9.253  0.3553 -1.2381 -0.6458
20983SOL    HW265104   9.577   0.555   9.296  1.4873  0.4626  0.0288
20984SOL     OW65105   8.050   9.468   8.146 -0.0135  0.4203  0.4035
20984SOL    HW165106   8.048   9.564   8.141  0.2261  0.3618 -1.4427
20984SOL    HW265107   7.958   9.443   8.154 -0.1508  0.7792  0.0009
20985SOL     OW65108   0.885   7.608   7.627  0.4553 -0.0099 -0.2139
20985SOL    HW165109   0.875   7.559   7.545  0.9033 -1.3877  0.5364
20985SOL    HW265110   0.817   7.574   7.684  0.0049  1.1001 -0.0612
20986SOL     OW65111   1.853   5.321   5.332 -0.0722 -0.4773  0.0512
20986SOL    HW165112   1.808   5.237   5.329  3.5253 -2.5969 -0.8792
20986SOL    HW265113   1.890   5.326   5.420  0.1078 -0.1144 -0.0408
20987SOL     OW65114   6.041   8.945   4.520  0.1350 -0.2751 -0.6571
20987SOL    HW165115   6.033   8.855   4.552  0.6817 -0.4542 -1.0120
20987SOL    HW265116   6.019   8.940   4.427 -2.4859  0.4182 -0.1586
20988SOL     OW65117   1.508   8.738   4.427 -0.5639  0.3062  0.3403
20988SOL    HW165118   1.542   8.827   4.441 -1.1497  0.5309  0.3681
20988SOL    HW265119   1.579   8.681   4.453  0.6662  0.7726 -1.7788
20989SOL     OW65120   4.923   5.063   3.637 -0.2342 -0.1813  0.0503
20989SOL    HW165121   4.883   4.984   3.602 -0.2616  0.3459 -1.1465
20989SOL    HW265122   4.880   5.135   3.592  1.9782  0.4263 -1.2684
20990SOL     OW65123   6.796   1.517   6.819 -0.2641 -0.3399 -0.4234
20990SOL    HW165124   6.731   1.587   6.819 -0.2287 -0.2944  0.1778
20990SOL    HW265125   6.877   1.560   6.847 -0.1775 -0.5654 -0.3236
20991SOL     OW65126   2.907   6.908   1.985  0.0189 -0.2400 -0.0005
20991SOL    HW165127   2.923   6.830   2.038  0.3270  0.6065  1.2253
20991SOL    HW265128   2.821   6.940   2.015  0.1141  0.1491 -0.1347
20992SOL     OW65129   6.481   7.082   2.184 -0.2624 -0.1990  0.1887
20992SOL    HW165130   6.552   7.042   2.235  0.0334 -0.0612 -0.1095
20992SOL    HW265131   6.422   7.118   2.249  0.5640  0.7453  0.4288
20993SOL     OW65132   8.298   0.047   1.707  0.0594  0.2249  0.5480
20993SOL    HW165133   8.384   0.085   1.725  0.4002  0.2066 -0.8951
20993SOL    HW265134   8.249   0.118   1.665  0.1098 -0.3632 -0.5602
20994SOL     OW65135   7.719   3.510   9.051 -0.0457 -0.8217 -0.8298
20994SOL    HW165136   7.630   3.475   9.060  0.2643 -1.3343  0.4703
20994SOL    HW265137   7.776   3.433   9.054  0.3823 -0.6965 -3.6942
20995SOL     OW65138   2.791   7.417   8.116 -0.0689  0.2504 -0.4651
20995SOL    HW165139   2.714   7.388   8.164  0.0217  0.2914 -0.2958
20995SOL    HW265140   2.761   7.425   8.025 -1.2760  3.7146  0.0766
20996SOL     OW65141   5.810   2.135   5.717  0.0399 -0.3830  0.1455
20996SOL    HW165142   5.766   2.211   5.680  1.2666 -0.4199 -1.4721
20996SOL    HW265143   5.744   2.095   5.774 -0.8949  1.4072  0.4108
20997SOL     OW65144   8.179   4.112   1.668  0.2309  0.1540 -0.0423
20997SOL    HW165145   8.238   4.038   1.657  0.4383  0.5015 -1.4683
20997SOL    HW265146   8.091   4.076   1.654  0.2601  0.0325  0.0824
20998SOL     OW65147   2.007   8.070   2.202  0.1146 -0.3256 -0.2360
20998SOL    HW165148   1.916   8.052   2.223  0.2241 -0.1880  0.3920
20998SOL    HW265149   2.016   8.048   2.110 -0.7133  0.2772 -0.4646
20999SOL     OW65150   5.005   8.888   6.848  0.6461 -0.3339  0.1271
20999SOL    HW165151   5.097   8.885   6.822  0.9050 -1.0641  1.0993
20999SOL    HW265152   4.999   8.964   6.906  0.8707 -0.8918  0.8967
21000SOL     OW65153   9.116   4.232   8.044  0.3339  0.2857 -0.1944
21000SOL    HW165154   9.042   4.224   7.983  0.6307 -0.9922 -0.4020
21000SOL    HW265155   9.087   4.299   8.106 -0.0352  1.5438 -1.6314
21001SOL     OW65156   7.907   5.466   6.931  0.2156  0.5250  0.0196
21001SOL    HW165157   8.000   5.485   6.945  0.8827 -2.3410  0.1475
21001SOL    HW265158   7.904   5.432   6.841 -0.5239 -0.3591  0.3749
21002SOL     OW65159   0.637   0.111   5.432 -0.6284  0.0789 -0.1312
21002SOL    HW165160   0.714   0.160   5.458  0.0151 -0.0148 -1.7507
21002SOL    HW265161   0.564   0.154   5.477  0.5508 -1.4745  3.6492
21003SOL     OW65162   1.088   4.933   1.782  0.4032 -0.8051 -0.5485
21003SOL    HW165163   1.039   5.010   1.753  1.6481 -0.1986 -1.1236
21003SOL    HW265164   1.133   4.902   1.703  1.1185 -1.2146  0.0083
21004SOL     OW65165   2.704   3.087   2.106 -0.0334 -0.0712  0.5132
21004SOL    HW165166   2.610   3.073   2.106 -0.4436  2.2429  1.3702
21004SOL    HW265167   2.740   3.010   2.150 -1.4526 -1.1855 -0.2047
21005SOL     OW65168   4.061   6.562   7.971 -0.0802 -0.0991 -0.1343
21005SOL    HW165169   4.010   6.483   7.953  0.8275 -0.8208  0.4206
21005SOL    HW265170   4.142   6.531   8.011  0.8936  1.0050 -1.1567
21006SOL     OW65171   2.200   4.726   6.504 -1.0618 -0.2082  0.4666
21006SOL    HW165172   2.118   4.744   6.550 -0.9254 -0.2595  0.7284
21006SOL    HW265173   2.246   4.810   6.504 -1.1936 -0.1335  0.1571
21007SOL     OW65174   1.866   1.309   9.610 -0.1341  0.1752  0.1717
21007SOL    HW165175   1.774   1.335   9.611 -0.3138 -0.2971 -1.1501
21007SOL    HW265176   1.914   1.389   9.587 -0.1526  0.5172  1.2580
21008SOL     OW65177   0.523   0.110   1.579 -0.3115 -0.4474  0.1456
21008SOL    HW165178   0.521   0.131   1.486  0.4693 -0.9501  0.0071
21008SOL    HW265179   0.613   0.083   1.595  0.8500  3.6172  1.9133
21009SOL     OW65180   4.096   9.146   2.164  0.3194  0.1904 -0.8226
21009SOL    HW165181   4.022   9.151   2.225 -0.4807  0.6886 -1.8026
21009SOL    HW265182   4.117   9.052   2.159  0.7856  0.1872  0.6384
21010SOL     OW65183   9.136   8.886   6.758  0.4378  0.4692  0.1172
21010SOL    HW165184   9.079   8.809   6.755  0.3250  0.4001  2.4478
21010SOL    HW265185   9.221   8.854   6.727 -0.0281 -0.1474 -0.5693
21011SOL     OW65186   5.854   0.352   3.149 -0.3247  0.0799 -0.0295
21011SOL    HW165187   5.823   0.264   3.173  1.6006 -1.0509 -1.3750
21011SOL    HW265188   5.939   0.359   3.192  0.4505  0.4334 -1.5541
21012SOL     OW65189   9.347   4.344   5.418 -0.2300  0.4210 -0.3296
21012SOL    HW165190   9.405   4.351   5.494 -0.1307  1.4619 -0.4929
21012SOL    HW265191   9.405   4.331   5.344 -0.2569  0.6525 -0.3903
21013SOL     OW65192   8.436   8.031   0.796  0.4190  1.3580  0.1597
21013SOL    HW165193   8.400   8.103   0.744  0.7730  0.7175 -1.0172
21013SOL    HW265194   8.374   8.019   0.868 -0.9492  1.2542 -0.9876
21014SOL     OW65195   2.184   9.277   8.975 -0.0866 -0.2558  0.1769
21014SOL    HW165196   2.230   9.357   9.001 -0.1167 -0.5180  1.0586
21014SOL    HW265197   2.174   9.285   8.880  0.5036  0.4733  0.1681
21015SOL     OW65198   7.526   5.051   9.620 -0.2873  0.1443 -0.3161
21015SOL    HW165199   7.444   5.057   9.668  0.8315  0.5611  1.6576
21015SOL    HW265200   7.588   5.102   9.672  0.9466  0.9098 -2.4125
21016SOL     OW65201   4.029   2.521   7.454  0.4420 -0.5898  0.0054
21016SOL    HW165202   3.990   2.474   7.380  0.3709 -0.6098  0.0564
21016SOL    HW265203   4.064   2.602   7.414  0.9028 -0.8610 -0.1480
21017SOL     OW65204   1.140   2.846   6.286  0.1041  0.7630  0.2709
21017SOL    HW165205   1.166   2.804   6.369  1.8455  0.8666 -0.1799
21017SOL    HW265206   1.198   2.808   6.221 -1.5417  0.3658 -1.0174
21018SOL     OW65207   5.535   9.613   3.071 -0.0101 -0.3679  0.2689
21018SOL    HW165208   5.594   9.678   3.109 -0.4202  0.8708 -1.1186
21018SOL    HW265209   5.467   9.601   3.137  0.5460 -0.0658  0.9158
21019SOL     OW65210   9.600   9.308   1.944  0.4479 -0.0846  0.7807
21019SOL    HW165211   9.695   9.312   1.947  0.5248  0.7776 -1.1899
21019SOL    HW265212   9.571   9.399   1.952 -0.0609 -0.0736 -0.7331
21020SOL     OW65213   2.268   4.320   0.286 -0.2922  0.1885  0.2624
21020SOL    HW165214   2.305   4.391   0.234 -0.1802 -0.2405 -0.2576
21020SOL    HW265215   2.311   4.241   0.253 -1.6148 -0.3163 -0.3147
21021SOL     OW65216   1.337   7.535   3.780  0.8171  0.3234  0.0496
21021SOL    HW165217   1.278   7.460   3.768  0.7991  0.4630 -0.7774
21021SOL    HW265218   1.291   7.608   3.740  0.6038  0.9112  1.2933
21022SOL     OW65219   9.565   6.559   7.674 -0.1107  0.4036  0.5453
21022SOL    HW165220   9.484   6.529   7.635  0.4792  0.2208 -0.5790
21022SOL    HW265221   9.594   6.486   7.728 -0.5628  0.3752  0.7519
21023SOL     OW65222   5.339   7.610   0.158 -0.8149 -0.3003  0.2055
21023SOL    HW165223   5.411   7.580   0.102 -0.8216  0.3469 -0.1664
21023SOL    HW265224   5.357   7.571   0.243  1.4307  1.8742  0.8597
21024SOL     OW65225   7.279   9.362   4.410 -0.0686 -0.0284 -0.4304
21024SOL    HW165226   7.217   9.298   4.375  0.0967  0.4731 -1.6629
21024SOL    HW265227   7.267   9.440   4.356  0.9501  0.4101 -0.0442
21025SOL     OW65228   6.042   2.071   4.566  0.2667  0.2124 -0.2218
21025SOL    HW165229   6.117   2.124   4.537  1.3595 -0.4408  1.2319
21025SOL    HW265230   6.054   2.065   4.661 -0.0824 -2.2049 -0.2792
21026SOL     OW65231   7.008   7.050   3.915  0.0034 -0.0736 -0.1993
21026SOL    HW165232   6.918   7.050   3.882 -0.2599  0.9282  0.4751
21026SOL    HW265233   7.039   7.139   3.900  0.7923 -0.3317 -0.1542
21027SOL     OW65234   3.521   0.517   6.059 -0.1768 -0.2090  0.1551
21027SOL    HW165235   3.438   0.511   6.012  0.3801  0.4348 -0.9630
21027SOL    HW265236   3.585   0.475   6.000  0.0445 -2.2584  1.7357
21028SOL     OW65237   6.538   2.785   7.943 -0.1300 -0.1395  0.4343
21028SOL    HW165238   6.589   2.847   7.995  0.3162  0.9464 -1.2258
21028SOL    HW265239   6.464   2.837   7.910 -0.1966 -0.6963 -0.3107
21029SOL     OW65240   8.820   5.393   6.200 -0.5632 -0.6290  0.1477
21029SOL    HW165241   8.780   5.480   6.192 -0.9540 -0.8939 -1.0654
21029SOL    HW265242   8.866   5.395   6.284  0.1091  1.0163 -0.2174
21030SOL     OW65243   1.312   5.727   6.804  0.7278 -0.2308 -0.2179
21030SOL    HW165244   1.368   5.784   6.857  0.3753 -0.6129  0.5928
21030SOL    HW265245   1.230   5.721   6.854 -0.3833  1.0088 -1.7898
21031SOL     OW65246   3.427   7.640   3.671  0.4016  0.5648 -0.0485
21031SOL    HW165247   3.380   7.653   3.588 -0.4359  1.1245  0.5010
21031SOL    HW265248   3.361   7.606   3.731  1.2345 -0.7917  0.1316
21032SOL     OW65249   0.549   6.003   7.058 -0.1616 -0.2625 -0.7124
21032SOL    HW165250   0.523   5.912   7.072  0.8190 -0.3729  0.6644
21032SOL    HW265251   0.516   6.049   7.135  0.5640  0.2615 -0.7065
21033SOL     OW65252   2.199   1.254   6.832  0.0281 -0.5381 -0.4576
21033SOL    HW165253   2.218   1.289   6.919  0.7672  1.9501 -1.5169
21033SOL    HW265254   2.285   1.233   6.795 -0.3177 -2.1617 -0.4169
21034SOL     OW65255   5.143   0.400   3.049 -1.0770 -0.0860  0.1100
21034SOL    HW165256   5.225   0.367   3.085 -1.6227 -0.7675  0.7610
21034SOL    HW265257   5.156   0.495   3.041 -0.7903  0.0272  1.7261
21035SOL     OW65258   0.851   8.567   1.953 -0.2493 -0.6771  0.0231
21035SOL    HW165259   0.774   8.555   1.897 -0.1283 -0.9429 -0.0885
21035SOL    HW265260   0.832   8.647   2.003 -0.3289 -0.4085 -0.4355
21036SOL     OW65261   6.784   0.208   7.623 -0.1279  0.2859 -0.0820
21036SOL    HW165262   6.709   0.151   7.611 -0.7259  1.2982 -1.4194
21036SOL    HW265263   6.752   0.279   7.679 -0.8488  1.8026 -2.2738
21037SOL     OW65264   3.694   0.398   5.012  0.3242 -0.3745  0.1394
21037SOL    HW165265   3.616   0.443   4.978 -0.4001 -1.0879  0.8125
21037SOL    HW265266   3.701   0.319   4.959  1.0967  0.0946 -0.4751
21038SOL     OW65267   7.796   7.277   9.343  0.3138 -0.1282  0.2729
21038SOL    HW165268   7.784   7.245   9.432  1.3290  1.5084  1.0602
21038SOL    HW265269   7.708   7.286   9.308 -0.1178 -0.4593  1.2386
21039SOL     OW65270   6.256   1.768   5.537  0.0304  0.1261  0.3964
21039SOL    HW165271   6.349   1.785   5.521 -0.3531  1.5119 -0.4947
21039SOL    HW265272   6.216   1.854   5.547 -1.0799 -0.4691  1.3833
21040SOL     OW65273   6.538   8.983   2.365  0.5167  0.0266  0.1177
21040SOL    HW165274   6.589   8.942   2.294  0.5571 -0.8602  0.6396
21040SOL    HW265275   6.603   9.030   2.417  0.9344 -1.5487  1.0944
21041SOL     OW65276   0.468   2.892   5.372  0.0835  0.0725 -0.0268
21041SOL    HW165277   0.445   2.978   5.409  2.8211  0.5697  0.7454
21041SOL    HW265278   0.425   2.829   5.430  0.3554  0.9180  1.1337
21042SOL     OW65279   2.006   0.543   2.602  0.3808  0.0975  0.8766
21042SOL    HW165280   1.912   0.553   2.587  0.4932  0.6742  0.5126
21042SOL    HW265281   2.039   0.507   2.520  0.6749  1.1875  0.5051
21043SOL     OW65282   8.463   6.170   3.143 -0.0230  0.0799  0.0744
21043SOL    HW165283   8.422   6.130   3.220  0.2273  0.3381  0.3401
21043SOL    HW265284   8.473   6.262   3.165 -1.5672  0.5373 -0.9391
21044SOL     OW65285   5.334   9.043   5.881 -0.2264 -0.1733 -0.0256
21044SOL    HW165286   5.341   9.023   5.974  0.2103  0.4820  0.0895
21044SOL    HW265287   5.301   8.962   5.841  0.5275 -0.7855  0.5593
21045SOL     OW65288   2.654   2.975   0.791 -0.3326  0.1845  0.5527
21045SOL    HW165289   2.694   2.940   0.871  0.5667 -0.0316  0.0144
21045SOL    HW265290   2.571   3.012   0.821 -1.2131 -2.1129  1.2083
21046SOL     OW65291   0.969   0.823   5.708  0.9911  0.1553 -0.0549
21046SOL    HW165292   0.980   0.807   5.801 -0.5740 -1.4803 -0.1044
21046SOL    HW265293   0.874   0.822   5.694  1.2159 -0.9171 -1.8353
21047SOL     OW65294   0.428   5.713   3.703  0.3961 -0.7823  0.0928
21047SOL    HW165295   0.484   5.750   3.772  2.2772  1.5782 -2.4915
21047SOL    HW265296   0.390   5.635   3.743  0.3318  1.0918  4.2107
21048SOL     OW65297   3.867   3.417   8.757 -0.0997  0.8701 -0.1445
21048SOL    HW165298   3.943   3.421   8.815  0.7870  1.6325 -1.3248
21048SOL    HW265299   3.846   3.324   8.752  0.4778  0.6956  0.5374
21049SOL     OW65300   3.591   5.912   4.437  0.0947 -0.0306 -0.3734
21049SOL    HW165301   3.609   5.957   4.520 -1.0580  1.6423 -0.9764
21049SOL    HW265302   3.552   5.979   4.382 -0.2672 -1.4243 -1.8830
21050SOL     OW65303   5.380   9.151   2.486 -0.0661  0.0900 -0.4985
21050SOL    HW165304   5.353   9.224   2.430 -0.8036  0.1984 -0.0118
21050SOL    HW265305   5.422   9.193   2.561  1.1713 -0.0667 -1.0869
21051SOL     OW65306   5.612   5.771   0.614 -0.0636  0.0024  0.0266
21051SOL    HW165307   5.692   5.802   0.657 -0.7489  1.3641  0.3732
21051SOL    HW265308   5.638   5.756   0.523  0.3289  1.6033 -0.1536
21052SOL     OW65309   5.898   0.589   7.498  0.0841  0.9800 -0.0530
21052SOL    HW165310   5.822   0.646   7.487  0.1820  1.1837  0.3186
21052SOL    HW265311   5.915   0.554   7.410 -1.1148  0.0695  0.0624
21053SOL     OW65312   8.306   1.688   5.184  0.2109  0.4863 -0.4663
21053SOL    HW165313   8.395   1.693   5.220  0.1184  0.6619 -0.2574
21053SOL    HW265314   8.319   1.670   5.091  0.4376 -3.0976  0.1160
21054SOL     OW65315   5.084   1.414   9.015  0.0647  0.0668 -0.8669
21054SOL    HW165316   5.073   1.442   9.106 -0.7198 -2.9471  0.0864
21054SOL    HW265317   5.176   1.390   9.009  0.8862  3.0321 -1.8521
21055SOL     OW65318   7.344   8.510   3.427 -0.9573 -0.0626  0.5633
21055SOL    HW165319   7.250   8.528   3.430 -0.7087  2.0518 -1.4992
21055SOL    HW265320   7.355   8.453   3.351 -0.6226 -0.9021  1.2287
21056SOL     OW65321   3.742   7.572   2.053  0.6629 -0.1208  0.0734
21056SOL    HW165322   3.758   7.630   2.127  2.3027  1.2771 -1.2647
21056SOL    HW265323   3.682   7.620   1.996 -1.9966 -1.8941  1.1731
21057SOL     OW65324   4.360   2.782   8.507  0.2641 -0.0330 -0.0340
21057SOL    HW165325   4.312   2.781   8.424  0.7297 -1.9934 -0.3181
21057SOL    HW265326   4.302   2.740   8.569  1.1094 -1.3395 -0.1039
21058SOL     OW65327   5.457   7.197   5.853  0.3339  0.1185  0.5171
21058SOL    HW165328   5.482   7.210   5.944  0.3378  1.6339  0.3256
21058SOL    HW265329   5.535   7.221   5.803  0.7843 -1.9659  0.1142
21059SOL     OW65330   5.855   4.772   5.510 -0.0686 -0.5271 -0.0306
21059SOL    HW165331   5.849   4.789   5.604  0.8257  0.5495 -0.1578
21059SOL    HW265332   5.776   4.813   5.474 -1.4054 -2.5552  0.4290
21060SOL     OW65333   4.036   6.582   9.068 -0.4714 -0.2415  0.3488
21060SOL    HW165334   4.102   6.651   9.076 -0.0501 -0.7620  1.5125
21060SOL    HW265335   4.066   6.528   8.995  0.0205 -0.0818  0.4325
21061SOL     OW65336   4.810   9.505   6.628 -0.1341  0.0294  0.2747
21061SOL    HW165337   4.720   9.503   6.659  0.0059  0.6610  0.7503
21061SOL    HW265338   4.814   9.436   6.561 -0.8515 -0.2879  0.5454
21062SOL     OW65339   1.645   2.752   8.018  0.5848 -0.3131  0.3306
21062SOL    HW165340   1.558   2.715   8.008  0.0187  1.5670 -2.8699
21062SOL    HW265341   1.699   2.705   7.955  1.0960  0.7428 -0.0355
21063SOL     OW65342   5.492   6.663   5.493  0.2686  1.0140  0.1472
21063SOL    HW165343   5.581   6.635   5.471 -0.6398 -0.7637 -1.5295
21063SOL    HW265344   5.456   6.591   5.545 -0.9293  0.6193 -1.1718
21064SOL     OW65345   5.983   6.985   8.782 -0.7979  0.3712  0.1648
21064SOL    HW165346   5.957   7.064   8.734 -1.5370  0.4953  0.7353
21064SOL    HW265347   5.902   6.956   8.825 -0.3186 -0.1341  0.7517
21065SOL     OW65348   0.509   6.639   7.357 -0.2320 -0.1550 -0.4975
21065SOL    HW165349   0.563   6.561   7.344  0.5237  0.5575 -1.9125
21065SOL    HW265350   0.504   6.679   7.270 -0.6792  1.3264  0.1826
21066SOL     OW65351   4.836   5.798   2.054 -0.1444 -0.1041  0.6343
21066SOL    HW165352   4.794   5.729   2.003 -1.8949  1.9134 -0.8487
21066SOL    HW265353   4.920   5.812   2.011  1.0335 -2.3774  2.0068
21067SOL     OW65354   6.105   5.507   8.716 -0.0964  0.1160  0.2406
21067SOL    HW165355   6.062   5.436   8.668 -1.5842  1.2194 -0.1766
21067SOL    HW265356   6.112   5.578   8.651 -1.2678  1.3106  1.3623
21068SOL     OW65357   0.183   4.358   7.557  0.0288  0.0713 -0.7021
21068SOL    HW165358   0.088   4.370   7.565  0.0403  1.2144 -1.9216
21068SOL    HW265359   0.194   4.305   7.478  0.4050 -0.2573 -0.4352
21069SOL     OW65360   2.917   0.234   5.445 -0.0104  0.3624 -0.1156
21069SOL    HW165361   3.010   0.231   5.469  0.4171  1.0748 -1.6122
21069SOL    HW265362   2.875   0.279   5.519  0.6072 -1.0617  1.1549
21070SOL     OW65363   7.484   3.787   1.928  0.0001 -0.1452 -0.3812
21070SOL    HW165364   7.467   3.732   1.852 -2.3368 -0.1889  0.1042
21070SOL    HW265365   7.547   3.737   1.980  1.5316 -0.1634 -2.1666
21071SOL     OW65366   2.147   0.996   2.826  0.4956  0.0666 -0.1730
21071SOL    HW165367   2.207   1.047   2.773  0.0634 -0.1338 -0.8619
21071SOL    HW265368   2.120   1.056   2.896 -0.5146  1.0241 -1.3360
21072SOL     OW65369   9.514   4.904   2.449  0.7340 -0.2736  0.1004
21072SOL    HW165370   9.487   4.985   2.406  1.6538 -0.0185 -0.0350
21072SOL    HW265371   9.454   4.894   2.523  0.2187  0.1985 -0.2524
21073SOL     OW65372   1.216   6.401   6.743  0.3635  0.0548  0.4455
21073SOL    HW165373   1.301   6.367   6.717  0.0422 -0.6200  0.2481
21073SOL    HW265374   1.191   6.460   6.672  0.5153 -0.0090  0.3384
21074SOL     OW65375   3.894   9.481   9.328 -0.3317  0.7780  0.2614
21074SOL    HW165376   3.900   9.568   9.288 -0.8854  0.2723 -1.0028
21074SOL    HW265377   3.854   9.426   9.260 -0.5934 -0.3225  1.2562
21075SOL     OW65378   7.645   4.874   0.638  0.0026 -0.7872  0.3642
21075SOL    HW165379   7.729   4.867   0.591 -1.2140  0.9830 -2.3897
21075SOL    HW265380   7.635   4.968   0.654 -2.4110 -0.5844 -1.5653
21076SOL     OW65381   0.483   7.074   5.738  0.2220 -0.2317  0.1828
21076SOL    HW165382   0.492   6.995   5.792  0.4339  0.0533  0.5691
21076SOL    HW265383   0.396   7.108   5.759 -0.9558 -1.7410 -1.8708
21077SOL     OW65384   6.043   1.793   5.145  0.6791 -0.4343 -0.4873
21077SOL    HW165385   6.076   1.707   5.173 -0.3039 -0.6506  0.0637
21077SOL    HW265386   6.116   1.852   5.159  0.7356 -0.8205  1.1446
21078SOL     OW65387   7.310   1.821   1.588 -0.0816  0.6257 -0.2073
21078SOL    HW165388   7.278   1.900   1.631  0.1685  1.8855 -2.2284
21078SOL    HW265389   7.396   1.845   1.554  0.0591 -0.5657 -0.7376
21079SOL     OW65390   1.278   8.486   4.919  0.0261  0.0717 -0.5303
21079SOL    HW165391   1.190   8.490   4.957 -0.4548 -0.0362 -1.5891
21079SOL    HW265392   1.336   8.517   4.988 -0.9912  1.4111 -0.2389
21080SOL     OW65393   1.831   6.327   4.460 -0.6633  0.2853 -0.5613
21080SOL    HW165394   1.839   6.252   4.519  1.4837 -0.4625 -1.6874
21080SOL    HW265395   1.910   6.379   4.476 -1.1137  1.2064 -1.2344
21081SOL     OW65396   0.237   2.226   6.098 -0.6602 -0.0169 -0.4873
21081SOL    HW165397   0.205   2.274   6.022 -0.8448  1.5001  0.5042
21081SOL    HW265398   0.305   2.282   6.136  0.7225 -1.5679 -0.5365
21082SOL     OW65399   3.442   0.514   0.718  0.0932 -0.5193 -0.3186
21082SOL    HW165400   3.491   0.520   0.801 -0.1080  0.2554 -0.2493
21082SOL    HW265401   3.467   0.592   0.670 -0.3506 -0.5988 -0.6839
21083SOL     OW65402   8.828   1.692   7.728 -0.4100 -0.1865  0.2560
21083SOL    HW165403   8.800   1.619   7.784  0.7611 -0.0718  1.0345
21083SOL    HW265404   8.917   1.711   7.757 -0.0699  0.4283 -1.1106
21084SOL     OW65405   3.123   4.362   1.610 -0.1537 -0.4854  0.4190
21084SOL    HW165406   3.191   4.298   1.589 -0.2428  0.0291 -1.6087
21084SOL    HW265407   3.157   4.445   1.577 -0.0636  0.5734  2.9437
21085SOL     OW65408   7.707   1.953   2.053 -0.1077 -0.3942  0.3063
21085SOL    HW165409   7.715   1.981   1.961 -0.9877 -1.2428 -0.0394
21085SOL    HW265410   7.792   1.974   2.091 -0.4468  2.1005 -0.0907
21086SOL     OW65411   7.035   9.188   7.383  0.2765  0.5584  0.8286
21086SOL    HW165412   7.122   9.228   7.378  0.8310 -0.7212 -0.6472
21086SOL    HW265413   7.027   9.159   7.473  2.3747 -1.3066  0.4985
21087SOL     OW65414   4.964   8.360   5.898  0.1098 -0.2053  0.0555
21087SOL    HW165415   5.056   8.384   5.881 -0.6140  2.3296 -0.7690
21087SOL    HW265416   4.955   8.367   5.992  1.0822 -2.0052  0.3406
21088SOL     OW65417   6.359   5.624   3.164  0.1816 -0.7359  0.7520
21088SOL    HW165418   6.442   5.604   3.121 -0.3037  0.3461 -0.7804
21088SOL    HW265419   6.357   5.568   3.241  2.8637  0.0690  1.4942
21089SOL     OW65420   3.928   4.927   1.781  0.2904 -0.3488 -0.4700
21089SOL    HW165421   3.950   4.853   1.724  1.6151  0.2938 -0.8170
21089SOL    HW265422   3.866   4.890   1.844 -0.1960 -1.3912 -1.5200
21090SOL     OW65423   8.545   7.526   7.567 -0.8774  0.2509 -0.2645
21090SOL    HW165424   8.515   7.600   7.618  1.9509 -0.1910  2.3409
21090SOL    HW265425   8.489   7.453   7.595 -1.9034  0.7962 -0.8278
21091SOL     OW65426   0.477   0.891   6.437  0.1730 -0.1195  0.1105
21091SOL    HW165427   0.531   0.967   6.416  0.7227 -0.6427 -0.4018
21091SOL    HW265428   0.388   0.925   6.440  0.4715  0.6701  0.5355
21092SOL     OW65429   9.205   0.312   0.959 -0.0011  0.7483 -0.2267
21092SOL    HW165430   9.203   0.226   1.001 -0.2539 -0.0211 -1.7496
21092SOL    HW265431   9.113   0.338   0.953  0.1532  1.8798  1.6447
21093SOL     OW65432   4.262   1.114   3.233 -0.5061 -0.1097  0.2336
21093SOL    HW165433   4.304   1.057   3.169 -1.3980 -1.2001  0.5881
21093SOL    HW265434   4.306   1.094   3.315 -0.9380 -0.4139  0.3913
21094SOL     OW65435   6.107   7.130   3.334  0.3820 -0.3184  0.0423
21094SOL    HW165436   6.124   7.224   3.339  0.0880 -0.2708  0.1663
21094SOL    HW265437   6.034   7.116   3.394 -1.5306 -0.1536 -2.1064
21095SOL     OW65438   4.546   1.542   8.021  0.4020 -0.3389  0.0451
21095SOL    HW165439   4.633   1.564   8.055 -0.4854  0.6960  1.7531
21095SOL    HW265440   4.534   1.601   7.947  1.4017 -0.9624 -0.6441
21096SOL     OW65441   2.785   2.977   9.595 -0.0333 -0.7231 -0.2643
21096SOL    HW165442   2.766   3.041   9.526  0.3298  1.1630  1.2844
21096SOL    HW265443   2.879   2.983   9.609  0.4669 -3.4891 -1.7683
21097SOL     OW65444   5.608   0.773   7.888  0.1481 -0.0898 -0.0928
21097SOL    HW165445   5.678   0.722   7.848 -0.2048  0.0825 -0.9435
21097SOL    HW265446   5.547   0.707   7.922 -0.3912 -0.2637 -1.3351
21098SOL     OW65447   5.557   2.072   3.142 -0.7395  0.3170 -0.7623
21098SOL    HW165448   5.591   2.160   3.131 -0.2352  0.2527  0.1425
21098SOL    HW265449   5.571   2.052   3.235 -2.3534 -0.0910 -0.5704
21099SOL     OW65450   4.901   1.521   6.787 -0.1928 -0.0916 -0.4494
21099SOL    HW165451   4.895   1.429   6.763 -0.5907  0.0324 -0.8487
21099SOL    HW265452   4.994   1.535   6.808 -0.5415 -1.1896  2.1869
21100SOL     OW65453   9.118   3.137   7.529 -0.1287  0.3119 -0.0756
21100SOL    HW165454   9.044   3.084   7.501  0.5299 -0.3506 -0.6115
21100SOL    HW265455   9.091   3.227   7.513 -0.5167  0.0413 -0.9920
21101SOL     OW65456   5.162   2.884   2.523  0.0648  0.2084 -0.4164
21101SOL    HW165457   5.116   2.914   2.602  0.4222 -3.0102  1.1755
21101SOL    HW265458   5.252   2.868   2.552  0.6558  0.5751 -1.9523
21102SOL     OW65459   8.964   7.087   5.291 -0.0351  0.0824  0.0714
21102SOL    HW165460   9.018   7.029   5.345 -0.6394  0.6452  1.3356
21102SOL    HW265461   8.954   7.166   5.344 -3.3879 -0.5711  0.6104
21103SOL     OW65462   8.838   5.800   1.650  0.4599 -0.0137  0.0693
21103SOL    HW165463   8.880   5.734   1.706  1.7653  0.4672 -0.3022
21103SOL    HW265464   8.911   5.852   1.616 -0.6047  2.1643  1.0021
21104SOL     OW65465   2.547   9.565   2.434 -0.3492  0.1552  0.6051
21104SOL    HW165466   2.572   9.491   2.379 -0.4622 -0.5079  1.4182
21104SOL    HW265467   2.591   9.549   2.517 -0.8111  0.7217  0.9698
21105SOL     OW65468   2.692   2.487   2.204 -0.0203  0.1131  0.1316
21105SOL    HW165469   2.631   2.560   2.205  1.4611  1.4362 -0.4301
21105SOL    HW265470   2.695   2.458   2.113 -0.2940 -0.3949  0.2773
21106SOL     OW65471   2.975   5.515   2.495  0.2262 -0.7066  0.1491
21106SOL    HW165472   3.033   5.477   2.561  1.1102 -2.2538 -1.4117
21106SOL    HW265473   3.017   5.492   2.411 -0.8705  1.1220 -0.9580
21107SOL     OW65474   9.162   6.880   5.405 -0.4453  0.0329 -0.2744
21107SOL    HW165475   9.207   6.846   5.482  0.8356 -1.0660 -1.4617
21107SOL    HW265476   9.171   6.811   5.339 -1.1013  1.1258 -1.5568
21108SOL     OW65477   6.166   7.604   1.307 -0.9051 -0.1064  0.0686
21108SOL    HW165478   6.199   7.658   1.234  0.2127 -0.6974  0.1115
21108SOL    HW265479   6.079   7.638   1.324 -1.8942 -0.9738 -2.6371
21109SOL     OW65480   2.457   5.536   3.633  0.3222 -1.0064  0.3946
21109SOL    HW165481   2.551   5.526   3.649  0.2913 -0.1782  1.1532
21109SOL    HW265482   2.436   5.467   3.570  1.7128 -0.3647 -0.8464
21110SOL     OW65483   8.343   5.223   3.662 -0.3932  0.2557 -0.0669
21110SOL    HW165484   8.282   5.296   3.672 -1.4268 -0.5244 -0.4829
21110SOL    HW265485   8.339   5.201   3.569 -1.2437 -1.2569  0.2966
21111SOL     OW65486   6.887   4.996   8.316  0.0282 -0.3236  0.8330
21111SOL    HW165487   6.794   4.980   8.301 -0.3217 -0.1677  2.6094
21111SOL    HW265488   6.896   5.091   8.318  0.8014 -0.2302 -2.2642
21112SOL     OW65489   6.425   4.692   7.099  0.0203  0.0468 -0.3535
21112SOL    HW165490   6.393   4.744   7.173 -0.6223 -1.0869  0.2026
21112SOL    HW265491   6.388   4.605   7.114 -0.5495 -0.0859 -2.2961
21113SOL     OW65492   0.851   3.923   2.379 -0.5470  0.0844 -0.8371
21113SOL    HW165493   0.795   3.917   2.302 -1.9511  0.8469  0.0914
21113SOL    HW265494   0.803   3.978   2.440 -0.7914 -2.6616  1.6833
21114SOL     OW65495   5.561   1.231   5.283 -0.0465  0.0757 -0.4135
21114SOL    HW165496   5.587   1.322   5.301  1.2309 -0.2200 -0.6809
21114SOL    HW265497   5.483   1.239   5.228 -0.0728  1.0150 -0.2579
21115SOL     OW65498   7.967   6.634   8.086 -0.3702  0.3159 -0.2381
21115SOL    HW165499   8.024   6.618   8.011 -0.3267  0.2746 -0.1952
21115SOL    HW265500   7.902   6.697   8.053 -0.3364  0.3164 -0.3031
21116SOL     OW65501   2.783   2.728   1.543 -0.3920  0.3215 -0.4579
21116SOL    HW165502   2.766   2.821   1.527 -0.6141  0.8231  2.2799
21116SOL    HW265503   2.879   2.721   1.542 -0.3809  0.4681 -1.0888
21117SOL     OW65504   7.332   7.121   8.875  0.1240  0.1624  0.2509
21117SOL    HW165505   7.315   7.215   8.873 -1.2853 -0.0747  0.1756
21117SOL    HW265506   7.248   7.081   8.853  0.9448 -1.1053 -0.6783
21118SOL     OW65507   2.937   6.506   4.460 -0.0821 -0.6356  0.1936
21118SOL    HW165508   2.980   6.527   4.377 -1.4182  1.2662 -0.0726
21118SOL    HW265509   2.917   6.591   4.499 -1.6652 -1.4694  1.3111
21119SOL     OW65510   0.643   7.280   6.652  0.0532 -0.2419  0.0959
21119SOL    HW165511   0.578   7.313   6.589  1.8604 -0.9728 -2.3102
21119SOL    HW265512   0.654   7.188   6.629  1.9166 -0.1429  0.4349
21120SOL     OW65513   4.970   4.023   6.288 -0.3908  0.0967 -0.7615
21120SOL    HW165514   4.964   3.965   6.212  0.7372 -0.9177 -0.1200
21120SOL    HW265515   4.893   4.002   6.340 -0.5586 -0.0277 -1.0543
21121SOL     OW65516   3.487   6.836   3.812 -0.0374  0.0099  0.0912
21121SOL    HW165517   3.447   6.759   3.853  0.2094  0.0868  0.4802
21121SOL    HW265518   3.580   6.828   3.832  0.0864  0.0475 -0.4610
21122SOL     OW65519   3.264   8.552   4.159 -0.1088 -0.3519  0.3708
21122SOL    HW165520   3.349   8.572   4.121  0.9575 -1.0916  2.2221
21122SOL    HW265521   3.204   8.546   4.084  1.5438 -0.2877 -1.0047
21123SOL     OW65522   3.345   0.156   1.204  0.1580  0.1740  0.1514
21123SOL    HW165523   3.327   0.246   1.176  1.4720  0.9983  1.8321
21123SOL    HW265524   3.426   0.132   1.158 -0.5854 -0.4782 -0.8840
21124SOL     OW65525   8.741   1.148   1.318 -0.4341 -0.2475 -0.2659
21124SOL    HW165526   8.736   1.235   1.357 -1.6598  1.0201 -2.9183
21124SOL    HW265527   8.770   1.164   1.228  1.5105 -2.8549 -0.2153
21125SOL     OW65528   7.162   3.197   0.160  0.1094  0.2980  0.3870
21125SOL    HW165529   7.140   3.289   0.173  1.9268  1.1595 -1.9180
21125SOL    HW265530   7.214   3.173   0.237 -0.3791  1.1812  1.0053
21126SOL     OW65531   1.183   4.498   1.603 -0.0335  0.5025 -0.3568
21126SOL    HW165532   1.123   4.476   1.675  0.9652  0.2413  0.4135
21126SOL    HW265533   1.158   4.587   1.577 -1.3736  0.0485 -0.6996
21127SOL     OW65534   9.324   7.097   6.852  0.0750  0.6201  0.2373
21127SOL    HW165535   9.332   7.189   6.875  2.4825  0.3645  0.6308
21127SOL    HW265536   9.388   7.052   6.907  0.4157 -1.0243 -1.3910
21128SOL     OW65537   7.079   0.445   5.025  0.0103 -0.1809 -0.2478
21128SOL    HW165538   7.103   0.528   5.064 -1.2590 -0.3146  0.9012
21128SOL    HW265539   7.151   0.386   5.047  0.1290  0.1924  0.3920
21129SOL     OW65540   2.017   5.837   7.598  0.3746  0.6905  0.2476
21129SOL    HW165541   1.961   5.911   7.619 -2.1076 -0.7986 -0.5962
21129SOL    HW265542   2.087   5.873   7.544 -2.9558  2.0116 -3.6955
21130SOL     OW65543   5.908   9.466   1.208 -0.0456  1.1988  0.0558
21130SOL    HW165544   5.936   9.386   1.253  0.3036  1.1070 -0.3141
21130SOL    HW265545   5.819   9.448   1.178 -0.4690  1.4473  1.1411
21131SOL     OW65546   0.103   7.488   9.313 -0.0200 -0.0143 -0.0332
21131SOL    HW165547   0.066   7.460   9.230 -1.5557  0.8426  0.3194
21131SOL    HW265548   0.162   7.561   9.291 -0.8151  0.5482 -0.3341
21132SOL     OW65549   4.040   6.678   6.065 -0.2591 -0.0305  0.4259
21132SOL    HW165550   3.958   6.690   6.113 -1.4169 -0.3443 -1.3821
21132SOL    HW265551   4.030   6.732   5.986  0.8748 -0.8239 -0.2865
21133SOL     OW65552   0.178   7.288   7.877  0.0117 -0.2416  0.1364
21133SOL    HW165553   0.163   7.373   7.835 -0.0185 -1.0281 -1.5247
21133SOL    HW265554   0.179   7.307   7.971 -0.4057  1.5234 -0.1882
21134SOL     OW65555   0.337   2.879   4.979  0.2015 -0.0187  0.2865
21134SOL    HW165556   0.378   2.854   4.897 -0.3271  1.4691 -0.4620
21134SOL    HW265557   0.273   2.946   4.955 -0.3659  0.0400  1.8366
21135SOL     OW65558   2.124   0.090   1.354 -0.3322 -0.1929  0.0224
21135SOL    HW165559   2.192   0.148   1.318  0.6943 -1.5263 -0.2720
21135SOL    HW265560   2.172   0.025   1.405 -1.5584 -0.0752  1.3792
21136SOL     OW65561   6.044   8.970   9.304  0.2048 -0.0502  0.3577
21136SOL    HW165562   6.104   9.038   9.335  2.0035 -1.2516 -0.3372
21136SOL    HW265563   6.001   9.009   9.229 -0.4924  1.1041  1.3187
21137SOL     OW65564   8.326   1.947   5.908 -0.2347  0.3720  0.6576
21137SOL    HW165565   8.340   1.885   5.837 -3.3803  0.1788  0.0471
21137SOL    HW265566   8.389   1.922   5.975  0.8404 -1.3300 -0.8916
21138SOL     OW65567   3.327   7.566   2.030  0.2958 -0.0099  0.3875
21138SOL    HW165568   3.374   7.541   1.950 -0.7369 -0.2864 -0.1434
21138SOL    HW265569   3.322   7.662   2.027  2.6607  0.2227  1.5178
21139SOL     OW65570   4.722   0.077   2.505 -0.7553 -0.1671 -0.6495
21139SOL    HW165571   4.758   0.155   2.548  0.6192 -0.7094 -0.7701
21139SOL    HW265572   4.799   0.033   2.468 -1.7719 -0.2121 -2.8658
21140SOL     OW65573   1.966   5.506   7.505 -0.0335  0.5643  0.5886
21140SOL    HW165574   2.016   5.587   7.500  0.2148  0.3974  0.3442
21140SOL    HW265575   1.874   5.535   7.503 -0.0756  0.7214 -3.4795
21141SOL     OW65576   8.098   4.344   3.694  0.4884 -0.4548 -0.7820
21141SOL    HW165577   8.115   4.390   3.776  0.3149 -2.0781  0.2001
21141SOL    HW265578   8.017   4.296   3.709 -0.0573 -0.0509 -2.2443
21142SOL     OW65579   8.044   4.049   0.406  0.7616  0.3666 -0.2797
21142SOL    HW165580   7.962   4.022   0.366 -0.3184  2.1819  0.5783
21142SOL    HW265581   8.069   3.976   0.463 -0.6494  0.0949  0.0166
21143SOL     OW65582   5.235   4.739   3.310 -0.0286  0.1518  0.3681
21143SOL    HW165583   5.265   4.719   3.398 -0.8371  1.5293  1.0041
21143SOL    HW265584   5.228   4.835   3.308 -0.2749  0.1359 -1.1086
21144SOL     OW65585   9.213   6.729   3.998  0.2093 -0.7088  0.0239
21144SOL    HW165586   9.150   6.794   3.971  1.8634  1.0562  0.2103
21144SOL    HW265587   9.230   6.677   3.920  1.6178  1.4895 -1.2217
21145SOL     OW65588   1.902   5.864   9.124  0.1022 -0.6864 -0.1469
21145SOL    HW165589   1.857   5.786   9.155  0.6306 -0.5911  0.8858
21145SOL    HW265590   1.995   5.843   9.131  0.2543  0.1567  0.4942
21146SOL     OW65591   5.132   2.091   0.396 -0.1055 -0.0273  0.0443
21146SOL    HW165592   5.072   2.133   0.335 -1.9265 -2.0520  0.3363
21146SOL    HW265593   5.114   2.134   0.480 -0.2551  0.2183 -0.1102
21147SOL     OW65594   1.740   0.365   0.218 -0.3699 -0.6672  0.1806
21147SOL    HW165595   1.773   0.426   0.284  0.0359  0.2125 -0.8087
21147SOL    HW265596   1.709   0.290   0.269 -2.1347  0.8947  1.5557
21148SOL     OW65597   6.856   9.152   8.147 -0.1848  0.2160  0.4393
21148SOL    HW165598   6.854   9.073   8.201 -0.7016 -0.5289 -0.6425
21148SOL    HW265599   6.788   9.208   8.184 -0.6099 -0.3341  0.5018
21149SOL     OW65600   0.948   2.269   0.479 -0.2033  0.1967  0.1477
21149SOL    HW165601   0.894   2.199   0.441  0.3843  0.1140 -0.5574
21149SOL    HW265602   0.885   2.338   0.501 -0.7381 -0.3762  0.4521
21150SOL     OW65603   0.108   7.328   6.665  0.4533  0.0565 -0.1822
21150SOL    HW165604   0.084   7.354   6.576  0.6032  0.5660 -0.0777
21150SOL    HW265605   0.071   7.240   6.675  0.3083  0.0539 -0.6950
21151SOL     OW65606   2.515   1.478   2.802 -0.0559  1.1584 -0.3945
21151SOL    HW165607   2.561   1.553   2.765 -0.7164  1.2043 -1.1343
21151SOL    HW265608   2.585   1.417   2.825  0.4127  1.4584 -0.9871
21152SOL     OW65609   0.529   6.533   1.360 -0.1970  0.2229  0.7288
21152SOL    HW165610   0.457   6.495   1.309 -0.4442 -0.2944  1.4512
21152SOL    HW265611   0.492   6.546   1.448  0.3196  0.8056  0.8653
21153SOL     OW65612   6.046   1.409   4.581  0.2904 -0.4026  0.0642
21153SOL    HW165613   6.112   1.381   4.645  1.1204  0.3201 -0.4560
21153SOL    HW265614   5.990   1.470   4.630  1.6361  1.0826 -0.1716
21154SOL     OW65615   7.648   0.871   3.247  0.3025  0.3124  0.1855
21154SOL    HW165616   7.732   0.842   3.210 -0.4120 -2.1090  0.2813
21154SOL    HW265617   7.612   0.930   3.181  0.8666 -0.7930 -1.1692
21155SOL     OW65618   9.624   6.606   0.426 -0.2306 -0.1594  0.6685
21155SOL    HW165619   9.689   6.595   0.496  1.9671  0.1362 -1.2119
21155SOL    HW265620   9.646   6.539   0.362  0.6319  2.2456 -1.7134
21156SOL     OW65621   0.727   8.280   9.054  0.4098  0.2170 -0.3366
21156SOL    HW165622   0.637   8.299   9.082  0.8577  0.0892  1.3050
21156SOL    HW265623   0.744   8.344   8.984 -0.7482  0.6323 -0.2674
21157SOL     OW65624   6.561   2.906   1.636 -0.1456  0.2108  0.0454
21157SOL    HW165625   6.522   2.843   1.575  0.1737 -0.1022  0.1527
21157SOL    HW265626   6.515   2.988   1.620  0.1751  0.2208 -0.8649
21158SOL     OW65627   4.230   1.605   1.034  0.1379  0.4877  0.0514
21158SOL    HW165628   4.186   1.553   0.966  1.4797 -2.3947  1.2307
21158SOL    HW265629   4.187   1.578   1.115  0.3475  1.8605  0.6315
21159SOL     OW65630   1.800   6.115   7.939 -0.1827  0.4504  0.2356
21159SOL    HW165631   1.749   6.085   7.864 -0.0416  2.2922 -0.6473
21159SOL    HW265632   1.751   6.189   7.975  0.2647  0.2314  1.3600
21160SOL     OW65633   8.709   3.571   7.900 -0.0349  0.0121 -0.1760
21160SOL    HW165634   8.648   3.590   7.971 -0.0547  0.1189 -0.2217
21160SOL    HW265635   8.660   3.591   7.820  0.1220  0.2748 -0.2087
21161SOL     OW65636   7.567   3.719   8.159  0.0661 -0.3733 -0.2166
21161SOL    HW165637   7.618   3.648   8.121  2.1574  0.9277 -0.0074
21161SOL    HW265638   7.563   3.698   8.253  0.5378 -0.3186 -0.1813
21162SOL     OW65639   7.227   6.397   4.420  0.4282 -0.0548  0.4048
21162SOL    HW165640   7.161   6.461   4.447 -1.5127 -1.7057 -0.1476
21162SOL    HW265641   7.228   6.332   4.490 -0.8646 -1.6437 -0.9458
21163SOL     OW65642   6.587   2.548   4.716 -0.3587 -0.0934 -0.3420
21163SOL    HW165643   6.636   2.625   4.687 -0.4988  0.3158  0.4538
21163SOL    HW265644   6.653   2.479   4.722 -0.3435 -0.2197 -1.6648
21164SOL     OW65645   6.711   7.120   1.946 -0.0286  0.2110  0.5547
21164SOL    HW165646   6.700   7.181   2.019  2.3559  0.2272  0.9792
21164SOL    HW265647   6.740   7.038   1.987 -2.1653 -0.9630 -0.1022
21165SOL     OW65648   4.067   8.947   9.531 -0.0447  0.1281 -0.1187
21165SOL    HW165649   4.104   8.902   9.454  0.0387 -3.0379  1.6022
21165SOL    HW265650   3.990   8.993   9.497 -1.4899 -3.1906 -1.8223
21166SOL     OW65651   8.378   7.190   5.244  0.0544  0.3116 -0.0253
21166SOL    HW165652   8.328   7.265   5.279 -0.5691  0.0152 -0.2569
21166SOL    HW265653   8.354   7.117   5.301 -1.3669 -0.2966 -1.3285
21167SOL     OW65654   2.054   8.104   0.758 -0.1659 -0.0738  0.1553
21167SOL    HW165655   1.985   8.170   0.759 -0.4363 -0.3146 -0.8415
21167SOL    HW265656   2.077   8.091   0.850  0.8587  2.3874  0.3109
21168SOL     OW65657   7.206   6.436   3.807 -0.0965  0.3406 -0.3260
21168SOL    HW165658   7.282   6.493   3.795  1.3420 -1.2269  0.8903
21168SOL    HW265659   7.232   6.376   3.877 -2.8248  0.3527  0.7979
21169SOL     OW65660   6.118   8.111   0.424  0.1259 -0.6629  0.5593
21169SOL    HW165661   6.134   8.029   0.376  0.1711 -1.2806  1.5857
21169SOL    HW265662   6.198   8.126   0.473  0.6664  0.8028 -0.7211
21170SOL     OW65663   1.874   1.661   8.892 -0.1149 -0.1558 -0.3233
21170SOL    HW165664   1.864   1.568   8.908 -0.1585 -0.2147 -0.6859
21170SOL    HW265665   1.846   1.673   8.801 -2.7766  0.6326  0.5036
21171SOL     OW65666   3.438   5.174   0.825  0.5752 -0.0033 -0.9005
21171SOL    HW165667   3.485   5.090   0.830  1.4237  0.4174 -1.6005
21171SOL    HW265668   3.453   5.214   0.911 -1.6538 -1.4739  0.2729
21172SOL     OW65669   6.689   5.146   0.700 -0.2145 -0.2231  0.3680
21172SOL    HW165670   6.776   5.107   0.692 -0.0833  0.3708 -1.6046
21172SOL    HW265671   6.706   5.240   0.710 -0.6180 -0.1240  0.1482
21173SOL     OW65672   3.859   4.650   4.901  0.5246  0.2826 -0.2215
21173SOL    HW165673   3.856   4.724   4.961 -2.9351  0.5763 -0.5378
21173SOL    HW265674   3.854   4.690   4.814  1.4026 -0.2621 -0.5298
21174SOL     OW65675   6.556   0.579   6.906 -0.6624  0.0030 -0.1920
21174SOL    HW165676   6.565   0.664   6.862 -1.6294 -0.3467 -1.1066
21174SOL    HW265677   6.461   0.563   6.908 -0.4626 -2.8150 -3.6226
21175SOL     OW65678   0.115   7.900   0.693  0.1939 -0.2421  0.8061
21175SOL    HW165679   0.084   7.823   0.741  1.5320  0.0962  2.3041
21175SOL    HW265680   0.035   7.948   0.671 -0.8657 -2.8682 -1.7810
21176SOL     OW65681   3.064   4.310   0.742 -0.5235 -0.0109 -0.5832
21176SOL    HW165682   3.014   4.261   0.676 -2.9656 -1.0596  1.8336
21176SOL    HW265683   3.045   4.402   0.722 -1.4167 -0.3078 -1.1767
21177SOL     OW65684   9.116   6.077   6.815  0.3563 -0.3811  0.3188
21177SOL    HW165685   9.143   6.168   6.824 -2.9042  0.5874  1.7307
21177SOL    HW265686   9.103   6.066   6.720  0.1257  0.8643  0.1814
21178SOL     OW65687   0.360   1.544   1.372  0.0056  0.6843  0.3051
21178SOL    HW165688   0.367   1.633   1.407  0.8308  1.8307 -2.4297
21178SOL    HW265689   0.306   1.554   1.293 -0.3811 -1.3831  0.2538
21179SOL     OW65690   6.858   2.657   8.005 -0.1782  0.0881 -0.0228
21179SOL    HW165691   6.835   2.712   7.929  0.2473 -0.9921 -0.9657
21179SOL    HW265692   6.946   2.686   8.030 -0.8984  1.4964  1.0724
21180SOL     OW65693   2.839   2.352   2.864 -0.1830  0.2348  0.2882
21180SOL    HW165694   2.897   2.368   2.789 -1.1063 -1.2833 -0.7819
21180SOL    HW265695   2.865   2.419   2.928 -0.2054  2.4051 -1.8272
21181SOL     OW65696   3.578   6.476   3.186 -0.4049 -0.2994 -0.1122
21181SOL    HW165697   3.600   6.396   3.233 -0.6475 -1.5931 -2.0925
21181SOL    HW265698   3.606   6.460   3.096 -0.6082  1.7971 -0.6124
21182SOL     OW65699   3.325   9.503   1.807 -0.4751 -0.5212 -0.3738
21182SOL    HW165700   3.235   9.499   1.775 -0.6338 -2.5050  0.1825
21182SOL    HW265701   3.366   9.424   1.773  0.9195  0.0649 -0.1417
21183SOL     OW65702   1.031   6.209   8.625  0.6415 -0.0595 -0.2142
21183SOL    HW165703   1.071   6.152   8.559  0.7799 -1.9283  1.3757
21183SOL    HW265704   0.939   6.183   8.626  0.7038 -0.2669  0.5189
21184SOL     OW65705   3.626   0.082   3.325 -0.2968 -0.5125 -0.2415
21184SOL    HW165706   3.650   0.025   3.252 -1.0830 -1.7897  0.4493
21184SOL    HW265707   3.705   0.088   3.377  0.0004 -0.3846 -0.7052
21185SOL     OW65708   7.596   1.732   7.085 -0.2775  0.8773 -0.0593
21185SOL    HW165709   7.679   1.749   7.041  0.3095  1.6348  1.2917
21185SOL    HW265710   7.538   1.700   7.015  1.0595  0.5742 -1.0615
21186SOL     OW65711   5.308   4.171   7.161  0.5660 -0.3441 -0.1209
21186SOL    HW165712   5.319   4.203   7.071 -0.7324 -0.4634 -0.3464
21186SOL    HW265713   5.225   4.123   7.159  0.2779  0.0538  1.2657
21187SOL     OW65714   9.616   3.233   9.615  0.4150 -0.0140 -0.2980
21187SOL    HW165715   9.575   3.249   9.700 -0.6234 -1.0353 -0.5756
21187SOL    HW265716   9.659   3.148   9.625 -1.3305 -1.0993 -1.3003
21188SOL     OW65717   0.963   1.497   2.275  0.1214 -0.8108 -0.6863
21188SOL    HW165718   0.934   1.430   2.337 -1.6753 -1.0457 -1.7211
21188SOL    HW265719   1.049   1.467   2.246 -0.2016 -2.1440 -0.3456
21189SOL     OW65720   3.743   4.198   2.211 -0.2920 -0.0142 -0.4093
21189SOL    HW165721   3.680   4.206   2.140 -1.0099 -0.6535  0.1447
21189SOL    HW265722   3.692   4.166   2.285  0.1229  2.0723  0.8667
21190SOL     OW65723   9.140   9.422   7.895  0.5659  0.2724  0.0798
21190SOL    HW165724   9.221   9.394   7.938  1.8253  1.2282 -1.5368
21190SOL    HW265725   9.140   9.517   7.906 -1.2810  0.1706  1.5317
21191SOL     OW65726   2.335   2.110   1.088  0.3531 -0.6118 -0.8008
21191SOL    HW165727   2.414   2.163   1.083  1.3553 -2.0872 -1.3595
21191SOL    HW265728   2.288   2.129   1.006 -0.1103  0.6006 -0.2643
21192SOL     OW65729   5.622   7.428   6.553  0.5806 -0.0578  0.5157
21192SOL    HW165730   5.690   7.416   6.620 -2.0557 -0.9819  3.2312
21192SOL    HW265731   5.579   7.343   6.548 -1.0333  0.7723 -0.3711
21193SOL     OW65732   0.891   3.908   0.045 -0.6956 -0.1413 -0.3452
21193SOL    HW165733   0.938   3.860   0.113 -1.7088  0.2396  0.6543
21193SOL    HW265734   0.803   3.871   0.045 -1.0394  0.6408 -0.6529
21194SOL     OW65735   3.638   6.045   2.203 -0.0680  0.0919  0.6694
21194SOL    HW165736   3.583   6.068   2.278 -1.6471  1.3473 -0.7920
21194SOL    HW265737   3.593   5.972   2.161  0.4963 -0.2235  0.6008
21195SOL     OW65738   3.798   4.922   0.584 -0.1815  0.0174  0.2500
21195SOL    HW165739   3.727   4.873   0.542  1.1094 -2.0672  0.3215
21195SOL    HW265740   3.780   4.914   0.677  1.2814 -2.6271  0.4263
21196SOL     OW65741   5.728   3.235   2.202  0.1606  0.0749 -0.0396
21196SOL    HW165742   5.649   3.211   2.251 -0.9620  0.8107 -1.4054
21196SOL    HW265743   5.696   3.250   2.113  1.6641  1.5067 -0.3750
21197SOL     OW65744   2.968   9.620   5.898 -0.1696 -0.1340 -0.1965
21197SOL    HW165745   2.950   9.712   5.919  0.5201 -0.4126  1.8374
21197SOL    HW265746   2.885   9.575   5.916  0.5826 -0.4772  3.0061
21198SOL     OW65747   0.661   3.301   7.161  0.2376  0.8507 -0.2623
21198SOL    HW165748   0.734   3.363   7.163 -0.4118  1.6352 -0.0224
21198SOL    HW265749   0.590   3.348   7.204  0.1905 -0.6798  1.4373
21199SOL     OW65750   4.904   8.386   5.186 -0.1654 -0.6937  0.3333
21199SOL    HW165751   4.948   8.417   5.265 -1.3141  1.0127  0.3508
21199SOL    HW265752   4.842   8.321   5.216  0.1185 -0.8021  0.6962
21200SOL     OW65753   0.393   5.823   5.599 -0.3977 -0.2537 -0.6034
21200SOL    HW165754   0.437   5.749   5.557 -1.2244 -1.3061  0.3235
21200SOL    HW265755   0.448   5.845   5.673 -0.7636 -0.7293 -0.1872
21201SOL     OW65756   6.287   4.883   7.890  0.4092 -0.6126 -0.6476
21201SOL    HW165757   6.240   4.800   7.898  0.1962 -0.3188  1.7940
21201SOL    HW265758   6.294   4.897   7.796 -0.2027 -3.0173 -1.1221
21202SOL     OW65759   6.311   1.812   6.430  0.3673  0.5142 -0.1624
21202SOL    HW165760   6.240   1.780   6.485 -0.3674  2.7052  0.2422
21202SOL    HW265761   6.287   1.786   6.341 -1.0546  1.3723 -0.0514
21203SOL     OW65762   0.165   8.976   3.730 -0.1887  0.5418 -0.0496
21203SOL    HW165763   0.227   8.979   3.804 -0.0757 -2.2009  0.0438
21203SOL    HW265764   0.080   8.993   3.770  0.0093  0.1644  0.5460
21204SOL     OW65765   5.162   3.449   7.507  0.5190  0.3326 -0.0164
21204SOL    HW165766   5.129   3.399   7.582 -0.0011  1.6545  0.6684
21204SOL    HW265767   5.222   3.513   7.545  2.5943 -0.8555 -1.0595
21205SOL     OW65768   0.882   6.873   8.809 -0.8922  0.1809 -0.6793
21205SOL    HW165769   0.942   6.805   8.839 -1.3422 -0.9868 -2.2992
21205SOL    HW265770   0.936   6.951   8.801 -0.3056 -0.0304  0.9317
21206SOL     OW65771   6.823   2.602   6.471  0.9046  0.0630  0.1038
21206SOL    HW165772   6.830   2.695   6.494  1.8728  0.2655 -0.9460
21206SOL    HW265773   6.866   2.594   6.386 -3.0091 -0.5449 -2.0749
21207SOL     OW65774   8.199   8.046   2.865  0.0867 -0.5505 -0.5720
21207SOL    HW165775   8.142   8.047   2.942  0.8903 -0.3428  0.0316
21207SOL    HW265776   8.165   7.974   2.811 -1.4810  0.3160 -0.8132
21208SOL     OW65777   1.010   7.057   8.634 -0.1836 -0.5335 -0.1514
21208SOL    HW165778   0.993   7.008   8.553 -2.0071 -0.4601  0.1316
21208SOL    HW265779   1.097   7.095   8.621  0.3193 -1.9816 -1.3176
21209SOL     OW65780   5.846   6.574   8.090 -0.1405 -0.0163  0.1288
21209SOL    HW165781   5.911   6.505   8.080 -0.2465 -0.0831 -0.1137
21209SOL    HW265782   5.810   6.586   8.002 -1.1638 -0.6844  0.4373
21210SOL     OW65783   1.879   8.975   7.528 -0.5649  0.0006 -0.2903
21210SOL    HW165784   1.884   8.991   7.434 -1.2481  1.6617 -0.0867
21210SOL    HW265785   1.970   8.967   7.556 -0.3528 -0.4895 -1.0647
21211SOL     OW65786   4.705   5.343   0.145 -0.3102 -0.6966 -0.6033
21211SOL    HW165787   4.682   5.434   0.165  0.4740 -0.7518  0.7245
21211SOL    HW265788   4.715   5.302   0.231 -0.7793 -2.0882 -1.1764
21212SOL     OW65789   3.908   3.787   8.364  0.5250 -0.1022 -0.1901
21212SOL    HW165790   3.934   3.709   8.314  0.5441 -0.0803 -0.2134
21212SOL    HW265791   3.977   3.851   8.346  0.2109  0.1206 -0.6352
21213SOL     OW65792   3.836   1.736   4.097  0.3948  0.2250 -0.2410
21213SOL    HW165793   3.774   1.765   4.030  0.4294  1.1066  0.0880
21213SOL    HW265794   3.920   1.731   4.052  0.1501 -0.7108 -0.6234
21214SOL     OW65795   5.314   8.558   4.826  0.3100 -0.2767 -0.0466
21214SOL    HW165796   5.224   8.568   4.856  0.5334  0.6088  0.3891
21214SOL    HW265797   5.339   8.646   4.795  1.4865 -0.1213  1.2142
21215SOL     OW65798   2.065   1.062   4.751 -0.3149  0.3118  0.0973
21215SOL    HW165799   2.097   1.014   4.676  0.2001 -1.6094  1.4710
21215SOL    HW265800   2.141   1.070   4.809 -1.3741 -1.0802  1.7779
21216SOL     OW65801   9.051   8.661   0.854 -0.5416  0.4036 -0.0875
21216SOL    HW165802   9.102   8.604   0.911 -1.8313 -2.4549 -1.5697
21216SOL    HW265803   9.114   8.694   0.790 -0.1757 -1.7474 -0.9120
21217SOL     OW65804   4.844   1.171   4.799  0.8478 -0.3782  0.2696
21217SOL    HW165805   4.754   1.142   4.786  0.4134 -0.0407  2.1454
21217SOL    HW265806   4.858   1.238   4.733 -0.2589 -0.4636 -0.0679
21218SOL     OW65807   4.200   7.206   1.371 -0.1284 -0.1734 -0.7091
21218SOL    HW165808   4.256   7.166   1.437  0.0479  0.2616 -0.5906
21218SOL    HW265809   4.255   7.272   1.329 -0.2267 -0.4702 -1.3183
21219SOL     OW65810   6.090   4.351   3.346  0.5337  0.1163  0.0302
21219SOL    HW165811   6.051   4.354   3.259  0.1432  0.5391  0.2170
21219SOL    HW265812   6.016   4.334   3.404  0.5563  1.2955  0.4304
21220SOL     OW65813   8.621   3.947   0.059 -0.0148  0.0050 -0.0848
21220SOL    HW165814   8.613   3.955   0.154 -0.9973 -3.0467  0.2188
21220SOL    HW265815   8.644   3.855   0.045  0.4843  0.4581 -2.8175
21221SOL     OW65816   0.986   0.558   0.826  0.6626 -0.4705 -0.0361
21221SOL    HW165817   1.005   0.469   0.799 -0.8879 -0.8026 -0.1422
21221SOL    HW265818   0.891   0.560   0.835  0.7934  0.7429  1.4605
21222SOL     OW65819   7.714   7.069   8.367 -0.4085 -0.2294  0.6987
21222SOL    HW165820   7.783   7.131   8.387 -0.1130 -0.6747  1.0653
21222SOL    HW265821   7.746   6.985   8.400 -0.7445 -0.6061  0.0941
21223SOL     OW65822   3.484   6.498   4.915 -0.4085  0.2393  0.2317
21223SOL    HW165823   3.403   6.450   4.896 -1.4222  2.5587 -1.8051
21223SOL    HW265824   3.551   6.452   4.865 -1.0811  0.1428 -0.5929
21224SOL     OW65825   2.999   4.740   8.715 -0.3937 -0.2975  0.1835
21224SOL    HW165826   3.024   4.684   8.641 -0.7126 -1.2507  0.7766
21224SOL    HW265827   2.904   4.732   8.719 -0.4153  0.0795  0.4503
21225SOL     OW65828   0.685   2.708   3.927 -0.6489  0.7816  0.0266
21225SOL    HW165829   0.747   2.662   3.870 -2.0356  1.5380 -2.2104
21225SOL    HW265830   0.610   2.648   3.933 -0.3111  0.4823  1.5446
21226SOL     OW65831   2.579   6.230   6.590  0.1023 -0.6538  0.5439
21226SOL    HW165832   2.510   6.171   6.560 -0.3980 -0.0139  0.4197
21226SOL    HW265833   2.655   6.173   6.603  0.3660 -0.9775 -1.9777
21227SOL     OW65834   9.563   4.082   7.930  0.4944 -0.1792  0.3025
21227SOL    HW165835   9.603   4.106   8.014 -0.1644  1.7202  0.1166
21227SOL    HW265836   9.631   4.100   7.865 -0.3138  2.3646  0.0595
21228SOL     OW65837   3.394   3.699   1.613  0.0841  0.0070  0.4063
21228SOL    HW165838   3.480   3.682   1.651  0.8075  1.1229 -0.6667
21228SOL    HW265839   3.336   3.708   1.689  0.9159 -0.6132  1.1483
21229SOL     OW65840   0.088   9.068   3.191  0.2948  0.1573  0.2455
21229SOL    HW165841   0.098   9.120   3.111  1.4131 -1.8243 -1.0089
21229SOL    HW265842   0.165   9.011   3.192 -0.1824 -0.5440  2.2551
21230SOL     OW65843   3.107   3.740   3.034  0.2338  0.1427 -0.4575
21230SOL    HW165844   3.163   3.663   3.032 -1.0191 -0.7977 -1.5924
21230SOL    HW265845   3.018   3.706   3.045 -0.1381  1.6208  2.0469
21231SOL     OW65846   8.757   5.874   5.756  0.4289  0.0829 -0.0594
21231SOL    HW165847   8.708   5.822   5.820  0.1275  0.6068  0.1465
21231SOL    HW265848   8.784   5.811   5.689 -0.6272 -0.2085 -0.2337
21232SOL     OW65849   5.448   0.452   8.409 -0.6785 -0.2035  0.5971
21232SOL    HW165850   5.511   0.421   8.473 -0.9030  0.2697  1.0563
21232SOL    HW265851   5.431   0.376   8.353 -0.7847 -0.7436  1.3441
21233SOL     OW65852   7.374   6.299   0.411  0.0629 -0.5918  0.6318
21233SOL    HW165853   7.332   6.233   0.356 -0.0379  0.4653 -0.5901
21233SOL    HW265854   7.304   6.327   0.471 -0.4535 -0.2106 -0.1291
21234SOL     OW65855   1.997   3.498   1.632  0.2691 -0.4936  0.2503
21234SOL    HW165856   2.022   3.586   1.660  0.9648 -1.0007  1.2752
21234SOL    HW265857   2.050   3.482   1.554  1.7972 -0.8187  1.3102
21235SOL     OW65858   2.176   2.831   7.807  0.6133 -0.4814  0.0885
21235SOL    HW165859   2.146   2.766   7.871 -0.9574 -1.3417 -1.4322
21235SOL    HW265860   2.266   2.805   7.787  1.1996 -0.0820  2.0275
21236SOL     OW65861   4.645   4.060   7.788 -0.3809 -0.0098  0.2466
21236SOL    HW165862   4.639   4.116   7.711  0.1159  1.0546  0.9550
21236SOL    HW265863   4.560   4.071   7.832 -0.4883 -0.2544  0.1058
21237SOL     OW65864   2.939   2.111   4.237 -0.0947  0.0600  0.1090
21237SOL    HW165865   2.850   2.083   4.216  0.6226 -0.3665 -2.8217
21237SOL    HW265866   2.993   2.035   4.216  1.2512  1.3929 -1.6276
21238SOL     OW65867   3.465   5.066   6.815  0.2474 -0.1390  0.2064
21238SOL    HW165868   3.483   4.995   6.877  0.5317  0.6632  1.0651
21238SOL    HW265869   3.445   5.141   6.870  2.1348  1.0463 -0.6473
21239SOL     OW65870   0.151   5.427   7.242  0.3758  0.0059  0.2809
21239SOL    HW165871   0.076   5.458   7.293  1.0292  2.5688 -0.2074
21239SOL    HW265872   0.211   5.390   7.307  0.2746  1.3094  1.1602
21240SOL     OW65873   7.997   5.833   8.925 -0.0773 -0.4239 -0.3730
21240SOL    HW165874   8.075   5.789   8.957  0.1838  0.4887  0.2713
21240SOL    HW265875   8.012   5.844   8.831 -0.5904 -2.5738 -0.7575
21241SOL     OW65876   3.086   2.388   7.466 -0.3141 -0.5363  0.3275
21241SOL    HW165877   3.169   2.397   7.511  0.1994 -1.2057 -0.4400
21241SOL    HW265878   3.042   2.472   7.478 -0.2127 -0.6886  2.0446
21242SOL     OW65879   9.231   0.450   4.395  0.2647  0.0456  0.2351
21242SOL    HW165880   9.286   0.461   4.318  0.1473 -0.0651  0.1349
21242SOL    HW265881   9.152   0.407   4.362  0.0115  0.4290  0.3309
21243SOL     OW65882   6.350   8.908   2.006  0.5369 -0.0556 -0.0367
21243SOL    HW165883   6.363   9.003   2.016 -1.3396  0.1430  1.0909
21243SOL    HW265884   6.264   8.901   1.964  0.5837 -1.2615  0.0547
21244SOL     OW65885   2.639   4.821   3.770  0.3095  0.3388  0.3367
21244SOL    HW165886   2.666   4.878   3.842  1.2769 -1.2541  1.2897
21244SOL    HW265887   2.695   4.848   3.697  2.3651 -0.7833  1.4036
21245SOL     OW65888   7.643   6.480   9.340  0.0533 -0.9140  0.1454
21245SOL    HW165889   7.681   6.393   9.326  1.0183 -0.6379  1.0088
21245SOL    HW265890   7.709   6.528   9.390  0.6338  1.1274 -2.3394
21246SOL     OW65891   3.604   2.124   3.292  0.2300 -0.1016  0.5386
21246SOL    HW165892   3.613   2.164   3.378  0.7551 -1.3471  1.0959
21246SOL    HW265893   3.614   2.196   3.230 -0.3405  0.8414  1.5170
21247SOL     OW65894   0.864   1.560   4.612  0.1344  0.1631 -0.3166
21247SOL    HW165895   0.946   1.590   4.572  0.5462 -0.9123 -0.3095
21247SOL    HW265896   0.874   1.581   4.705 -0.6997  2.3913 -0.6717
21248SOL     OW65897   3.047   1.919   5.512 -0.2169 -0.4419 -0.9020
21248SOL    HW165898   3.136   1.930   5.546 -0.4883 -1.1345  0.0651
21248SOL    HW265899   3.025   2.006   5.477  0.1679  0.2544  0.4879
21249SOL     OW65900   3.784   7.332   3.608 -0.0495  0.2140  0.2282
21249SOL    HW165901   3.693   7.361   3.606 -0.3634 -0.7074  0.4689
21249SOL    HW265902   3.779   7.240   3.635  0.9572  0.1762  0.3257
21250SOL     OW65903   5.960   0.690   9.444 -0.1996 -0.7712  0.0506
21250SOL    HW165904   5.970   0.730   9.531  0.3732  0.1817 -0.4395
21250SOL    HW265905   5.954   0.764   9.384 -0.6367 -1.4245 -0.7242
21251SOL     OW65906   0.306   0.074   4.768 -0.7065 -0.0965  0.4534
21251SOL    HW165907   0.387   0.086   4.817  1.0718  0.5712 -2.3993
21251SOL    HW265908   0.273  -0.011   4.795  0.2206  0.1865  2.6207
21252SOL     OW65909   5.240   7.167   9.485  0.0215  0.6573  0.2142
21252SOL    HW165910   5.151   7.197   9.503 -0.2690 -0.2275  0.3163
21252SOL    HW265911   5.294   7.210   9.551 -0.7241 -0.8420  1.8943
21253SOL     OW65912   7.406   4.548   8.144  0.0108 -0.1423  0.4647
21253SOL    HW165913   7.448   4.464   8.129 -2.0402 -1.1172 -0.2667
21253SOL    HW265914   7.335   4.551   8.080  0.0385  2.1856  0.4430
21254SOL     OW65915   5.221   4.340   1.442 -0.5223  0.2213  0.2922
21254SOL    HW165916   5.174   4.270   1.488 -0.8585  1.1549  1.4219
21254SOL    HW265917   5.166   4.417   1.452 -0.4960  0.5141 -1.5495
21255SOL     OW65918   0.889   6.721   4.900 -0.1560  0.1186 -0.2641
21255SOL    HW165919   0.953   6.728   4.971  0.7251 -1.2171 -0.8835
21255SOL    HW265920   0.925   6.774   4.830  1.2093 -1.9228 -1.2169
21256SOL     OW65921   7.439   0.214   3.141  0.2297  0.4098 -0.1065
21256SOL    HW165922   7.532   0.192   3.139  0.0459 -0.3467 -0.5138
21256SOL    HW265923   7.437   0.306   3.170  1.0518  0.1778  0.7479
21257SOL     OW65924   3.118   4.631   2.415  0.0899  0.1543 -0.0014
21257SOL    HW165925   3.076   4.642   2.501 -0.2578  0.5326 -0.2134
21257SOL    HW265926   3.069   4.690   2.358 -1.8035 -2.4078 -1.2114
21258SOL     OW65927   9.335   4.202   9.122  0.0604  0.4898  0.1017
21258SOL    HW165928   9.254   4.228   9.079 -1.1342 -1.5260  0.9854
21258SOL    HW265929   9.347   4.110   9.096  0.4451 -0.1261  2.2870
21259SOL     OW65930   4.490   8.939   6.496 -0.6203  0.1043 -0.4890
21259SOL    HW165931   4.403   8.973   6.519 -0.3753  0.2782  0.2039
21259SOL    HW265932   4.533   9.012   6.452 -1.1362 -0.2687 -1.6514
21260SOL     OW65933   8.896   3.615   9.099 -0.1172  0.4554 -0.1439
21260SOL    HW165934   8.984   3.652   9.099  0.4584 -0.8517 -0.5374
21260SOL    HW265935   8.839   3.690   9.115  1.0201  1.4244 -0.4404
21261SOL     OW65936   1.623   7.590   4.838  0.2476 -0.3161 -0.1086
21261SOL    HW165937   1.584   7.672   4.808 -0.0730 -0.4565 -0.0788
21261SOL    HW265938   1.703   7.581   4.785 -0.2309 -0.4824 -0.8148
21262SOL     OW65939   5.706   1.920   7.198  0.0508 -0.4604 -0.0192
21262SOL    HW165940   5.690   2.011   7.171 -0.2344 -0.4215  0.2762
21262SOL    HW265941   5.745   1.928   7.285  1.6120 -0.5566 -0.6777
21263SOL     OW65942   0.560   9.351   2.003  0.8145 -0.7964 -1.0114
21263SOL    HW165943   0.491   9.379   2.064 -1.2080 -2.1899 -2.5394
21263SOL    HW265944   0.543   9.401   1.924  2.5512 -0.0517 -0.9621
21264SOL     OW65945   8.698   7.714   9.417  0.3644 -0.1117  0.8454
21264SOL    HW165946   8.738   7.732   9.332 -2.0387  0.8236 -0.1715
21264SOL    HW265947   8.688   7.619   9.419  1.2934 -0.2270  0.5193
21265SOL     OW65948   4.354   6.639   3.215  0.6005  0.1512 -0.1302
21265SOL    HW165949   4.448   6.627   3.209  0.6320  0.5894 -0.5918
21265SOL    HW265950   4.317   6.560   3.174  0.7903  0.8462 -1.6877
21266SOL     OW65951   1.653   7.002   8.507 -0.3954 -0.1565  0.3135
21266SOL    HW165952   1.717   7.056   8.460 -2.0348  0.6138 -1.1393
21266SOL    HW265953   1.664   7.028   8.599  2.6889 -1.5090  0.4736
21267SOL     OW65954   6.810   3.235   6.275  0.2219  0.1268 -0.6159
21267SOL    HW165955   6.804   3.149   6.233 -2.3663 -0.7640  1.2659
21267SOL    HW265956   6.760   3.293   6.218 -0.8567 -0.4268 -0.2722
21268SOL     OW65957   0.830   6.899   7.164 -0.5971 -0.0071  1.0023
21268SOL    HW165958   0.844   6.976   7.108  0.3352 -0.1634  1.0102
21268SOL    HW265959   0.805   6.829   7.104 -2.2465  0.4769  1.0734
21269SOL     OW65960   1.281   8.088   1.393  0.0581 -0.1122 -0.2881
21269SOL    HW165961   1.203   8.062   1.344  0.2112  1.3394 -1.3707
21269SOL    HW265962   1.314   8.164   1.346  2.0216 -0.5652  0.2850
21270SOL     OW65963   9.623   3.816   8.890  0.0750  0.5354  0.8697
21270SOL    HW165964   9.711   3.844   8.917  1.2353 -0.7896 -1.2601
21270SOL    HW265965   9.610   3.731   8.933 -0.7454  1.3093  2.2069
21271SOL     OW65966   0.609   0.170   3.385  0.0874 -0.2431  0.0359
21271SOL    HW165967   0.681   0.222   3.421  0.3703  0.1673 -1.0719
21271SOL    HW265968   0.589   0.106   3.453  0.5415  0.5500  0.9360
21272SOL     OW65969   6.356   0.794   4.157 -0.5125  0.3960  0.0043
21272SOL    HW165970   6.260   0.801   4.149 -0.3720  1.4034 -1.0814
21272SOL    HW265971   6.371   0.702   4.181 -1.7683  0.3123  0.5448
21273SOL     OW65972   0.710   3.561   1.483 -0.6158 -0.6095  0.1009
21273SOL    HW165973   0.695   3.495   1.415 -0.7579 -0.7669  0.2843
21273SOL    HW265974   0.726   3.511   1.562 -0.8471 -0.4235  0.2676
21274SOL     OW65975   2.387   5.659   9.030 -0.1108 -0.5601  0.3808
21274SOL    HW165976   2.308   5.632   8.984  0.1917 -0.4688 -0.2052
21274SOL    HW265977   2.447   5.687   8.960  0.1578  0.1015  0.8642
21275SOL     OW65978   7.537   7.576   4.937  0.0436  0.1333 -0.5405
21275SOL    HW165979   7.617   7.523   4.926 -0.1753 -0.2491 -0.3359
21275SOL    HW265980   7.520   7.612   4.850  0.0514 -0.3502 -0.7495
21276SOL     OW65981   4.815   0.300   2.989 -1.2594 -0.1390 -0.3086
21276SOL    HW165982   4.831   0.266   2.901 -0.6027  0.6087 -0.4888
21276SOL    HW265983   4.772   0.384   2.974  0.8735  1.0772 -0.0146
21277SOL     OW65984   7.678   7.192   6.103 -0.4692  0.1115 -0.6076
21277SOL    HW165985   7.751   7.202   6.164 -0.4893  2.1069 -0.8571
21277SOL    HW265986   7.619   7.130   6.146  0.2626  0.2709  0.6659
21278SOL     OW65987   1.075   3.406   3.648  0.2911 -0.1035  0.0753
21278SOL    HW165988   1.073   3.330   3.707  2.3657 -1.6426 -1.6881
21278SOL    HW265989   0.987   3.409   3.611  0.2976 -2.0125 -0.1973
21279SOL     OW65990   5.988   9.308   4.188  0.5026 -0.5026 -0.1823
21279SOL    HW165991   6.057   9.356   4.234  2.3972 -1.5340 -1.7590
21279SOL    HW265992   6.010   9.216   4.202 -2.7125 -1.0643  2.2971
21280SOL     OW65993   2.163   7.728   2.334  0.2197  0.4647  0.1865
21280SOL    HW165994   2.163   7.682   2.418  0.4696  1.1093  0.5501
21280SOL    HW265995   2.072   7.757   2.322 -0.1393 -0.8813 -0.4808
21281SOL     OW65996   8.255   3.662   9.434 -0.4611  0.2828 -0.7908
21281SOL    HW165997   8.191   3.633   9.369  0.2972 -0.3891 -1.2716
21281SOL    HW265998   8.221   3.630   9.517 -0.3776 -0.7539 -1.1384
21282SOL     OW65999   5.749   9.044   0.913 -0.0393  0.3467  0.1746
21282SOL    HW166000   5.786   9.126   0.881 -1.9107  0.6207 -1.5290
21282SOL    HW266001   5.804   8.976   0.875 -0.9431  0.7444 -1.9872
21283SOL     OW66002   3.285   1.287   8.756 -0.4360  0.3899 -0.5078
21283SOL    HW166003   3.190   1.298   8.750 -0.3336  1.4452 -0.2824
21283SOL    HW266004   3.316   1.366   8.799  0.4864 -0.2416  0.0231
21284SOL     OW66005   5.321   3.658   6.335  0.0325  0.4037  0.0481
21284SOL    HW166006   5.269   3.595   6.385  0.7754 -0.3043 -0.0509
21284SOL    HW266007   5.412   3.639   6.360  0.2501  1.7235  0.3509
21285SOL     OW66008   1.322   4.324   2.792 -0.4550  0.4750 -0.1134
21285SOL    HW166009   1.328   4.310   2.697  0.3593 -0.4769  0.0543
21285SOL    HW266010   1.253   4.264   2.820 -0.5087  0.5585 -0.0655
21286SOL     OW66011   3.316   1.193   1.722 -0.1281  0.2231 -0.1576
21286SOL    HW166012   3.309   1.281   1.684  0.2931  0.8876  1.2394
21286SOL    HW266013   3.405   1.165   1.701 -0.0307  0.4223 -0.0148
21287SOL     OW66014   3.558   2.782   1.419  0.3746  0.3324  0.1241
21287SOL    HW166015   3.598   2.853   1.369  1.1517  1.4735  2.2700
21287SOL    HW266016   3.497   2.825   1.478  0.8832 -0.7421  1.4970
21288SOL     OW66017   5.138   4.154   0.190 -0.1865 -0.4389 -0.1050
21288SOL    HW166018   5.069   4.219   0.199 -0.2278 -0.3630 -0.8870
21288SOL    HW266019   5.210   4.187   0.245 -0.7054 -0.4442  0.5886
21289SOL     OW66020   0.173   0.622   9.498  0.2070  0.3599 -0.0686
21289SOL    HW166021   0.236   0.560   9.533 -0.8396 -1.4543 -1.2235
21289SOL    HW266022   0.205   0.641   9.410 -0.2911  0.2301 -0.2835
21290SOL     OW66023   5.315   6.800   6.472  0.3099 -0.5467  0.0647
21290SOL    HW166024   5.372   6.732   6.436 -0.6208 -0.8480 -0.8976
21290SOL    HW266025   5.352   6.819   6.558  1.7849 -0.8117 -0.4823
21291SOL     OW66026   3.684   0.279   3.148  0.4504  0.2531  0.0928
21291SOL    HW166027   3.599   0.313   3.119  0.3812 -1.1281 -1.4351
21291SOL    HW266028   3.665   0.231   3.228 -0.2748 -0.3502 -0.4355
21292SOL     OW66029   4.435   3.892   2.378  0.2007 -0.1058  0.1149
21292SOL    HW166030   4.471   3.930   2.298 -0.0825  0.9821  0.4845
21292SOL    HW266031   4.484   3.933   2.448 -0.0979 -0.4567  0.5344
21293SOL     OW66032   8.481   2.760   2.116 -0.4700  0.0997 -0.5387
21293SOL    HW166033   8.569   2.731   2.091 -0.9796  0.6380 -3.3402
21293SOL    HW266034   8.491   2.853   2.136 -0.1251 -0.2345  0.8917
21294SOL     OW66035   2.710   2.803   2.677 -1.1198  0.3867  0.1419
21294SOL    HW166036   2.717   2.847   2.761  0.2523 -0.4075  0.4718
21294SOL    HW266037   2.701   2.710   2.699 -1.6774  0.2611 -0.5793
21295SOL     OW66038   5.096   0.033   3.330  0.2510  0.1687 -0.3872
21295SOL    HW166039   5.027  -0.013   3.378 -1.7158  1.3229 -1.9161
21295SOL    HW266040   5.050   0.104   3.285  2.2582  0.3083 -2.4083
21296SOL     OW66041   5.171   7.939   0.374 -0.1472  0.3333 -0.5433
21296SOL    HW166042   5.186   7.846   0.389 -0.4930  0.0728 -1.7113
21296SOL    HW266043   5.231   7.962   0.303  0.9295  1.3419  0.6396
21297SOL     OW66044   5.678   3.808   4.344  0.2966  0.4684  0.0082
21297SOL    HW166045   5.737   3.796   4.270 -0.2132 -0.5909 -0.2584
21297SOL    HW266046   5.732   3.844   4.414  0.8477  1.1945 -0.7865
21298SOL     OW66047   1.991   4.246   0.209  0.5239  0.6072 -0.1103
21298SOL    HW166048   1.924   4.296   0.255  1.2727  0.5999  1.0386
21298SOL    HW266049   2.073   4.289   0.233  0.9473  0.6113 -1.4768
21299SOL     OW66050   6.657   5.313   2.322 -0.3042  0.2600 -0.3585
21299SOL    HW166051   6.592   5.378   2.295  1.5872  1.8036 -1.5169
21299SOL    HW266052   6.693   5.348   2.404 -1.3271 -0.9118  0.6198
21300SOL     OW66053   0.995   3.416   7.496  0.0378  0.0550 -0.3167
21300SOL    HW166054   1.085   3.389   7.480 -0.2971 -2.5242  1.5745
21300SOL    HW266055   0.998   3.512   7.495  3.0002  0.0576  0.7613
21301SOL     OW66056   6.141   8.517   8.730 -0.1056  0.6278 -0.1524
21301SOL    HW166057   6.202   8.586   8.755  1.3256 -1.4307  2.5256
21301SOL    HW266058   6.128   8.530   8.636 -0.7408  5.0475  0.3309
21302SOL     OW66059   8.054   4.393   4.015 -0.2174 -0.0555  0.2492
21302SOL    HW166060   8.098   4.437   4.088 -0.2468 -0.1587  0.3292
21302SOL    HW266061   8.066   4.300   4.033 -2.8495 -0.1910  1.7673
21303SOL     OW66062   0.357   5.274   1.999 -0.0706  0.2760  0.0784
21303SOL    HW166063   0.402   5.336   2.055  0.8450  0.5090 -0.8792
21303SOL    HW266064   0.270   5.312   1.984 -0.0290  0.6013  0.6651
21304SOL     OW66065   2.558   7.938   6.556 -0.1768  0.0165 -0.1436
21304SOL    HW166066   2.562   7.981   6.470 -1.6755  1.5437  0.4829
21304SOL    HW266067   2.583   8.006   6.618 -0.3767 -0.6912  0.7289
21305SOL     OW66068   4.537   4.000   1.032 -0.1714 -0.0015 -0.3987
21305SOL    HW166069   4.538   3.916   0.986  1.4722 -0.0165 -0.4031
21305SOL    HW266070   4.619   4.043   1.006 -0.2835  0.9615  0.7384
21306SOL     OW66071   0.758   1.559   8.500 -0.3271  0.4281 -0.3180
21306SOL    HW166072   0.708   1.625   8.549 -0.1661 -0.9155  1.8063
21306SOL    HW266073   0.728   1.476   8.537  1.9733 -0.5066 -0.4531
21307SOL     OW66074   6.135   7.356   0.407 -0.4411 -0.1389  0.6345
21307SOL    HW166075   6.202   7.294   0.438 -1.4558 -1.9477 -0.5802
21307SOL    HW266076   6.065   7.351   0.472 -0.3878 -0.0394  0.6989
21308SOL     OW66077   1.083   5.622   7.410 -0.3588  0.3305 -0.9952
21308SOL    HW166078   1.151   5.671   7.456  1.7887 -0.9329 -2.5919
21308SOL    HW266079   1.029   5.689   7.368 -0.8857  1.4051  1.2269
21309SOL     OW66080   5.712   6.967   2.270 -0.0650  0.6891 -0.0498
21309SOL    HW166081   5.760   7.050   2.272 -0.0635  0.7209 -1.1515
21309SOL    HW266082   5.660   6.971   2.190 -1.8217  0.5958  1.0272
21310SOL     OW66083   9.360   7.278   4.990 -0.2005  0.5022  0.0366
21310SOL    HW166084   9.312   7.220   5.050 -0.6616  2.6062  1.8435
21310SOL    HW266085   9.439   7.302   5.039  0.9256 -0.0456 -1.4478
21311SOL     OW66086   7.816   5.477   3.111  0.1027  0.1770 -0.4527
21311SOL    HW166087   7.909   5.491   3.125 -0.1219  0.4653  0.8934
21311SOL    HW266088   7.796   5.394   3.154 -0.3355  0.3301 -0.3444
21312SOL     OW66089   5.977   8.764   5.601 -0.3662  0.1568 -0.0760
21312SOL    HW166090   5.986   8.853   5.569 -1.6306  0.7684  1.1581
21312SOL    HW266091   5.947   8.714   5.525 -1.2154  1.1279 -0.4058
21313SOL     OW66092   0.097   7.979   6.311 -0.1285  0.5393 -0.4030
21313SOL    HW166093   0.154   8.034   6.257 -0.7002 -0.5673 -2.2428
21313SOL    HW266094   0.107   7.891   6.274 -2.5068  0.1914 -0.3579
21314SOL     OW66095   6.381   0.626   1.192  0.2079  0.2332 -0.2330
21314SOL    HW166096   6.435   0.665   1.261  2.5679 -2.2008 -0.5769
21314SOL    HW266097   6.322   0.567   1.238  1.3097 -0.8681 -0.1963
21315SOL     OW66098   4.765   5.782   7.352 -0.4933 -0.1268 -0.3348
21315SOL    HW166099   4.759   5.839   7.275  0.7381 -1.8210 -1.7933
21315SOL    HW266100   4.853   5.745   7.347 -0.8815 -1.3407  1.1052
21316SOL     OW66101   1.835   5.547   3.408  0.2619  0.0211 -0.2522
21316SOL    HW166102   1.899   5.524   3.341 -0.8346 -0.8830 -1.0258
21316SOL    HW266103   1.770   5.600   3.362  1.0913  2.1309  0.8244
21317SOL     OW66104   8.005   7.513   6.023 -0.1332 -0.0979 -0.0427
21317SOL    HW166105   7.972   7.551   5.942 -0.2826 -0.1474 -0.0053
21317SOL    HW266106   7.930   7.465   6.060  0.2333 -0.9889 -0.4224
21318SOL     OW66107   7.844   2.232   7.779  0.5846  0.2990  0.3564
21318SOL    HW166108   7.902   2.304   7.803 -1.4825  1.3228  2.6546
21318SOL    HW266109   7.827   2.186   7.861 -3.1935  1.1195  0.2011
21319SOL     OW66110   7.358   2.576   3.972 -0.2962  0.5248  0.1930
21319SOL    HW166111   7.398   2.500   3.929 -0.8369  0.1195  0.3934
21319SOL    HW266112   7.427   2.609   4.029  0.0081  0.2989 -0.0358
21320SOL     OW66113   0.625   1.933   8.221 -0.0542 -0.7253  0.0842
21320SOL    HW166114   0.662   2.008   8.174  0.1157 -0.3352  0.8238
21320SOL    HW266115   0.679   1.859   8.195  1.0273 -0.2345  0.8605
21321SOL     OW66116   1.112   5.034   9.309 -0.2708  0.0660 -0.0573
21321SOL    HW166117   1.042   5.098   9.313  0.4139  0.8166  0.2374
21321SOL    HW266118   1.117   4.997   9.397 -0.4791 -0.1999 -0.1538
21322SOL     OW66119   2.988   8.170   4.413  0.4482  0.5010  0.1660
21322SOL    HW166120   2.952   8.090   4.375 -2.3939  1.5023  0.5209
21322SOL    HW266121   3.013   8.146   4.502 -1.2243  0.1347  0.5809
21323SOL     OW66122   2.603   9.149   1.309  0.2229 -0.1109  0.3194
21323SOL    HW166123   2.696   9.162   1.291  0.1833 -0.1602  0.0803
21323SOL    HW266124   2.588   9.056   1.294 -0.1670  0.1578 -1.0318
21324SOL     OW66125   9.469   5.763   6.030 -0.3056 -0.0737 -0.0883
21324SOL    HW166126   9.503   5.827   6.093  1.3509  0.9074 -1.8644
21324SOL    HW266127   9.455   5.684   6.082  1.4903  0.5181  1.4179
21325SOL     OW66128   7.152   6.210   3.635  0.2411  0.1644  0.2476
21325SOL    HW166129   7.186   6.142   3.694  3.1488  0.5957 -0.8100
21325SOL    HW266130   7.172   6.292   3.679  1.3862  0.4483 -0.7441
21326SOL     OW66131   7.417   4.721   3.487 -0.0172  0.2874  0.4563
21326SOL    HW166132   7.353   4.660   3.449  1.1364  0.1802 -1.3980
21326SOL    HW266133   7.392   4.806   3.453  1.8055  0.0187 -1.7762
21327SOL     OW66134   9.167   3.668   4.788 -0.0509  0.3589 -0.1404
21327SOL    HW166135   9.124   3.617   4.720 -0.8896  1.0961 -0.1797
21327SOL    HW266136   9.123   3.642   4.869 -0.5321  1.0471 -0.1689
21328SOL     OW66137   1.714   8.967   4.682 -0.0359  0.1319 -0.1179
21328SOL    HW166138   1.665   9.031   4.733 -1.8108 -0.9365 -0.4132
21328SOL    HW266139   1.724   8.892   4.741 -2.9617 -1.5100 -1.4945
21329SOL     OW66140   5.110   3.636   0.666  0.3544  0.1971 -0.1546
21329SOL    HW166141   5.170   3.662   0.596 -0.3271  0.8983 -0.4965
21329SOL    HW266142   5.034   3.600   0.620 -0.1330  0.7317  0.2197
21330SOL     OW66143   2.816   1.910   8.106 -0.3127 -0.4499 -0.0851
21330SOL    HW166144   2.887   1.849   8.086  0.6866 -0.1290  2.0836
21330SOL    HW266145   2.775   1.928   8.022  2.4739 -0.2913 -1.5435
21331SOL     OW66146   5.287   3.915   1.079  0.2569 -0.0565  0.2549
21331SOL    HW166147   5.233   3.837   1.089  1.9114 -1.5183 -1.3737
21331SOL    HW266148   5.253   3.977   1.144 -1.6245 -1.8161  1.0535
21332SOL     OW66149   2.718   0.017   9.440  0.1970 -0.0150  0.1996
21332SOL    HW166150   2.636  -0.023   9.468  1.0463 -1.4631  0.7787
21332SOL    HW266151   2.779   0.001   9.512  1.4316 -0.4888 -0.8883
21333SOL     OW66152   8.751   5.995   2.432  0.4033 -0.2673  0.0228
21333SOL    HW166153   8.776   5.948   2.511  0.2335 -1.9247 -0.8651
21333SOL    HW266154   8.801   5.952   2.362  0.0503  0.7289 -0.8731
21334SOL     OW66155   9.155   6.848   6.006  0.0526  0.3375  0.2188
21334SOL    HW166156   9.241   6.835   6.046  0.4326  1.0260 -0.3587
21334SOL    HW266157   9.134   6.764   5.964  0.9604  0.5187 -0.6208
21335SOL     OW66158   6.294   9.194   4.064  0.0132  0.2486  0.1927
21335SOL    HW166159   6.266   9.166   4.150 -0.1942 -1.7043 -0.4709
21335SOL    HW266160   6.217   9.236   4.026 -0.0706  0.5908  0.7316
21336SOL     OW66161   0.743   4.197   0.114  0.0552  0.0368 -0.1519
21336SOL    HW166162   0.729   4.188   0.020  0.9572  2.5499 -0.6052
21336SOL    HW266163   0.743   4.107   0.147 -0.4459 -0.9004 -2.4994
21337SOL     OW66164   8.763   1.605   8.504 -0.4465 -0.0771 -0.1059
21337SOL    HW166165   8.675   1.644   8.495 -1.2665 -1.5148  1.1238
21337SOL    HW266166   8.747   1.520   8.544  1.1875 -2.0477 -3.2463
21338SOL     OW66167   3.606   0.393   9.630  0.1167  0.1988  0.2056
21338SOL    HW166168   3.648   0.397   9.716  0.6110 -0.1895 -0.0143
21338SOL    HW266169   3.607   0.484   9.600  0.6009  0.2245  0.2960
21339SOL     OW66170   8.118   7.302   0.545  0.2604  0.1673  0.1633
21339SOL    HW166171   8.191   7.268   0.598  0.5043  0.9328  0.3228
21339SOL    HW266172   8.129   7.397   0.547 -0.5727  0.2729 -0.0616
21340SOL     OW66173   6.563   5.092   6.859 -0.0209 -0.0188 -0.3537
21340SOL    HW166174   6.549   4.997   6.860 -0.2298 -0.0209  1.5622
21340SOL    HW266175   6.541   5.120   6.948  2.4162  1.4668 -0.1282
21341SOL     OW66176   6.262   4.217   5.304 -0.3543 -0.0663  0.1738
21341SOL    HW166177   6.335   4.208   5.241 -0.0127  1.2444  0.3318
21341SOL    HW266178   6.305   4.244   5.385 -0.9911  0.6496  0.2863
21342SOL     OW66179   3.713   6.249   0.952 -0.0523 -0.0901  0.2279
21342SOL    HW166180   3.761   6.168   0.966 -0.7324 -1.0940 -2.5469
21342SOL    HW266181   3.621   6.225   0.963 -0.3286 -0.0145 -1.5451
21343SOL     OW66182   5.793   9.540   7.544  0.4319 -0.1485  0.2345
21343SOL    HW166183   5.766   9.596   7.616 -0.7311 -0.0254 -0.2880
21343SOL    HW266184   5.713   9.494   7.517  0.9050 -0.4016 -0.7948
21344SOL     OW66185   7.715   7.528   2.067  0.0924 -0.0986  0.4397
21344SOL    HW166186   7.642   7.583   2.037 -0.2310 -0.2547  0.9390
21344SOL    HW266187   7.791   7.587   2.067  0.1444 -0.1180 -0.8094
21345SOL     OW66188   8.714   2.377   3.486 -0.0178 -0.1947  0.3267
21345SOL    HW166189   8.670   2.371   3.571 -3.5579 -0.8687 -1.3940
21345SOL    HW266190   8.746   2.289   3.468 -2.1649 -0.8766 -0.3863
21346SOL     OW66191   5.323   2.916   8.822  0.1099 -0.3120 -0.3370
21346SOL    HW166192   5.243   2.863   8.826  0.2498 -0.4454  0.9646
21346SOL    HW266193   5.394   2.853   8.831  0.2630  0.1150  1.9947
21347SOL     OW66194   6.438   5.422   4.971  0.2997  0.1081 -0.1766
21347SOL    HW166195   6.401   5.402   4.885 -1.2894  0.1681  0.4578
21347SOL    HW266196   6.362   5.430   5.029  1.2870  0.8624  1.0783
21348SOL     OW66197   6.127   6.274   2.678 -0.0691  0.1012 -0.4350
21348SOL    HW166198   6.106   6.363   2.648  0.5163  0.0743 -0.9548
21348SOL    HW266199   6.157   6.229   2.599 -1.4749 -0.9182 -0.4157
21349SOL     OW66200   5.095   8.522   7.713 -0.1144 -0.3361 -0.7670
21349SOL    HW166201   5.160   8.458   7.683 -0.3351 -0.8672 -0.1393
21349SOL    HW266202   5.137   8.607   7.699  1.0671 -0.6812  0.3538
21350SOL     OW66203   7.309   7.236   3.737  0.3441  0.2594  0.2055
21350SOL    HW166204   7.343   7.173   3.673 -0.2391 -2.1265  2.1273
21350SOL    HW266205   7.351   7.211   3.820 -2.2974  0.3352  1.6593
21351SOL     OW66206   0.573   2.873   5.946  0.1373  0.1273  0.2574
21351SOL    HW166207   0.560   2.879   6.040  1.0769 -2.4136  0.6251
21351SOL    HW266208   0.667   2.859   5.935 -0.2877 -2.4480 -0.7873
21352SOL     OW66209   2.689   2.602   9.210 -0.1270  0.1973 -0.4078
21352SOL    HW166210   2.624   2.581   9.144  1.5171 -1.5827 -1.5794
21352SOL    HW266211   2.674   2.538   9.280  0.5873 -0.4852 -0.8659
21353SOL     OW66212   8.260   8.250   8.500  0.4274 -0.0804 -0.7495
21353SOL    HW166213   8.265   8.236   8.594 -0.6364 -0.1258 -0.6930
21353SOL    HW266214   8.319   8.324   8.484  2.0614 -1.2344 -0.3291
21354SOL     OW66215   6.152   7.949   9.553  0.2383  0.0818  0.5954
21354SOL    HW166216   6.183   7.923   9.640  1.4754  0.1379  0.1890
21354SOL    HW266217   6.170   8.043   9.548  0.2378  0.0657  0.2577
21355SOL     OW66218   0.974   1.468   5.322 -0.3227 -0.1094 -0.1894
21355SOL    HW166219   1.043   1.490   5.259  1.2067 -2.0664  0.6874
21355SOL    HW266220   1.018   1.472   5.407 -1.5076 -0.6235  0.4688
21356SOL     OW66221   3.361   4.341   7.395  0.5711 -0.3234 -0.4962
21356SOL    HW166222   3.391   4.349   7.304  0.9816  1.7222 -0.2429
21356SOL    HW266223   3.265   4.344   7.389  0.6048  0.1807 -0.8472
21357SOL     OW66224   6.791   4.124   1.181  0.4580  0.1900 -0.0662
21357SOL    HW166225   6.743   4.046   1.208  0.4956  0.4007  0.6356
21357SOL    HW266226   6.729   4.173   1.126 -0.3200  0.6861  1.2037
21358SOL     OW66227   1.176   0.471   6.633  0.5764 -0.1550  0.0813
21358SOL    HW166228   1.128   0.551   6.610  0.5001 -0.3666 -0.5083
21358SOL    HW266229   1.108   0.405   6.644  0.7706 -0.8669 -2.3658
21359SOL     OW66230   7.663   1.004   2.319  0.1637 -0.4265 -0.4984
21359SOL    HW166231   7.652   0.931   2.380 -1.5239  2.4775  3.1286
21359SOL    HW266232   7.682   0.963   2.235 -0.3222 -4.9392  1.3004
21360SOL     OW66233   8.045   7.175   7.154  0.4600 -0.3571  0.5802
21360SOL    HW166234   7.954   7.145   7.160  0.3705 -0.3503 -0.5237
21360SOL    HW266235   8.055   7.203   7.063  1.8377 -1.2156  0.4335
21361SOL     OW66236   0.134   1.610   5.649 -0.2377  0.7102  0.9343
21361SOL    HW166237   0.042   1.582   5.650 -0.3001  0.8756  0.2723
21361SOL    HW266238   0.131   1.705   5.638 -0.0010  0.8877  2.1744
21362SOL     OW66239   3.349   2.220   4.131 -0.3446 -0.2158  0.4481
21362SOL    HW166240   3.259   2.241   4.108 -0.5584 -2.6936 -1.3232
21362SOL    HW266241   3.359   2.253   4.220 -2.5904  1.2166  0.2409
21363SOL     OW66242   9.310   4.621   1.602  0.0522 -0.0301  0.2127
21363SOL    HW166243   9.238   4.684   1.612  0.9458  0.7515  2.1406
21363SOL    HW266244   9.319   4.611   1.507 -1.0388  1.6751 -0.1264
21364SOL     OW66245   7.544   5.158   2.346 -0.1184  0.4153  0.7002
21364SOL    HW166246   7.512   5.225   2.286  0.5219  0.1562  0.0581
21364SOL    HW266247   7.623   5.124   2.304 -0.4699 -0.7870  0.9760
21365SOL     OW66248   7.386   7.539   5.389  0.1617 -0.1074  0.4564
21365SOL    HW166249   7.368   7.459   5.438 -1.7771 -1.0969 -1.7032
21365SOL    HW266250   7.411   7.508   5.302 -1.2088  1.6059 -0.6123
21366SOL     OW66251   7.235   3.938   4.123  0.3165 -0.3709  0.4448
21366SOL    HW166252   7.194   3.963   4.206  0.1246  1.9802 -0.2888
21366SOL    HW266253   7.319   3.982   4.123  2.6899 -4.3847  1.5107
21367SOL     OW66254   5.715   1.271   4.941 -0.1262  0.4360 -0.1902
21367SOL    HW166255   5.690   1.347   4.888  0.6199 -0.5006 -1.9934
21367SOL    HW266256   5.640   1.211   4.936 -0.2894  0.5877  0.3371
21368SOL     OW66257   8.574   7.031   4.462  0.1250 -0.3982  0.2674
21368SOL    HW166258   8.512   6.958   4.466 -0.7450  0.1577 -1.7550
21368SOL    HW266259   8.546   7.082   4.387  0.7434  2.0302  1.5843
21369SOL     OW66260   5.044   6.957   5.110  0.3981  0.3001  0.0911
21369SOL    HW166261   5.013   6.971   5.199 -0.3814 -1.1962  0.0945
21369SOL    HW266262   4.971   6.985   5.054 -0.0958 -1.0515  0.0241
21370SOL     OW66263   7.277   0.655   1.451  0.4167 -0.3563  0.4104
21370SOL    HW166264   7.312   0.566   1.463  0.5321 -0.5620 -1.2254
21370SOL    HW266265   7.336   0.695   1.387 -1.3926 -0.1841 -1.2477
21371SOL     OW66266   0.069   6.281   6.653 -0.2546 -0.5511  0.4171
21371SOL    HW166267  -0.014   6.275   6.606 -1.4262  3.5711  1.5669
21371SOL    HW266268   0.086   6.191   6.682 -2.1535 -2.2800 -3.1973
21372SOL     OW66269   4.825   2.246   9.040 -0.2541  0.1506  0.5601
21372SOL    HW166270   4.880   2.171   9.062 -0.4140 -0.3056 -0.5538
21372SOL    HW266271   4.864   2.319   9.089  0.9765 -0.2978  0.2846
21373SOL     OW66272   4.769   0.094   1.721 -0.3712 -0.0402 -0.2709
21373SOL    HW166273   4.695   0.063   1.773 -1.2603 -0.4192 -1.7172
21373SOL    HW266274   4.775   0.033   1.648 -0.2868  1.4843 -1.5786
21374SOL     OW66275   5.517   4.073   5.734 -0.9239 -0.3858 -0.1061
21374SOL    HW166276   5.545   4.073   5.826 -3.0135  0.2060  0.6060
21374SOL    HW266277   5.520   3.982   5.708 -1.2617 -0.6986  0.8891
21375SOL     OW66278   4.432   8.217   8.940 -0.8949  0.0288 -0.3393
21375SOL    HW166279   4.513   8.263   8.919 -0.1785 -1.2325 -0.4428
21375SOL    HW266280   4.365   8.259   8.886  0.5698 -2.0844 -4.1603
21376SOL     OW66281   1.263   3.472   9.068  0.7339 -0.2776 -0.4131
21376SOL    HW166282   1.169   3.493   9.071  0.6271 -0.8229  0.9024
21376SOL    HW266283   1.298   3.514   9.147  1.0618 -2.4178  0.6353
21377SOL     OW66284   5.273   0.907   4.795  0.3562 -0.1470 -0.0244
21377SOL    HW166285   5.181   0.919   4.819  0.4171 -1.3414  0.9260
21377SOL    HW266286   5.284   0.812   4.793  2.3391 -0.1073  3.0956
21378SOL     OW66287   6.176   3.118   5.032 -0.0009  0.2222  0.1077
21378SOL    HW166288   6.108   3.155   5.089 -1.1804 -3.6895  1.5849
21378SOL    HW266289   6.132   3.106   4.947  0.0247  1.0395 -0.0282
21379SOL     OW66290   2.601   7.841   2.542  0.1437  0.3246  0.0548
21379SOL    HW166291   2.577   7.792   2.621 -1.2153  1.4066  0.3453
21379SOL    HW266292   2.629   7.773   2.480  1.1278 -0.5622  1.4027
21380SOL     OW66293   7.948   4.117   8.499  0.3903  0.3842  0.2716
21380SOL    HW166294   7.914   4.204   8.516  0.8565  0.4761  0.7518
21380SOL    HW266295   7.886   4.078   8.438  0.4175  1.2085 -0.2850
21381SOL     OW66296   5.821   7.606   0.438  0.2188  0.3803 -0.1764
21381SOL    HW166297   5.809   7.687   0.489  1.1183  0.7890 -0.5919
21381SOL    HW266298   5.910   7.613   0.403 -0.4145  0.1735 -1.9172
21382SOL     OW66299   1.098   6.684   1.691 -0.3418  0.1105  0.0368
21382SOL    HW166300   1.039   6.725   1.754 -0.7752 -0.4583  0.0043
21382SOL    HW266301   1.043   6.624   1.642  0.2735 -0.4655  0.0370
21383SOL     OW66302   5.735   2.558   0.572  0.2810  0.4294 -0.0082
21383SOL    HW166303   5.683   2.566   0.652  1.1460 -0.4859  0.6748
21383SOL    HW266304   5.802   2.626   0.580  1.1370 -0.4794  0.6648
21384SOL     OW66305   4.227   9.385   8.218  0.0732 -0.1769 -0.5040
21384SOL    HW166306   4.201   9.439   8.144 -0.6183 -1.0628 -0.9357
21384SOL    HW266307   4.173   9.306   8.210  2.7464 -2.0361 -1.3022
21385SOL     OW66308   6.312   4.433   6.966 -0.0168  0.4874  0.2104
21385SOL    HW166309   6.293   4.522   6.939  0.4600  0.8379  0.9865
21385SOL    HW266310   6.272   4.378   6.899 -1.7088  1.2346  0.5434
21386SOL     OW66311   8.750   7.494   5.808  1.2456 -0.1788  0.0396
21386SOL    HW166312   8.729   7.412   5.764  1.3794 -1.0933  1.5982
21386SOL    HW266313   8.823   7.473   5.866  1.2068  1.0053  0.5559
21387SOL     OW66314   5.103   9.220   9.518 -0.4526 -0.4590 -0.8176
21387SOL    HW166315   5.094   9.141   9.465 -0.8550 -0.7401 -0.3387
21387SOL    HW266316   5.165   9.197   9.587  1.1437  0.3243 -1.9185
21388SOL     OW66317   0.882   3.518   7.859 -0.1523 -0.2869 -0.2696
21388SOL    HW166318   0.914   3.446   7.804 -2.0371 -0.3597 -1.3808
21388SOL    HW266319   0.871   3.478   7.946 -0.2035 -1.0835 -0.6292
21389SOL     OW66320   4.704   2.816   5.754 -0.2935  0.2391 -0.0162
21389SOL    HW166321   4.728   2.810   5.661 -0.4694 -0.2958 -0.0349
21389SOL    HW266322   4.720   2.727   5.788 -1.6044  0.0404  0.1241
21390SOL     OW66323   8.731   2.253   6.054  0.3457  0.3942 -0.0273
21390SOL    HW166324   8.733   2.320   5.985 -1.4662  0.6695  0.1229
21390SOL    HW266325   8.769   2.295   6.130  1.7902  0.2989 -0.6733
21391SOL     OW66326   0.153   7.660   5.463 -0.0913  0.5503 -0.5154
21391SOL    HW166327   0.227   7.620   5.418 -0.1139  1.4685 -1.3765
21391SOL    HW266328   0.167   7.638   5.556  0.0552 -1.1779 -0.9172
21392SOL     OW66329   0.275   8.935   2.639  0.6783 -0.6915  0.0452
21392SOL    HW166330   0.215   8.873   2.598 -0.8217  0.1956  0.8060
21392SOL    HW266331   0.279   9.009   2.579 -1.8639  0.8019  1.5204
21393SOL     OW66332   0.060   7.129   4.525 -0.1073 -0.4473 -0.7293
21393SOL    HW166333   0.051   7.176   4.607  0.6307 -0.0309 -0.8788
21393SOL    HW266334  -0.021   7.079   4.516  0.0998 -1.0446  0.5901
21394SOL     OW66335   9.575   1.104   2.364 -0.0726  0.6110  0.6271
21394SOL    HW166336   9.555   1.015   2.393 -2.6528  1.5472  2.1094
21394SOL    HW266337   9.642   1.135   2.425 -0.1398  0.1255  0.9575
21395SOL     OW66338   2.826   4.145   3.644 -0.2190  0.2152  1.3995
21395SOL    HW166339   2.807   4.092   3.722  1.0406 -0.3234  1.3648
21395SOL    HW266340   2.910   4.186   3.663  0.4773 -0.5110  0.0312
21396SOL     OW66341   5.343   7.031   1.876 -0.0335 -0.4444  0.4044
21396SOL    HW166342   5.254   7.001   1.890 -0.2426 -0.1005 -0.1603
21396SOL    HW266343   5.361   7.014   1.784  0.7557 -1.2012  0.6782
21397SOL     OW66344   1.497   2.462   6.400  0.6053 -0.4704  0.2437
21397SOL    HW166345   1.586   2.470   6.368  0.6083  0.0867  0.3948
21397SOL    HW266346   1.490   2.370   6.427  0.7855 -0.7970 -0.7813
21398SOL     OW66347   3.529   5.321   6.121  0.1936  0.0107  0.0355
21398SOL    HW166348   3.537   5.408   6.082  0.2675 -0.9028 -2.1220
21398SOL    HW266349   3.620   5.290   6.128  0.1013 -0.3065 -0.1828
21399SOL     OW66350   4.351   2.232   0.799 -0.0396 -0.1823  0.0722
21399SOL    HW166351   4.303   2.234   0.716  0.3460  2.2866 -0.1833
21399SOL    HW266352   4.311   2.162   0.849 -2.1188  0.0535 -1.1581
21400SOL     OW66353   6.268   4.916   7.544  0.1904  0.2760  0.0187
21400SOL    HW166354   6.242   5.005   7.518 -1.3142 -0.4971 -1.2983
21400SOL    HW266355   6.187   4.877   7.577  1.3319  0.1248  2.9555
21401SOL     OW66356   7.638   4.773   3.104 -0.2160 -0.2509 -0.5071
21401SOL    HW166357   7.668   4.864   3.113  0.7642 -0.4967 -1.1462
21401SOL    HW266358   7.714   4.720   3.126 -0.2418 -0.9018 -1.8747
21402SOL     OW66359   9.381   9.451   7.452  0.0225 -0.9076  0.5287
21402SOL    HW166360   9.434   9.477   7.377  1.1507 -0.2101  1.5293
21402SOL    HW266361   9.294   9.487   7.434  0.4469 -0.1797 -0.1401
21403SOL     OW66362   4.662   2.147   5.830  0.1405 -0.1785  0.1339
21403SOL    HW166363   4.596   2.183   5.889  0.0677  0.2462 -0.2012
21403SOL    HW266364   4.630   2.168   5.743  1.7918  2.0245 -0.0225
21404SOL     OW66365   3.089   5.934   6.559  0.0020 -0.5991 -0.4340
21404SOL    HW166366   3.086   5.892   6.645  0.6212  2.3160  1.1353
21404SOL    HW266367   3.179   5.917   6.528 -0.1528 -1.4684 -0.4327
21405SOL     OW66368   6.389   6.561   4.572  0.0522  0.0664  0.2677
21405SOL    HW166369   6.311   6.593   4.526  1.0854  1.0848 -0.8409
21405SOL    HW266370   6.355   6.527   4.655 -1.5216  0.9585  0.0376
21406SOL     OW66371   6.895   8.631   1.165  0.4764  0.1864  0.1523
21406SOL    HW166372   6.824   8.669   1.114  0.5936  0.6660  0.3398
21406SOL    HW266373   6.954   8.704   1.182 -0.9412  0.7537  3.3876
21407SOL     OW66374   4.279   0.468   9.066  0.4141  0.1277 -0.1144
21407SOL    HW166375   4.247   0.547   9.023  2.2541  1.0194  0.0518
21407SOL    HW266376   4.337   0.501   9.135  2.8078 -1.3292 -1.2935
21408SOL     OW66377   6.322   0.590   8.758  0.0875 -0.6096  0.0039
21408SOL    HW166378   6.401   0.637   8.786  0.3531 -0.1642 -1.4171
21408SOL    HW266379   6.335   0.575   8.664 -1.5280 -0.5260 -0.2603
21409SOL     OW66380   3.091   9.098   0.784 -0.0124  0.5141  0.0327
21409SOL    HW166381   3.058   9.148   0.709 -2.2163  1.5235  1.5645
21409SOL    HW266382   3.135   9.163   0.839 -1.1707  0.4465  1.0919
21410SOL     OW66383   5.342   9.531   8.530 -0.3543  0.1362  0.0290
21410SOL    HW166384   5.285   9.523   8.605  1.5915 -1.3746  1.4542
21410SOL    HW266385   5.415   9.584   8.561  0.7951 -1.0506 -0.5437
21411SOL     OW66386   6.528   6.051   4.189  0.7146 -0.1469  0.3273
21411SOL    HW166387   6.495   6.054   4.279 -0.5071 -0.3854 -0.0882
21411SOL    HW266388   6.613   6.096   4.193  0.2843  0.6290  1.4303
21412SOL     OW66389   6.578   5.167   5.101 -0.7243 -0.0106  0.2703
21412SOL    HW166390   6.530   5.241   5.062 -1.3172 -0.1389  0.7416
21412SOL    HW266391   6.541   5.090   5.059 -0.8951 -0.1089  0.6059
21413SOL     OW66392   1.914   5.840   7.235 -0.1961 -0.3668 -0.1552
21413SOL    HW166393   1.967   5.845   7.315 -0.5900 -0.2952  0.1023
21413SOL    HW266394   1.978   5.821   7.166 -0.0887 -2.5442  0.4610
21414SOL     OW66395   9.123   6.374   8.269 -0.2850 -0.2217  0.0329
21414SOL    HW166396   9.062   6.388   8.196 -0.0714  1.3952  0.1368
21414SOL    HW266397   9.108   6.283   8.295 -1.2795 -0.4392 -1.1905
21415SOL     OW66398   1.297   7.614   4.842 -0.4783  0.1495 -0.4365
21415SOL    HW166399   1.202   7.599   4.843 -0.2403 -1.4712 -0.0305
21415SOL    HW266400   1.321   7.606   4.750 -0.6084 -0.3200 -0.4315
21416SOL     OW66401   8.774   2.929   9.496  0.5121  0.2041 -0.5479
21416SOL    HW166402   8.795   2.872   9.422  0.5488  1.5371 -1.5837
21416SOL    HW266403   8.746   3.011   9.457  0.5792  0.9675  0.9304
21417SOL     OW66404   7.560   1.986   9.296 -0.0050 -0.5369 -0.5242
21417SOL    HW166405   7.576   2.052   9.364  1.4243 -0.0859 -1.2549
21417SOL    HW266406   7.637   1.929   9.299  1.0918  0.6380 -2.9919
21418SOL     OW66407   5.054   2.115   4.989  0.2706  0.4990 -0.0322
21418SOL    HW166408   5.072   2.108   5.083 -1.0124  0.4991  0.2284
21418SOL    HW266409   5.126   2.168   4.955 -0.0760  1.8571  1.2405
21419SOL     OW66410   5.179   3.442   4.621  0.6713 -0.2299 -0.0792
21419SOL    HW166411   5.206   3.532   4.633  0.0207  0.1492 -1.2855
21419SOL    HW266412   5.168   3.432   4.527 -1.5267 -0.8743  0.1817
21420SOL     OW66413   9.335   6.228   9.202  0.0578 -0.2091 -0.2161
21420SOL    HW166414   9.304   6.318   9.203 -1.9841 -0.8526 -0.7572
21420SOL    HW266415   9.385   6.218   9.283  0.8261  1.5331 -0.4299
21421SOL     OW66416   6.600   4.990   8.266 -0.4922  0.6586  0.0287
21421SOL    HW166417   6.591   4.994   8.171  1.4091  0.3622 -0.2103
21421SOL    HW266418   6.534   5.050   8.299 -1.1506  0.8072 -1.4781
21422SOL     OW66419   0.887   1.937   5.446  0.5689 -0.1598  0.2180
21422SOL    HW166420   0.931   1.943   5.531 -0.0217  1.9047  0.4337
21422SOL    HW266421   0.799   1.973   5.462  0.5134  0.4357 -1.2954
21423SOL     OW66422   7.840   8.693   0.154 -0.6527 -0.0313  0.4564
21423SOL    HW166423   7.780   8.618   0.154  0.7092 -1.1722  1.5273
21423SOL    HW266424   7.790   8.764   0.195 -1.1881 -1.0385  1.5942
21424SOL     OW66425   7.671   2.027   0.563  0.2041 -0.7819  0.0311
21424SOL    HW166426   7.762   2.027   0.590  0.1938 -0.9973  0.0662
21424SOL    HW266427   7.673   2.004   0.470  0.3065  0.8478 -0.3910
21425SOL     OW66428   0.258   9.614   7.017 -0.1339 -0.1366 -0.4759
21425SOL    HW166429   0.341   9.570   7.036 -0.0186  0.2526 -0.0630
21425SOL    HW266430   0.202   9.545   6.981 -0.0707 -0.7140  0.4943
21426SOL     OW66431   7.732   1.210   8.183  0.9219  0.3704  0.1230
21426SOL    HW166432   7.807   1.151   8.180  0.3982 -0.2885 -0.6035
21426SOL    HW266433   7.687   1.195   8.099  0.1469  0.9542  0.4239
21427SOL     OW66434   4.101   9.404   2.972  0.1704 -0.2285 -0.6111
21427SOL    HW166435   4.180   9.425   2.923  0.0567  0.2702 -0.5879
21427SOL    HW266436   4.049   9.485   2.971  0.8430  0.3040  1.6089
21428SOL     OW66437   6.416   4.091   1.341 -0.8065 -0.5808  0.0435
21428SOL    HW166438   6.336   4.039   1.332 -0.9526 -0.4444  0.5426
21428SOL    HW266439   6.484   4.037   1.299 -0.4776 -2.3261  2.5488
21429SOL     OW66440   8.880   6.352   1.935 -0.0833 -0.0779 -0.5427
21429SOL    HW166441   8.927   6.385   2.012 -1.2401  2.4403 -0.8293
21429SOL    HW266442   8.829   6.278   1.968  0.4090  0.1723  0.8314
21430SOL     OW66443   0.762   0.276   5.061  0.0418  0.2970 -0.5472
21430SOL    HW166444   0.837   0.326   5.027 -0.5115  1.6107  0.0754
21430SOL    HW266445   0.801   0.199   5.103  1.2144  1.7066  1.1136
21431SOL     OW66446   8.873   0.028   0.140 -0.3206  0.0051 -0.2137
21431SOL    HW166447   8.831  -0.012   0.216 -1.0197  0.0515 -0.5709
21431SOL    HW266448   8.875  -0.042   0.075 -0.4979  0.2149 -0.4441
21432SOL     OW66449   0.942   2.459   3.561  0.0094 -0.1774  0.1569
21432SOL    HW166450   0.873   2.395   3.545  0.3983 -0.3240 -1.0444
21432SOL    HW266451   0.957   2.500   3.476 -0.5302  1.8314  0.9647
21433SOL     OW66452   7.503   7.383   5.986 -0.0667 -0.4845  0.4603
21433SOL    HW166453   7.550   7.301   5.999  2.6388  0.7273 -0.8524
21433SOL    HW266454   7.531   7.413   5.900 -3.1019  0.5458 -0.2875
21434SOL     OW66455   8.111   8.040   5.315 -0.9704 -0.2969 -1.0154
21434SOL    HW166456   8.105   7.962   5.370 -1.7156  0.9524  0.7590
21434SOL    HW266457   8.204   8.046   5.294 -0.4705 -0.2619  1.0020
21435SOL     OW66458   8.050   9.257   1.315  0.4250 -0.3783 -0.0201
21435SOL    HW166459   8.021   9.263   1.224 -3.0870  0.2124  1.0130
21435SOL    HW266460   8.043   9.164   1.336 -0.1319 -0.3284  0.0293
21436SOL     OW66461   3.275   8.723   7.067  0.3956  0.3910 -0.1171
21436SOL    HW166462   3.199   8.690   7.020  0.8301 -0.4669 -0.2310
21436SOL    HW266463   3.243   8.738   7.156 -0.0206  0.4681 -0.2801
21437SOL     OW66464   8.286   3.998   8.856  0.0798 -0.2054 -0.1799
21437SOL    HW166465   8.221   3.998   8.785 -0.1216 -0.2333  0.0043
21437SOL    HW266466   8.300   3.905   8.875  0.8145 -0.2295 -0.8034
21438SOL     OW66467   1.582   8.486   2.439 -0.1109 -0.8246  0.5481
21438SOL    HW166468   1.544   8.441   2.515 -0.3927 -1.6561 -0.0827
21438SOL    HW266469   1.675   8.466   2.444  0.1285  0.3584  1.5037
21439SOL     OW66470   5.138   9.027   9.317  0.0512  0.4244  0.1714
21439SOL    HW166471   5.111   9.015   9.226  0.4629  1.3740 -0.0837
21439SOL    HW266472   5.204   8.959   9.332 -1.0070 -0.6276  0.1968
21440SOL     OW66473   6.788   8.439   0.105 -0.3703 -0.5188 -0.5407
21440SOL    HW166474   6.855   8.488   0.058  0.4275 -1.2202 -0.1589
21440SOL    HW266475   6.766   8.367   0.047 -0.3952 -0.6045 -0.4249
21441SOL     OW66476   3.403   3.509   3.519  0.1649 -0.2526  0.0375
21441SOL    HW166477   3.444   3.473   3.598 -1.4723 -1.7427  0.2955
21441SOL    HW266478   3.309   3.505   3.538 -0.3479 -1.6050 -2.3294
21442SOL     OW66479   9.352   2.690   1.602 -0.1726 -0.3291 -0.4417
21442SOL    HW166480   9.447   2.673   1.602 -0.0345  0.3986  0.0773
21442SOL    HW266481   9.337   2.737   1.520  0.0554  0.2559 -0.1537
21443SOL     OW66482   2.719   7.221   3.542  0.5450  0.0769  0.1632
21443SOL    HW166483   2.640   7.233   3.595  1.2052 -0.1710  1.2218
21443SOL    HW266484   2.791   7.243   3.600  1.4102 -2.0455  0.0108
21444SOL     OW66485   1.475   5.783   2.897  0.7193 -0.4282 -0.4916
21444SOL    HW166486   1.416   5.796   2.823 -0.1997 -2.8804 -0.3122
21444SOL    HW266487   1.419   5.746   2.966  2.0975 -1.0455  0.3428
21445SOL     OW66488   2.051   9.414   4.403 -0.3997 -0.2518  0.2247
21445SOL    HW166489   1.991   9.467   4.350  0.4628  0.7787  0.2407
21445SOL    HW266490   2.138   9.433   4.367 -0.2195 -4.3432 -2.1032
21446SOL     OW66491   3.858   6.714   6.282  0.1978 -0.0527  0.0466
21446SOL    HW166492   3.905   6.760   6.352  0.5204  0.4881 -0.5077
21446SOL    HW266493   3.768   6.706   6.314  0.2117  0.6923  0.2885
21447SOL     OW66494   1.171   1.434   6.048  0.3150 -0.4962 -0.9911
21447SOL    HW166495   1.118   1.483   6.111  0.6289 -1.0792 -0.2495
21447SOL    HW266496   1.252   1.485   6.041  1.2723 -1.6206  0.9429
21448SOL     OW66497   8.810   9.308   8.206  0.3008  0.6720  0.2957
21448SOL    HW166498   8.846   9.312   8.117  2.2239 -0.6075  0.9468
21448SOL    HW266499   8.844   9.386   8.249  0.2584  0.7292  0.2261
21449SOL     OW66500   0.870   5.500   0.283  0.4046  0.4080  0.8085
21449SOL    HW166501   0.882   5.435   0.353 -0.7593  1.7992  2.3820
21449SOL    HW266502   0.952   5.499   0.234  1.7609  0.2692  2.9733
21450SOL     OW66503   9.135   2.720   1.118  0.3200  0.6126 -0.6097
21450SOL    HW166504   9.133   2.628   1.146 -0.1652  0.5001 -0.9955
21450SOL    HW266505   9.078   2.723   1.041 -0.0375  1.3206 -0.3331
21451SOL     OW66506   2.825   3.310   0.083  0.3794  0.4858 -0.1102
21451SOL    HW166507   2.824   3.259   0.002  1.0695 -0.2734  0.3404
21451SOL    HW266508   2.897   3.273   0.133 -0.0556  0.9387  0.8659
21452SOL     OW66509   4.634   3.667   4.245 -0.3999 -0.6013  0.1193
21452SOL    HW166510   4.689   3.590   4.260 -1.7004 -1.0601  3.5446
21452SOL    HW266511   4.683   3.739   4.285 -0.4412 -0.1945 -0.5539
21453SOL     OW66512   4.937   3.796   1.764  0.3276  0.1922  0.9543
21453SOL    HW166513   4.931   3.888   1.790 -0.0656  0.3739  0.2530
21453SOL    HW266514   4.855   3.757   1.793 -1.6571  1.1383 -2.7253
21454SOL     OW66515   5.368   2.349   5.109  0.2182 -0.0932  0.4716
21454SOL    HW166516   5.324   2.266   5.093  1.7314 -1.1093  1.3596
21454SOL    HW266517   5.424   2.333   5.185  3.3851  0.5533 -1.5226
21455SOL     OW66518   1.479   3.456   2.592  0.2616  0.3251  0.4678
21455SOL    HW166519   1.458   3.524   2.527  1.0108  0.4867  0.3795
21455SOL    HW266520   1.574   3.465   2.605  0.4892 -1.1343 -0.0349
21456SOL     OW66521   0.344   8.481   0.186 -0.5356  0.0695 -0.7064
21456SOL    HW166522   0.419   8.423   0.193 -0.8626 -0.2467  0.3678
21456SOL    HW266523   0.376   8.566   0.215 -1.0648 -0.5166  1.8418
21457SOL     OW66524   0.573   4.838   6.803  0.4114  0.6554 -0.0332
21457SOL    HW166525   0.573   4.898   6.877  2.8512  1.8974 -0.9266
21457SOL    HW266526   0.644   4.869   6.746  0.0417 -1.5102 -1.8509
21458SOL     OW66527   7.804   5.459   1.045 -0.2686  0.2108  0.2486
21458SOL    HW166528   7.810   5.517   1.121 -1.0662  0.4730  0.1309
21458SOL    HW266529   7.882   5.404   1.050  0.6861  1.5014  0.1919
21459SOL     OW66530   2.057   1.598   1.946 -0.1767  0.2450 -0.1316
21459SOL    HW166531   2.091   1.538   1.879 -1.0013 -0.0256 -0.3158
21459SOL    HW266532   2.126   1.664   1.956  0.9836 -1.0318  0.4784
21460SOL     OW66533   0.039   3.033   1.530  0.0627 -0.2973 -0.5822
21460SOL    HW166534   0.084   2.948   1.528  1.5311  0.4239  0.3402
21460SOL    HW266535   0.101   3.092   1.572 -1.4092  0.9719 -0.0991
21461SOL     OW66536   2.591   3.934   1.094  0.1441 -0.0408 -0.1088
21461SOL    HW166537   2.553   3.999   1.153  2.6780  2.0864 -0.6813
21461SOL    HW266538   2.541   3.943   1.013 -0.5822 -0.0217  0.3244
21462SOL     OW66539   1.891   2.388   8.131  0.0119 -0.5230  0.4751
21462SOL    HW166540   1.824   2.339   8.179  0.0227 -1.4741 -0.4429
21462SOL    HW266541   1.921   2.328   8.063  1.1290  0.2279  0.2715
21463SOL     OW66542   9.319   1.601   4.962  0.3615 -0.1093  0.3053
21463SOL    HW166543   9.357   1.644   5.039 -0.6225 -1.0099  1.3289
21463SOL    HW266544   9.328   1.507   4.981  3.6002 -0.5164 -2.4188
21464SOL     OW66545   6.986   7.852   6.063 -0.0825 -0.7509 -0.3522
21464SOL    HW166546   6.917   7.789   6.082  0.1694 -0.6446  0.9757
21464SOL    HW266547   7.063   7.819   6.109  0.5278 -0.3876 -1.0819
21465SOL     OW66548   3.212   7.337   9.385 -0.1869 -0.2149 -0.5632
21465SOL    HW166549   3.198   7.243   9.369 -0.5623 -0.1132 -0.8391
21465SOL    HW266550   3.172   7.380   9.310 -1.6368  0.2605  0.4442
21466SOL     OW66551   1.131   0.359   2.071 -0.0503  0.6154 -0.1596
21466SOL    HW166552   1.163   0.426   2.011  0.1842  1.3206  0.7385
21466SOL    HW266553   1.192   0.286   2.059 -0.5224  0.4010 -1.4046
21467SOL     OW66554   7.730   1.429   6.369  0.0164 -0.0120  0.0186
21467SOL    HW166555   7.790   1.359   6.393 -1.3123 -1.6301 -1.1790
21467SOL    HW266556   7.746   1.498   6.433  2.3497 -0.8216  0.3846
21468SOL     OW66557   3.541   8.319   5.310 -0.6602 -0.1661 -0.2421
21468SOL    HW166558   3.460   8.360   5.342 -0.9294 -0.6954 -0.2274
21468SOL    HW266559   3.554   8.356   5.223 -0.8975 -0.0463 -0.2278
21469SOL     OW66560   5.409   4.720   6.595 -0.0798  0.4239  0.0008
21469SOL    HW166561   5.460   4.722   6.676 -1.6308 -0.0407  1.0570
21469SOL    HW266562   5.412   4.628   6.568  0.2408  0.5339 -0.3387
21470SOL     OW66563   1.117   5.406   7.811 -0.2336 -0.7329  0.5421
21470SOL    HW166564   1.132   5.348   7.736 -0.9886  0.0949 -0.2787
21470SOL    HW266565   1.203   5.443   7.830 -0.1021 -0.6601 -0.1713
21471SOL     OW66566   9.500   5.686   8.097 -0.6397  0.4231 -0.1148
21471SOL    HW166567   9.555   5.612   8.122 -0.2354  0.3255 -1.2413
21471SOL    HW266568   9.441   5.698   8.171  0.2025 -0.1436  0.6735
21472SOL     OW66569   2.027   1.285   7.518  0.1633 -0.1929  0.5151
21472SOL    HW166570   1.993   1.368   7.552 -1.6237 -1.4346  1.9988
21472SOL    HW266571   1.962   1.220   7.546  0.0837 -1.7873 -2.8450
21473SOL     OW66572   4.881   1.731   2.160  0.1176  0.0228 -0.0102
21473SOL    HW166573   4.835   1.763   2.082  0.9216  1.1031 -0.0593
21473SOL    HW266574   4.930   1.806   2.192  0.1409 -0.5229  1.3050
21474SOL     OW66575   6.754   3.876   4.648  0.3678 -0.4852 -0.0638
21474SOL    HW166576   6.773   3.891   4.741  2.4654 -1.1522 -0.3272
21474SOL    HW266577   6.663   3.904   4.637  0.0143 -0.5669  2.2208
21475SOL     OW66578   0.963   5.358   1.075 -0.4219  0.1346  0.9240
21475SOL    HW166579   1.010   5.370   1.157  0.4091  0.3528  0.4237
21475SOL    HW266580   0.981   5.267   1.051  0.2965  0.3990  0.4105
21476SOL     OW66581   3.170   7.975   8.494  0.0670  0.2048 -0.4315
21476SOL    HW166582   3.215   7.942   8.572  1.7499 -0.1254 -1.4934
21476SOL    HW266583   3.168   7.901   8.434 -1.5398  0.3481 -0.6117
21477SOL     OW66584   0.452   2.559   9.576 -0.0267 -0.0266 -0.6409
21477SOL    HW166585   0.506   2.599   9.508  1.5807 -0.3350  0.3987
21477SOL    HW266586   0.369   2.606   9.571  0.7584  1.3390 -1.4713
21478SOL     OW66587   4.923   4.670   2.563 -0.1695  0.0338  0.4409
21478SOL    HW166588   4.841   4.704   2.598 -1.4688 -1.7576 -0.6942
21478SOL    HW266589   4.935   4.714   2.480 -0.7198 -0.6663 -0.0220
21479SOL     OW66590   0.249   9.231   6.380 -0.2516 -0.5353 -0.0577
21479SOL    HW166591   0.235   9.239   6.475  0.9199  1.6647 -0.0155
21479SOL    HW266592   0.311   9.159   6.371 -0.6389 -0.9948  0.8188
21480SOL     OW66593   6.569   9.311   4.228  0.3209  0.0461  0.7050
21480SOL    HW166594   6.557   9.405   4.243  1.6956  0.0925  1.6781
21480SOL    HW266595   6.496   9.270   4.273 -1.0471  0.6680 -0.8231
21481SOL     OW66596   6.160   7.111   8.503  0.0135  0.3365  0.0201
21481SOL    HW166597   6.136   7.020   8.483  0.7163 -0.0499  0.8186
21481SOL    HW266598   6.083   7.162   8.482 -0.7061 -0.5672  0.3841
21482SOL     OW66599   2.980   5.826   8.843 -0.5241 -0.0771  0.2107
21482SOL    HW166600   2.995   5.745   8.892  1.5118  0.3464  0.3983
21482SOL    HW266601   2.885   5.838   8.843 -0.7826 -1.8969  1.0846
21483SOL     OW66602   9.216   9.390   2.022 -0.5406 -0.5512  0.0352
21483SOL    HW166603   9.239   9.431   2.105  0.1366  0.6072 -0.6856
21483SOL    HW266604   9.281   9.424   1.960 -0.7638 -1.7163 -0.8815
21484SOL     OW66605   1.726   0.006   9.257 -0.7034 -0.6157 -0.5074
21484SOL    HW166606   1.765   0.090   9.233  0.7608 -0.9868  0.4700
21484SOL    HW266607   1.795  -0.058   9.239 -0.6470 -1.2438  1.7153
21485SOL     OW66608   3.021   0.241   8.555  0.4578 -0.1155 -0.2898
21485SOL    HW166609   3.005   0.168   8.496  0.5813 -0.9099  0.6270
21485SOL    HW266610   2.934   0.264   8.588  0.5795 -0.9694  0.6873
21486SOL     OW66611   9.476   0.593   7.137 -0.0260  0.2049  0.0593
21486SOL    HW166612   9.406   0.629   7.082 -0.2788 -0.2940  0.0565
21486SOL    HW266613   9.557   0.620   7.093 -0.2251 -0.2185 -0.5749
21487SOL     OW66614   2.827   9.313   2.428  0.2094 -0.1155 -0.2117
21487SOL    HW166615   2.891   9.361   2.481  0.0885  1.4268 -1.3870
21487SOL    HW266616   2.766   9.276   2.492  0.0971  1.6495  0.7527
21488SOL     OW66617   6.522   2.327   8.988 -0.3216 -0.0158 -0.2106
21488SOL    HW166618   6.575   2.255   8.954  0.4429 -0.0049  0.8958
21488SOL    HW266619   6.435   2.312   8.951 -0.4080 -2.0307  0.6582
21489SOL     OW66620   0.570   0.735   8.479  0.6268  0.5136  0.1677
21489SOL    HW166621   0.623   0.656   8.491 -1.3181 -1.5274 -3.0275
21489SOL    HW266622   0.526   0.747   8.563  2.4688 -0.5761  1.3661
21490SOL     OW66623   0.710   0.092   9.230  0.5409  0.4903  0.2097
21490SOL    HW166624   0.617   0.069   9.226 -0.0842  2.5464  1.3645
21490SOL    HW266625   0.738   0.095   9.139 -0.9130  1.1330 -0.2504
21491SOL     OW66626   5.601   4.504   2.084  0.6614  0.6301 -0.4018
21491SOL    HW166627   5.562   4.525   2.169  0.8220  1.6787 -0.5779
21491SOL    HW266628   5.677   4.450   2.106 -0.5015 -0.9440 -0.0226
21492SOL     OW66629   7.617   0.213   5.591  0.0706  0.3876  0.1668
21492SOL    HW166630   7.659   0.142   5.640 -0.4001  0.0866  0.1395
21492SOL    HW266631   7.660   0.292   5.623  1.0580  0.0458 -0.2660
21493SOL     OW66632   2.416   1.753   1.366  0.0106 -0.1268  0.1106
21493SOL    HW166633   2.343   1.815   1.370 -1.0245 -1.2490 -0.6879
21493SOL    HW266634   2.385   1.677   1.415  1.7483  0.3799  2.1701
21494SOL     OW66635   4.232   9.343   7.332  0.4591 -0.2796 -0.5103
21494SOL    HW166636   4.241   9.409   7.263  2.4600  0.0672  0.0174
21494SOL    HW266637   4.297   9.276   7.310 -0.3396 -1.2216 -0.0848
21495SOL     OW66638   4.744   2.666   2.567  0.0783 -0.1359 -0.3623
21495SOL    HW166639   4.818   2.611   2.593 -0.0746  0.1447  0.7344
21495SOL    HW266640   4.689   2.609   2.514 -0.6626 -1.4502  1.6801
21496SOL     OW66641   6.058   3.033   2.405  0.4541  0.0852 -0.1033
21496SOL    HW166642   6.015   3.036   2.319 -0.7901 -0.7479  0.4568
21496SOL    HW266643   6.128   3.098   2.399  1.2328 -0.8327 -2.1847
21497SOL     OW66644   2.737   5.924   4.747 -0.1568 -0.4137 -0.4020
21497SOL    HW166645   2.695   5.856   4.694 -0.7127 -1.2073  0.9946
21497SOL    HW266646   2.824   5.889   4.765 -0.7461 -1.2351  1.0687
21498SOL     OW66647   6.379   5.041   5.949  0.0577  0.1508 -0.3891
21498SOL    HW166648   6.453   5.066   5.893  0.6474 -1.5594 -0.4212
21498SOL    HW266649   6.419   5.020   6.033 -0.8965  3.3397  0.9800
21499SOL     OW66650   0.914   5.143   1.349  0.0952  0.1579  0.1411
21499SOL    HW166651   0.819   5.143   1.360  0.0323  0.5894 -0.3708
21499SOL    HW266652   0.931   5.070   1.289 -0.0041  0.6093 -0.4487
21500SOL     OW66653   2.304   3.710   5.804  0.3295  0.3787 -0.3068
21500SOL    HW166654   2.264   3.770   5.741  1.5159  1.4189 -0.1308
21500SOL    HW266655   2.391   3.747   5.819  0.5140 -0.5311  1.0201
21501SOL     OW66656   7.906   2.593   0.870 -0.2850 -0.1733  0.0181
21501SOL    HW166657   7.860   2.551   0.943 -0.3494  0.7456  0.5204
21501SOL    HW266658   7.925   2.521   0.809 -0.5789 -0.8901  0.7527
21502SOL     OW66659   6.752   3.689   4.245 -0.4945 -0.8111  0.2944
21502SOL    HW166660   6.720   3.635   4.172 -0.2656 -1.7689  0.8759
21502SOL    HW266661   6.830   3.732   4.211 -0.9591 -0.4600 -0.3372
21503SOL     OW66662   4.736   1.998   3.215 -0.7438  0.1533  0.3006
21503SOL    HW166663   4.702   1.908   3.214 -0.3095 -0.0476  1.3138
21503SOL    HW266664   4.827   1.988   3.245 -0.1752  0.7881 -1.1536
21504SOL     OW66665   9.108   3.666   7.448 -0.2909 -0.2317 -0.1025
21504SOL    HW166666   9.112   3.609   7.372 -1.7911 -0.5830  0.0408
21504SOL    HW266667   9.145   3.614   7.519  1.8827  0.3966 -0.7161
21505SOL     OW66668   8.098   8.760   0.106 -0.0847  0.3552 -0.6412
21505SOL    HW166669   8.087   8.845   0.064 -0.5599 -0.0783 -1.4200
21505SOL    HW266670   8.011   8.720   0.103 -0.4178  0.7819  1.8398
21506SOL     OW66671   9.620   6.561   5.950 -0.1618 -0.5826 -0.1086
21506SOL    HW166672   9.583   6.475   5.932 -0.5542 -0.6036  0.7497
21506SOL    HW266673   9.569   6.595   6.024  0.6271 -0.0337  0.2040
21507SOL     OW66674   1.450   1.709   1.784  0.0869  0.3240  0.0291
21507SOL    HW166675   1.407   1.693   1.867  0.8373  2.3702  0.8860
21507SOL    HW266676   1.484   1.799   1.791 -1.3907  1.3172 -3.1404
21508SOL     OW66677   3.062   1.473   8.092  0.1272  0.4375  0.2053
21508SOL    HW166678   3.052   1.386   8.130  2.9315 -0.5593 -1.0939
21508SOL    HW266679   3.150   1.474   8.055 -0.5530  3.1031 -1.7054
21509SOL     OW66680   1.141   3.945   6.283  0.2794  0.2472  0.2596
21509SOL    HW166681   1.063   3.953   6.337 -0.4509 -1.1421 -0.5407
21509SOL    HW266682   1.150   3.851   6.266  1.0811  0.5378 -1.1519
21510SOL     OW66683   0.016   3.543   6.883 -0.7052  0.6819  0.1248
21510SOL    HW166684  -0.066   3.494   6.884 -0.9298  1.0288  1.6070
21510SOL    HW266685   0.083   3.478   6.863 -1.2050  0.1455  0.1620
21511SOL     OW66686   9.127   0.191   6.472  0.1849  0.0628  0.2284
21511SOL    HW166687   9.042   0.196   6.429 -0.5094  0.8817  1.6111
21511SOL    HW266688   9.112   0.230   6.559  2.0622  0.5917  0.3608
21512SOL     OW66689   8.335   4.065   1.125  0.5312 -0.2556  0.0260
21512SOL    HW166690   8.411   4.108   1.163  0.2974  1.1053 -0.9593
21512SOL    HW266691   8.260   4.115   1.157  0.2998  0.5734 -1.7117
21513SOL     OW66692   0.788   4.155   0.587 -0.6853  0.4546  0.0752
21513SOL    HW166693   0.798   4.082   0.526  0.0541  1.2743 -0.8123
21513SOL    HW266694   0.876   4.194   0.592 -1.0391  1.2095  0.6283
21514SOL     OW66695   1.468   0.160   5.547  0.0199 -0.1729 -0.0642
21514SOL    HW166696   1.413   0.114   5.610 -0.9735 -0.7395 -1.3003
21514SOL    HW266697   1.410   0.225   5.507  0.7705  0.5352 -0.0548
21515SOL     OW66698   5.097   8.635   9.542 -0.4499  0.4488 -0.9902
21515SOL    HW166699   5.021   8.586   9.574 -0.5280  0.8975 -0.4728
21515SOL    HW266700   5.112   8.702   9.609 -0.4688  1.2541 -1.7727
21516SOL     OW66701   4.538   3.304   1.138  0.2525  0.3469  0.1026
21516SOL    HW166702   4.614   3.268   1.092  1.5188  2.1646  0.6784
21516SOL    HW266703   4.540   3.397   1.120  0.1424  0.9777  2.8157
21517SOL     OW66704   8.398   0.970   2.712 -0.3359  0.2038 -0.7700
21517SOL    HW166705   8.462   1.034   2.741  1.5159 -0.7896 -2.4552
21517SOL    HW266706   8.440   0.925   2.639 -3.1146 -0.2259 -2.2401
21518SOL     OW66707   7.026   5.486   9.250  0.0476  0.2157  0.6677
21518SOL    HW166708   6.932   5.489   9.233  0.1576  1.9745  0.1217
21518SOL    HW266709   7.034   5.448   9.337 -1.3004  1.4635  1.3797
21519SOL     OW66710   6.630   8.492   8.698  0.4334  0.7487  0.0692
21519SOL    HW166711   6.671   8.563   8.747  0.1734  2.3691 -1.9277
21519SOL    HW266712   6.586   8.536   8.624 -1.1925 -1.3279 -0.2910
21520SOL     OW66713   9.049   2.506   2.983  0.0163  0.0808 -0.3753
21520SOL    HW166714   8.987   2.468   3.046  0.2389 -1.9103 -1.2606
21520SOL    HW266715   9.123   2.534   3.037 -0.5512  0.0780  0.4289
21521SOL     OW66716   3.331   3.544   8.289 -0.3776  0.0443  0.0411
21521SOL    HW166717   3.403   3.554   8.227 -0.7810  0.3619 -0.3809
21521SOL    HW266718   3.362   3.477   8.351  0.1755 -0.0056 -0.2825
21522SOL     OW66719   1.170   7.627   0.135  0.3140 -0.2677 -0.2631
21522SOL    HW166720   1.220   7.633   0.053  1.3666 -0.6494  0.3318
21522SOL    HW266721   1.229   7.582   0.196 -0.4749 -0.0394  0.6930
21523SOL     OW66722   4.290   1.011   4.243 -0.3466  0.1920  0.4736
21523SOL    HW166723   4.280   0.941   4.178  1.3819 -2.8704  3.2213
21523SOL    HW266724   4.353   1.071   4.203  0.5118 -1.4614 -0.7846
21524SOL     OW66725   3.352   6.652   6.486  0.7999 -0.5203 -0.3756
21524SOL    HW166726   3.308   6.730   6.452  0.4870  0.3650  1.8659
21524SOL    HW266727   3.287   6.582   6.479 -0.2600  0.2899  0.9365
21525SOL     OW66728   3.758   0.180   7.804 -0.1173  0.1926 -0.7935
21525SOL    HW166729   3.796   0.094   7.822 -0.5872  0.1293 -0.0510
21525SOL    HW266730   3.710   0.169   7.722 -0.8951 -0.5010 -0.2654
21526SOL     OW66731   1.545   7.084   6.522  0.1234  0.4107 -0.3867
21526SOL    HW166732   1.542   7.120   6.611 -1.5308  0.4757 -0.4306
21526SOL    HW266733   1.627   7.117   6.486  0.4694  1.0053  0.8582
21527SOL     OW66734   9.433   7.115   8.923  0.1406 -0.3688  0.2015
21527SOL    HW166735   9.417   7.089   9.013 -2.4571 -0.5858 -0.2427
21527SOL    HW266736   9.406   7.207   8.919 -0.8563 -0.6687 -0.5519
21528SOL     OW66737   6.329   5.359   4.427  0.6459  0.0252 -0.2135
21528SOL    HW166738   6.234   5.350   4.421  0.8891 -2.7616 -1.5023
21528SOL    HW266739   6.350   5.430   4.366 -0.5192  0.0706 -0.5950
21529SOL     OW66740   0.571   8.160   2.892  0.1897  0.1708 -0.0159
21529SOL    HW166741   0.633   8.226   2.861  1.2985 -1.0837 -0.5235
21529SOL    HW266742   0.559   8.101   2.818 -2.0916  0.6690 -0.1438
21530SOL     OW66743   7.421   3.786   5.170 -0.1844  0.3310  0.0596
21530SOL    HW166744   7.474   3.769   5.247  0.7866 -3.1305 -1.1883
21530SOL    HW266745   7.335   3.750   5.192  0.4704 -1.9994 -0.7854
21531SOL     OW66746   7.160   5.373   8.498 -0.3473 -0.1639  0.2054
21531SOL    HW166747   7.090   5.410   8.554 -0.2357 -1.8081  1.5199
21531SOL    HW266748   7.188   5.294   8.545  2.3436  0.3798 -0.3370
21532SOL     OW66749   9.443   8.366   2.373 -0.2339  0.6426  0.5121
21532SOL    HW166750   9.443   8.462   2.378  1.2235  0.7055 -0.1522
21532SOL    HW266751   9.489   8.346   2.292  0.5993 -0.6227  1.2572
21533SOL     OW66752   8.327   1.789   7.408  0.8719  0.2352  0.2585
21533SOL    HW166753   8.378   1.709   7.422 -0.7752 -0.5802  1.9980
21533SOL    HW266754   8.262   1.765   7.342 -0.1948 -0.1763  1.4283
21534SOL     OW66755   0.376   9.438   7.890  0.6586  0.6110  0.0637
21534SOL    HW166756   0.286   9.466   7.875  1.5791  3.0160 -1.4929
21534SOL    HW266757   0.413   9.425   7.802  1.6532 -1.0711  0.6766
21535SOL     OW66758   0.429   1.872   8.428 -0.1598 -0.6834  0.2652
21535SOL    HW166759   0.488   1.844   8.498  0.5686 -0.7057 -0.3362
21535SOL    HW266760   0.487   1.885   8.353 -1.1691 -2.7161 -0.9513
21536SOL     OW66761   5.808   0.194   4.252  0.4198 -0.0882  0.2749
21536SOL    HW166762   5.737   0.142   4.289  1.5155 -0.0054  2.7040
21536SOL    HW266763   5.767   0.276   4.224 -0.6188 -0.5376  0.4622
21537SOL     OW66764   8.852   5.878   2.650  0.4496  0.3296 -0.2873
21537SOL    HW166765   8.874   5.786   2.636 -0.1767  0.3286 -1.3733
21537SOL    HW266766   8.880   5.896   2.740  3.0537 -0.1981 -0.8993
21538SOL     OW66767   1.371   6.566   3.236  0.4440  0.1571  0.0046
21538SOL    HW166768   1.302   6.501   3.249 -0.3580  0.9549 -0.1193
21538SOL    HW266769   1.345   6.613   3.156  1.9253 -0.5042 -0.9112
21539SOL     OW66770   4.807   1.611   9.161  0.0472 -0.0728  0.4121
21539SOL    HW166771   4.805   1.527   9.207 -0.0407 -0.7077 -0.7313
21539SOL    HW266772   4.890   1.650   9.187  0.5741 -0.9862  0.1516
21540SOL     OW66773   2.647   4.812   0.727 -0.3118 -0.3695 -0.1625
21540SOL    HW166774   2.665   4.750   0.657 -1.3948 -0.4528 -0.3738
21540SOL    HW266775   2.605   4.759   0.795  0.6185 -0.2671  0.5201
21541SOL     OW66776   8.156   0.216   1.522  0.4266 -0.2199  0.1512
21541SOL    HW166777   8.187   0.267   1.447  1.2928 -1.4844 -0.3772
21541SOL    HW266778   8.094   0.274   1.566 -2.0666 -0.2806 -2.9509
21542SOL     OW66779   2.668   8.354   0.251  0.0921 -0.5904  0.4729
21542SOL    HW166780   2.758   8.385   0.250 -0.0878 -0.0162  1.3105
21542SOL    HW266781   2.676   8.258   0.248  0.7583 -0.5692  1.0978
21543SOL     OW66782   9.186   2.300   0.644  0.4763  0.1400 -0.2696
21543SOL    HW166783   9.170   2.393   0.629 -1.1946  0.0725  0.8789
21543SOL    HW266784   9.236   2.297   0.725  0.8290  0.0311 -0.4858
21544SOL     OW66785   5.961   6.679   9.343 -1.0905 -0.2915  0.2924
21544SOL    HW166786   5.975   6.753   9.403 -0.0202  0.0600 -0.3553
21544SOL    HW266787   5.973   6.602   9.398  1.8233 -0.0083  0.2532
21545SOL     OW66788   2.273   5.469   1.352 -0.1516  0.0358  0.4143
21545SOL    HW166789   2.365   5.457   1.375 -0.2058  1.2985  1.4136
21545SOL    HW266790   2.255   5.561   1.371 -1.5695 -0.1418  0.0644
21546SOL     OW66791   0.186   2.556   7.737  0.1710 -0.6494  0.6585
21546SOL    HW166792   0.275   2.546   7.704  0.5927  0.1316  1.5029
21546SOL    HW266793   0.187   2.512   7.822 -0.4687 -1.3161  0.3257
21547SOL     OW66794   5.805   9.323   5.979  0.8915  0.4237 -0.6997
21547SOL    HW166795   5.874   9.295   5.920  1.5060  0.6249 -0.0834
21547SOL    HW266796   5.826   9.283   6.063  0.1022  0.2512 -0.5718
21548SOL     OW66797   4.946   5.630   6.999  0.0378 -0.1223  0.3343
21548SOL    HW166798   4.948   5.591   7.086 -0.2130 -0.2844  0.2704
21548SOL    HW266799   4.902   5.564   6.945 -0.7392  0.4100  0.3045
21549SOL     OW66800   5.868   1.476   5.798 -1.0708 -0.2956  0.3359
21549SOL    HW166801   5.963   1.480   5.798 -1.0894  1.8088  1.4102
21549SOL    HW266802   5.846   1.411   5.732  1.1009 -0.9761  0.2130
21550SOL     OW66803   7.469   0.081   8.032 -0.3709 -0.0721 -0.2871
21550SOL    HW166804   7.421   0.009   8.074 -0.9752 -0.0116 -0.8545
21550SOL    HW266805   7.538   0.038   7.981 -1.3282 -0.3386 -1.4091
21551SOL     OW66806   7.188   8.510   8.742  0.5851  0.1973 -0.3699
21551SOL    HW166807   7.121   8.454   8.701  0.1884  0.9874 -0.8263
21551SOL    HW266808   7.141   8.558   8.810  1.2244 -1.0350  0.9875
21552SOL     OW66809   2.889   4.137   1.452  0.6077 -0.8178  0.1861
21552SOL    HW166810   2.937   4.072   1.400  1.5229  0.4126 -0.5711
21552SOL    HW266811   2.954   4.172   1.513 -0.1479 -1.3460  1.3294
21553SOL     OW66812   3.247   9.470   0.328  0.3896  0.7423  0.1817
21553SOL    HW166813   3.340   9.485   0.347  0.4468  1.1934 -0.4331
21553SOL    HW266814   3.201   9.527   0.390  0.4406 -0.8340  1.7764
21554SOL     OW66815   6.023   8.975   3.288 -0.0591 -0.1848 -0.3503
21554SOL    HW166816   5.929   8.988   3.302 -0.0759  2.8336 -2.3475
21554SOL    HW266817   6.029   8.932   3.203  0.4411 -3.0482  0.9812
21555SOL     OW66818   6.860   0.517   8.630  0.1033 -0.4171 -0.5282
21555SOL    HW166819   6.917   0.545   8.702 -2.0965 -0.9427  1.5627
21555SOL    HW266820   6.892   0.564   8.554  3.3736 -0.7882  0.4532
21556SOL     OW66821   1.414   6.333   5.531  0.4232 -0.3205  0.0545
21556SOL    HW166822   1.353   6.322   5.458 -0.0166  2.0947 -0.0399
21556SOL    HW266823   1.482   6.267   5.515 -0.2984 -0.6915 -1.8469
21557SOL     OW66824   7.187   5.246   0.930 -0.4958  0.1715  0.0576
21557SOL    HW166825   7.111   5.220   0.982 -0.3763  2.1750  1.3593
21557SOL    HW266826   7.262   5.219   0.983 -0.2767 -1.1662 -0.8917
21558SOL     OW66827   4.326   1.791   3.836  0.2231 -0.2813 -0.2709
21558SOL    HW166828   4.362   1.846   3.766  0.4173  0.2760  0.2530
21558SOL    HW266829   4.382   1.810   3.911 -2.2583  2.0942  1.1436
21559SOL     OW66830   0.650   2.496   0.436  0.2023 -0.3417 -0.7650
21559SOL    HW166831   0.678   2.583   0.409 -1.6704  0.6393  0.2860
21559SOL    HW266832   0.601   2.462   0.361 -1.7675  0.8397 -0.0662
21560SOL     OW66833   3.216   7.599   0.047 -0.2379 -0.0000  0.6464
21560SOL    HW166834   3.142   7.601  -0.013 -0.0036  2.1705  0.3376
21560SOL    HW266835   3.289   7.634  -0.004  0.6047 -0.5539  1.4357
21561SOL     OW66836   3.922   5.962   6.495  0.0906 -0.4559 -0.5453
21561SOL    HW166837   3.868   6.023   6.544 -0.6290 -0.0682 -1.7719
21561SOL    HW266838   3.961   5.905   6.562 -0.0724  0.6560  0.5259
21562SOL     OW66839   0.663   7.599   5.531 -0.0989  0.0989  0.7225
21562SOL    HW166840   0.737   7.611   5.472 -0.3078 -1.3579  0.1222
21562SOL    HW266841   0.616   7.681   5.528  0.3573  0.3242 -0.4982
21563SOL     OW66842   7.910   7.169   8.555 -0.6004  0.3441  0.6265
21563SOL    HW166843   7.931   7.235   8.620 -2.9315  0.7365  1.0461
21563SOL    HW266844   7.873   7.096   8.605 -1.3945  0.2044 -0.1374
21564SOL     OW66845   0.203   4.163   2.532 -0.3027 -0.3939  0.3545
21564SOL    HW166846   0.213   4.091   2.469  2.9389 -0.3230  0.6722
21564SOL    HW266847   0.246   4.237   2.490 -3.9375  1.6618 -0.1562
21565SOL     OW66848   6.796   6.684   0.632 -0.3790 -0.1782 -0.3672
21565SOL    HW166849   6.771   6.736   0.556  0.0414 -2.3698 -2.1330
21565SOL    HW266850   6.789   6.593   0.602  1.4309 -1.1002  1.6949
21566SOL     OW66851   5.230   6.280   4.095  0.2910  0.2323 -0.2561
21566SOL    HW166852   5.137   6.259   4.106  0.3144 -1.1761 -2.1911
21566SOL    HW266853   5.276   6.204   4.131  0.5914 -0.0194 -1.1223
21567SOL     OW66854   3.226   4.258   3.224 -0.2605 -0.3699  0.2738
21567SOL    HW166855   3.131   4.264   3.237 -0.4684 -1.9091 -0.1931
21567SOL    HW266856   3.235   4.242   3.130  0.3343 -1.7351  0.5356
21568SOL     OW66857   2.394   0.102   2.321  0.0069  0.3166  0.2090
21568SOL    HW166858   2.402   0.189   2.359  0.4215  0.3548  0.0407
21568SOL    HW266859   2.456   0.048   2.369 -1.9160 -0.4779  1.9433
21569SOL     OW66860   7.180   1.413   2.843  0.4834  0.4113 -0.4314
21569SOL    HW166861   7.132   1.381   2.919  2.0532  1.5431  1.0759
21569SOL    HW266862   7.125   1.484   2.809 -0.9413 -1.0211 -1.3134
21570SOL     OW66863   9.089   2.122   3.133  0.2606  0.0580 -0.2480
21570SOL    HW166864   9.128   2.044   3.093  0.8000  0.9266 -1.4729
21570SOL    HW266865   9.153   2.191   3.117  0.7353  0.4019  2.5423
21571SOL     OW66866   1.736   5.548   1.827  0.8863  0.0701  0.0568
21571SOL    HW166867   1.801   5.533   1.758  0.6892  0.1576 -0.1475
21571SOL    HW266868   1.783   5.600   1.892  1.7313 -1.8132  1.0169
21572SOL     OW66869   2.365   0.221   5.951 -0.0608  0.1345  0.1218
21572SOL    HW166870   2.302   0.228   6.022  0.5580  0.2259  0.6667
21572SOL    HW266871   2.439   0.275   5.979  0.2319  0.0852 -0.5423
21573SOL     OW66872   5.977   2.900   6.748  0.7328  0.4101 -0.0565
21573SOL    HW166873   5.994   2.870   6.837  0.6439  1.5339  0.3656
21573SOL    HW266874   6.062   2.927   6.714  0.6071  1.0998  0.1424
21574SOL     OW66875   4.939   7.024   2.112 -0.1164 -0.3284 -0.2389
21574SOL    HW166876   4.843   7.017   2.119 -0.1416  0.8885  1.5552
21574SOL    HW266877   4.965   7.063   2.196  1.6210  2.3355 -1.8952
21575SOL     OW66878   0.030   7.110   3.567 -0.4376  0.2600  0.0764
21575SOL    HW166879  -0.027   7.073   3.634 -1.4064  0.7953 -0.4376
21575SOL    HW266880   0.050   7.036   3.510 -1.1331  0.1866 -0.0852
21576SOL     OW66881   2.366   0.118   9.142 -0.2001  0.4025  0.4424
21576SOL    HW166882   2.460   0.121   9.160 -0.6937  1.7978  3.5130
21576SOL    HW266883   2.345   0.206   9.110 -0.4359 -0.0422 -0.6819
21577SOL     OW66884   3.023   9.415   4.438  0.3162  0.1582  0.3361
21577SOL    HW166885   3.002   9.322   4.436  0.4531  0.1116  0.7690
21577SOL    HW266886   3.047   9.432   4.530  1.2755  0.3948  0.0580
21578SOL     OW66887   4.115   6.353   7.637  0.6762 -0.2059 -0.0935
21578SOL    HW166888   4.160   6.436   7.651 -0.0744  0.2153 -0.1209
21578SOL    HW266889   4.059   6.369   7.561  1.2486 -1.0434 -0.7099
21579SOL     OW66890   1.462   6.656   7.444 -0.3147 -0.4778 -0.1671
21579SOL    HW166891   1.386   6.687   7.495  1.4755 -0.2491  2.5870
21579SOL    HW266892   1.434   6.664   7.353 -2.4472  2.7231  0.5684
21580SOL     OW66893   4.795   8.545   0.422 -0.1391 -0.6746 -0.0449
21580SOL    HW166894   4.824   8.609   0.488 -0.4419 -0.0451 -0.5094
21580SOL    HW266895   4.803   8.592   0.339 -1.6932 -0.7685 -0.2598
21581SOL     OW66896   4.811   4.680   8.592 -0.0022 -0.3552 -0.5044
21581SOL    HW166897   4.821   4.646   8.681  1.0042  1.8378  0.3051
21581SOL    HW266898   4.723   4.718   8.591 -0.6905 -1.8838 -1.0509
21582SOL     OW66899   2.819   8.511   5.788  0.3434  0.3046 -0.1487
21582SOL    HW166900   2.800   8.420   5.811  0.2074  0.2572 -0.4404
21582SOL    HW266901   2.772   8.563   5.853 -0.7631  0.1901 -0.8268
21583SOL     OW66902   8.982   8.678   6.796 -0.2364 -0.0885 -0.0281
21583SOL    HW166903   8.893   8.677   6.760 -0.9346  0.1286  1.6421
21583SOL    HW266904   9.005   8.585   6.804 -1.0377 -0.1941  1.2328
21584SOL     OW66905   1.442   8.121   2.745  0.3355  0.0308  0.3716
21584SOL    HW166906   1.515   8.108   2.806 -1.5806 -2.8434  2.3561
21584SOL    HW266907   1.378   8.055   2.771 -2.5135  1.6167 -1.9986
21585SOL     OW66908   8.266   0.895   8.992  0.2148  0.3557  0.0259
21585SOL    HW166909   8.209   0.963   8.955  1.0180  1.3724  0.5945
21585SOL    HW266910   8.354   0.919   8.962  0.5550 -0.2578  0.5055
21586SOL     OW66911   8.402   7.245   3.100 -0.2657 -0.2040  0.4525
21586SOL    HW166912   8.308   7.240   3.114 -0.1599 -1.5966  0.7158
21586SOL    HW266913   8.424   7.336   3.122 -1.4842  0.0512  0.6894
21587SOL     OW66914   9.240   6.246   6.277 -0.1639 -0.2500  0.1114
21587SOL    HW166915   9.224   6.280   6.189 -2.5140 -0.5419  0.3545
21587SOL    HW266916   9.190   6.304   6.335 -0.4608 -1.3556  0.9968
21588SOL     OW66917   0.459   4.293   0.868  0.0495  0.4676 -0.3822
21588SOL    HW166918   0.400   4.285   0.943 -0.6813 -0.3522 -1.0192
21588SOL    HW266919   0.401   4.313   0.794  0.5401 -0.4189 -1.0311
21589SOL     OW66920   5.766   2.716   9.276  0.2602 -0.2909  0.0029
21589SOL    HW166921   5.743   2.747   9.364  1.1293 -1.5361  0.7000
21589SOL    HW266922   5.684   2.685   9.239  0.1170 -1.0681  0.9359
21590SOL     OW66923   3.894   5.260   0.014  0.8608 -0.5797 -0.5485
21590SOL    HW166924   3.818   5.217   0.052  1.3986 -1.9516 -0.9732
21590SOL    HW266925   3.969   5.223   0.059  1.3454 -0.0164 -0.8620
21591SOL     OW66926   1.053   7.497   5.762  0.0611  0.2560  0.7690
21591SOL    HW166927   1.017   7.479   5.675  0.8869 -0.5362  0.5704
21591SOL    HW266928   0.977   7.519   5.816 -0.4919  0.5072 -0.0859
21592SOL     OW66929   1.852   4.788   3.346 -1.3178 -1.1465  0.1456
21592SOL    HW166930   1.864   4.824   3.258 -0.9480  1.5993  1.2075
21592SOL    HW266931   1.938   4.752   3.368 -0.7761  0.0464  0.1048
21593SOL     OW66932   3.311   3.519   2.789 -0.2580 -0.3442 -0.8592
21593SOL    HW166933   3.337   3.545   2.877  1.1321 -0.1517 -1.2968
21593SOL    HW266934   3.276   3.600   2.750  0.2924 -0.1221 -0.8941
21594SOL     OW66935   3.351   8.234   6.987  1.2813 -0.0468 -0.5192
21594SOL    HW166936   3.371   8.328   6.986  0.3575  0.1654 -0.4101
21594SOL    HW266937   3.401   8.197   6.915  0.1654  0.8686 -1.8122
21595SOL     OW66938   7.886   0.806   3.088  0.9486  0.0674  0.4303
21595SOL    HW166939   7.922   0.732   3.137  0.3297  0.4134  1.4482
21595SOL    HW266940   7.962   0.862   3.071  1.0493  0.3876  1.8168
21596SOL     OW66941   9.470   5.379   1.409  0.1402 -0.1298  0.1180
21596SOL    HW166942   9.534   5.416   1.349  1.4265 -1.5459  0.5751
21596SOL    HW266943   9.452   5.292   1.375 -0.2259 -0.3905  0.9603
21597SOL     OW66944   7.872   4.766   7.168  0.2569 -0.6157 -0.0278
21597SOL    HW166945   7.801   4.705   7.189  0.4503 -1.3838 -1.4628
21597SOL    HW266946   7.925   4.769   7.247 -0.7510 -0.9201  0.6795
21598SOL     OW66947   6.843   6.567   6.340 -0.4039  0.4685 -0.7419
21598SOL    HW166948   6.879   6.502   6.399 -0.3220  0.1446 -1.1439
21598SOL    HW266949   6.917   6.626   6.322 -0.8092  1.4394  0.6428
21599SOL     OW66950   4.244   0.302   4.972  0.0375  0.3141  0.1071
21599SOL    HW166951   4.308   0.335   4.908  1.3022  0.9098  1.6150
21599SOL    HW266952   4.297   0.258   5.039 -1.4851 -3.5264 -0.9696
21600SOL     OW66953   8.186   0.883   9.340  0.2189  0.3510  0.2493
21600SOL    HW166954   8.126   0.953   9.314 -0.7982 -0.2490  0.8761
21600SOL    HW266955   8.227   0.855   9.258 -0.6966  0.4945 -0.2823
21601SOL     OW66956   9.062   2.427   9.151  0.0344 -0.0749 -0.0778
21601SOL    HW166957   8.996   2.436   9.083  0.5550 -0.0100 -0.5821
21601SOL    HW266958   9.033   2.486   9.221  1.3996  2.7975 -1.7454
21602SOL     OW66959   0.901   6.825   0.573  0.0296  0.4188  0.0196
21602SOL    HW166960   0.946   6.891   0.522  0.9535  1.2363  1.7965
21602SOL    HW266961   0.938   6.832   0.661 -1.8531 -0.5330  0.9749
21603SOL     OW66962   0.700   0.011   5.819  0.4744  0.0006  0.3133
21603SOL    HW166963   0.669   0.091   5.862 -0.9797 -0.2618 -0.2030
21603SOL    HW266964   0.782   0.037   5.777 -0.1806  1.3462 -0.2093
21604SOL     OW66965   0.599   8.291   8.293  0.5268  0.5552 -0.1421
21604SOL    HW166966   0.628   8.380   8.314 -0.8337  0.6050  1.8838
21604SOL    HW266967   0.676   8.236   8.309  0.8958  1.1949  0.3044
21605SOL     OW66968   0.377   6.087   9.543  0.6004 -0.0604 -0.5062
21605SOL    HW166969   0.462   6.077   9.585  0.1281 -0.4092  0.3979
21605SOL    HW266970   0.338   6.000   9.547 -0.3850  0.3955  0.4114
21606SOL     OW66971   3.113   0.058   1.309  0.3994  0.0724  0.5287
21606SOL    HW166972   3.170   0.051   1.386  0.4388 -1.4056  0.4023
21606SOL    HW266973   3.165   0.106   1.245  1.9803 -2.1431  0.0477
21607SOL     OW66974   8.720   6.385   7.665 -0.3538  0.0720  0.1187
21607SOL    HW166975   8.788   6.432   7.713 -0.8099  1.2969 -0.4021
21607SOL    HW266976   8.707   6.436   7.586 -1.8893 -0.1488  0.2045
21608SOL     OW66977   2.744   7.880   3.264 -0.2463 -0.1310 -0.0925
21608SOL    HW166978   2.779   7.968   3.279 -2.1958  0.4516  1.4757
21608SOL    HW266979   2.695   7.887   3.182 -0.1127  0.1312 -0.1506
21609SOL     OW66980   3.983   7.450   0.416 -0.0302 -0.4533 -0.5041
21609SOL    HW166981   4.078   7.446   0.416 -0.0037 -1.2720 -2.8073
21609SOL    HW266982   3.963   7.536   0.378 -0.2186 -0.3522 -0.1805
21610SOL     OW66983   4.868   4.564   0.455 -1.3398  0.2188 -0.7015
21610SOL    HW166984   4.796   4.567   0.393 -0.3536 -0.9850 -1.9440
21610SOL    HW266985   4.947   4.565   0.401 -0.4258  0.2399  0.5806
21611SOL     OW66986   5.178   5.722   1.657  0.6797  0.0977  0.1794
21611SOL    HW166987   5.098   5.679   1.688 -0.3145  1.3910 -0.5180
21611SOL    HW266988   5.248   5.659   1.677 -0.7024 -1.8775 -0.8331
21612SOL     OW66989   6.398   7.726   0.802 -0.1918  0.3385 -0.0155
21612SOL    HW166990   6.378   7.729   0.709  0.2798  1.4872 -0.0928
21612SOL    HW266991   6.441   7.641   0.815 -0.3752  0.1208 -0.8188
21613SOL     OW66992   6.025   2.040   6.501 -0.4253  0.6131  0.1468
21613SOL    HW166993   5.931   2.056   6.509 -0.6546 -0.2186 -0.7115
21613SOL    HW266994   6.034   1.945   6.508  0.1067  0.4783 -1.8826
21614SOL     OW66995   2.418   9.394   3.774  0.1906 -0.1185 -0.2613
21614SOL    HW166996   2.413   9.341   3.854 -0.6532  2.0146  1.2031
21614SOL    HW266997   2.339   9.371   3.725  0.0172 -0.4869  0.1817
21615SOL     OW66998   4.667   7.818   5.831  0.1841 -0.1375 -0.2000
21615SOL    HW166999   4.658   7.802   5.737  1.3256 -1.3956 -0.1194
21615SOL    HW267000   4.651   7.912   5.841 -0.7771 -0.1246 -1.5268
21616SOL     OW67001   7.394   4.408   7.165 -0.9152 -0.3424  0.1294
21616SOL    HW167002   7.383   4.470   7.093  0.6090  1.2104  1.1616
21616SOL    HW267003   7.439   4.334   7.126 -0.4437  0.3136 -0.6100
21617SOL     OW67004   4.850   1.367   6.525 -0.3450 -0.1376 -0.0126
21617SOL    HW167005   4.776   1.312   6.549 -1.3743  0.5296 -1.4408
21617SOL    HW267006   4.927   1.321   6.557 -1.2875 -1.5579  0.2863
21618SOL     OW67007   1.603   6.363   9.585  0.0431 -0.0705 -0.1674
21618SOL    HW167008   1.671   6.296   9.578  0.2014  0.0065  0.5529
21618SOL    HW267009   1.626   6.429   9.520  0.0428 -0.5808 -0.6881
21619SOL     OW67010   1.683   7.636   3.246  0.2540  0.1980  0.4069
21619SOL    HW167011   1.706   7.714   3.297 -0.2266 -0.5717  1.8424
21619SOL    HW267012   1.667   7.568   3.311 -1.1125 -0.6349 -0.7480
21620SOL     OW67013   8.356   7.466   4.464 -0.3443 -0.0826 -0.0958
21620SOL    HW167014   8.291   7.536   4.462  0.5848  0.8181  0.6267
21620SOL    HW267015   8.441   7.511   4.469  0.2460 -1.2384  1.0300
21621SOL     OW67016   9.624   6.884   5.428  0.0562  0.1501 -0.0045
21621SOL    HW167017   9.705   6.933   5.444 -0.0280 -0.0297  1.0760
21621SOL    HW267018   9.587   6.871   5.515 -1.0729  0.1153 -0.4800
21622SOL     OW67019   3.748   5.634   1.814  0.9691  0.3678  0.0018
21622SOL    HW167020   3.734   5.641   1.720 -0.0297 -1.4026 -0.0263
21622SOL    HW267021   3.814   5.566   1.824  0.6633  0.1439  0.5826
21623SOL     OW67022   3.099   1.572   5.748  0.0396 -0.1829 -0.2319
21623SOL    HW167023   3.117   1.480   5.766  0.9407 -0.0011 -0.1516
21623SOL    HW267024   3.100   1.614   5.834 -0.1852 -0.0624 -0.2865
21624SOL     OW67025   1.971   0.822   7.428 -0.0310 -0.1500 -0.0847
21624SOL    HW167026   2.002   0.738   7.395  1.7531  0.2610  0.4636
21624SOL    HW267027   1.958   0.808   7.522  2.3657  0.6927  0.4439
21625SOL     OW67028   7.574   6.436   6.638 -0.3941  0.4469  0.6139
21625SOL    HW167029   7.632   6.509   6.659 -1.9204  2.0463 -0.4345
21625SOL    HW267030   7.622   6.358   6.665  0.7421  1.8941  3.0306
21626SOL     OW67031   3.389   9.227   1.820  0.6289  0.1923  0.7092
21626SOL    HW167032   3.480   9.208   1.797 -0.2135 -2.6964 -0.6202
21626SOL    HW267033   3.338   9.156   1.782 -2.3439  2.1494  0.6401
21627SOL     OW67034   1.374   9.045   9.442 -0.0198 -0.0814  0.6282
21627SOL    HW167035   1.449   9.106   9.446  0.1879 -0.3503  0.8263
21627SOL    HW267036   1.303   9.097   9.404  0.5287 -0.0829 -0.4331
21628SOL     OW67037   4.353   0.781   9.612 -0.4523  0.1816 -0.5458
21628SOL    HW167038   4.414   0.818   9.677 -1.8930  0.1668  0.8819
21628SOL    HW267039   4.349   0.688   9.633 -1.5177  0.3072 -0.1130
21629SOL     OW67040   5.792   7.398   3.344 -0.2750  0.0006 -0.4624
21629SOL    HW167041   5.861   7.465   3.347 -0.1608 -0.1120 -0.5598
21629SOL    HW267042   5.789   7.371   3.252 -0.1918 -0.2594 -0.3891
21630SOL     OW67043   1.689   3.428   5.833 -0.2894  0.3094 -0.2435
21630SOL    HW167044   1.683   3.371   5.910  0.1579  1.6437  0.8286
21630SOL    HW267045   1.779   3.415   5.801 -0.1353  0.5318  0.0950
21631SOL     OW67046   5.431   0.821   2.004  0.1204  0.1428 -0.3837
21631SOL    HW167047   5.492   0.808   1.931  0.4644  1.1322 -0.2864
21631SOL    HW267048   5.345   0.801   1.967  0.4988 -1.5819 -0.4407
21632SOL     OW67049   8.692   5.016   1.269  0.1452 -0.3535  0.3553
21632SOL    HW167050   8.698   5.042   1.177 -1.8072  1.7543  0.7342
21632SOL    HW267051   8.685   4.921   1.266 -0.8626 -0.2834 -1.7579
21633SOL     OW67052   7.112   1.889   2.466  0.1125  0.3055 -0.2315
21633SOL    HW167053   7.192   1.901   2.517 -0.4914  0.9625  0.5772
21633SOL    HW267054   7.042   1.920   2.523 -0.4802  2.1390 -1.8534
21634SOL     OW67055   8.802   8.056   5.371  0.0574  0.0855 -0.5083
21634SOL    HW167056   8.786   8.143   5.335  1.8761  0.9754  0.7078
21634SOL    HW267057   8.877   8.023   5.322  0.4070 -0.1151  0.1489
21635SOL     OW67058   5.940   6.413   4.658 -0.1510 -0.5855  0.2063
21635SOL    HW167059   5.878   6.483   4.639  0.0881 -0.2543  0.6313
21635SOL    HW267060   5.932   6.397   4.752  2.2042  1.2616  0.8258
21636SOL     OW67061   2.665   2.041   4.208  0.1083 -0.3160 -0.8388
21636SOL    HW167062   2.646   1.953   4.241  0.2953 -0.1493 -0.2688
21636SOL    HW267063   2.582   2.088   4.215  0.3088 -0.0788  0.0659
21637SOL     OW67064   2.856   7.473   6.588 -0.0584  0.0360  0.5739
21637SOL    HW167065   2.799   7.550   6.597  0.1017  0.1315  0.7640
21637SOL    HW267066   2.942   7.503   6.616 -0.0246 -0.2496  0.7751
21638SOL     OW67067   7.006   9.089   9.232  0.0452 -0.3076  0.0080
21638SOL    HW167068   7.038   9.103   9.321  1.4752  0.3450 -0.5960
21638SOL    HW267069   6.927   9.143   9.227  0.5750  0.5460  0.5316
21639SOL     OW67070   7.675   4.154   1.499  0.0302  0.3456  0.1184
21639SOL    HW167071   7.669   4.167   1.594 -1.6820  0.7047 -0.0141
21639SOL    HW267072   7.684   4.059   1.489  1.2693  0.3848  0.6543
21640SOL     OW67073   4.451   0.962   2.123  0.0436 -0.5913 -0.5578
21640SOL    HW167074   4.379   0.954   2.186 -1.8903  0.8804 -2.4464
21640SOL    HW267075   4.515   1.017   2.167 -0.2965 -1.2610  0.8666
21641SOL     OW67076   4.719   3.600   1.490  0.0276 -0.4972 -0.1310
21641SOL    HW167077   4.671   3.643   1.561  0.0210  0.0007 -0.4331
21641SOL    HW267078   4.653   3.545   1.448 -0.5990  1.0472 -1.2545
21642SOL     OW67079   4.950   9.348   8.090  0.1669 -0.4288  0.0940
21642SOL    HW167080   4.870   9.390   8.123  0.2720 -0.9652  1.0838
21642SOL    HW267081   4.977   9.402   8.016 -0.4507  0.4528  0.4924
21643SOL     OW67082   7.197   6.151   5.810 -0.1126 -0.0879 -0.3545
21643SOL    HW167083   7.190   6.149   5.905  1.3476 -2.2817 -0.2322
21643SOL    HW267084   7.184   6.060   5.782 -0.2522  0.4574 -2.2452
21644SOL     OW67085   3.838   7.345   2.256  0.1810  0.2968 -0.4620
21644SOL    HW167086   3.881   7.266   2.223  0.9648 -0.3844  1.9423
21644SOL    HW267087   3.845   7.408   2.185  0.2504 -1.5272 -2.1585
21645SOL     OW67088   1.778   1.666   1.864 -0.3170 -0.3199 -0.1775
21645SOL    HW167089   1.857   1.643   1.912  0.3014  0.7181 -0.6527
21645SOL    HW267090   1.706   1.645   1.923  0.1564 -3.2661 -0.5141
21646SOL     OW67091   6.391   8.993   0.146 -0.4170  0.1396 -0.4956
21646SOL    HW167092   6.442   9.008   0.066  0.7114  1.0649  0.3678
21646SOL    HW267093   6.372   8.899   0.145  1.2424 -0.2119 -0.8979
21647SOL     OW67094   2.415   7.134   1.346 -0.5699 -0.3268 -0.0815
21647SOL    HW167095   2.466   7.055   1.366  1.5447  1.3349  1.6289
21647SOL    HW267096   2.479   7.195   1.309 -1.6769  1.2937  0.5878
21648SOL     OW67097   8.996   0.692   5.276  0.1408  0.7776  0.4989
21648SOL    HW167098   9.086   0.659   5.269  0.1894  1.2207 -2.0191
21648SOL    HW267099   9.005   0.787   5.269 -0.3233  1.1164  3.4821
21649SOL     OW67100   7.816   1.037   0.569  0.0534 -0.0572 -0.1902
21649SOL    HW167101   7.805   1.005   0.659 -2.6181  1.1201 -0.0225
21649SOL    HW267102   7.819   0.957   0.516  2.0495 -0.7839  0.8977
21650SOL     OW67103   3.777   8.347   0.839  0.2737 -0.3541 -0.0251
21650SOL    HW167104   3.763   8.320   0.748 -1.1735  0.2390 -0.0045
21650SOL    HW267105   3.730   8.430   0.847  2.8627  1.1601  0.4800
21651SOL     OW67106   4.629   1.273   6.171  0.5983 -0.2105 -0.4947
21651SOL    HW167107   4.650   1.327   6.095 -0.8348 -0.3739 -1.0416
21651SOL    HW267108   4.656   1.325   6.246 -3.2339  2.6631 -0.8038
21652SOL     OW67109   6.484   6.845   5.951 -0.0483 -0.3535  0.6012
21652SOL    HW167110   6.571   6.847   5.912  0.2418 -0.4153  1.2374
21652SOL    HW267111   6.495   6.800   6.034 -0.4947  0.5400  1.1629
21653SOL     OW67112   9.616   4.050   3.223 -0.1228  0.2524  0.6768
21653SOL    HW167113   9.706   4.018   3.213 -0.0236  1.0240 -1.1978
21653SOL    HW267114   9.562   3.971   3.225  0.4574 -0.1569  0.2345
21654SOL     OW67115   4.002   7.485   3.492  0.4105  0.3824  0.0124
21654SOL    HW167116   4.024   7.421   3.425  2.0002  1.5019 -0.5965
21654SOL    HW267117   3.938   7.441   3.547  1.6335 -1.8455 -0.2155
21655SOL     OW67118   0.605   8.662   0.844 -0.3955 -0.5208 -0.2523
21655SOL    HW167119   0.622   8.586   0.899 -0.7454 -0.1331  0.4060
21655SOL    HW267120   0.625   8.737   0.900  1.5646 -0.1043 -1.4170
21656SOL     OW67121   9.048   7.205   4.275  0.2744  0.3936 -0.0344
21656SOL    HW167122   9.058   7.301   4.271 -1.2013  0.6514  1.4902
21656SOL    HW267123   9.023   7.180   4.186 -1.5539  1.7521  0.0356
21657SOL     OW67124   5.970   4.726   5.110 -0.3097  0.0532 -0.3232
21657SOL    HW167125   5.927   4.800   5.066  0.5594  0.9321  0.2792
21657SOL    HW267126   5.911   4.652   5.094 -0.8137  0.6935 -1.6005
21658SOL     OW67127   5.038   4.547   1.464 -0.3590 -0.4526  0.1776
21658SOL    HW167128   5.010   4.638   1.454 -2.1897 -1.0617 -0.6258
21658SOL    HW267129   5.018   4.525   1.555  1.1623  0.2437  0.7222
21659SOL     OW67130   5.918   7.427   8.851  0.6379  0.1650  0.2156
21659SOL    HW167131   5.935   7.434   8.944  1.7673 -1.8886  0.2131
21659SOL    HW267132   5.993   7.379   8.816 -1.5733 -2.6969 -1.0551
21660SOL     OW67133   5.305   1.915   8.142  0.0488  0.1385 -0.2809
21660SOL    HW167134   5.303   1.894   8.049  1.5811  0.7194 -0.4739
21660SOL    HW267135   5.284   2.008   8.146  1.6357  0.5317 -0.2432
21661SOL     OW67136   4.383   8.392   7.864  0.7195  0.1597  0.1729
21661SOL    HW167137   4.454   8.328   7.869  1.6704  1.1626 -0.0055
21661SOL    HW267138   4.352   8.401   7.954 -0.7969 -1.9862 -0.0544
21662SOL     OW67139   8.909   4.619   8.754 -0.5449  0.0741  0.2421
21662SOL    HW167140   8.883   4.529   8.776 -1.1313  0.3322  0.6038
21662SOL    HW267141   8.832   4.658   8.714 -0.3713  0.5020  0.3175
21663SOL     OW67142   8.893   1.931   8.928  0.0034 -0.4186  0.2669
21663SOL    HW167143   8.825   1.921   8.861 -0.1316  1.1081  0.1362
21663SOL    HW267144   8.845   1.950   9.008  0.2258  1.8815 -0.0543
21664SOL     OW67145   8.846   1.707   0.624  0.1409  0.5212 -0.0785
21664SOL    HW167146   8.867   1.771   0.692  0.3191  2.1320 -1.5886
21664SOL    HW267147   8.780   1.750   0.570 -1.2231 -1.3714 -0.0152
21665SOL     OW67148   5.166   7.283   7.393 -0.0315 -0.1414 -0.2540
21665SOL    HW167149   5.244   7.252   7.438 -0.9418  0.8179  2.1433
21665SOL    HW267150   5.093   7.256   7.449 -1.1683  2.0570 -0.5442
21666SOL     OW67151   8.676   0.365   2.052  0.6764  0.3036 -0.7774
21666SOL    HW167152   8.737   0.401   1.987  1.3398  0.5229 -0.0528
21666SOL    HW267153   8.728   0.359   2.132  0.0400 -0.5232 -0.4143
21667SOL     OW67154   5.452   4.299   4.176 -0.0207 -0.3179  0.7000
21667SOL    HW167155   5.411   4.213   4.169  1.3229 -0.9492  0.3256
21667SOL    HW267156   5.379   4.359   4.193 -1.3193 -1.1813 -1.3780
21668SOL     OW67157   0.797   8.493   7.100 -0.1151 -0.7770  0.3582
21668SOL    HW167158   0.751   8.483   7.017 -0.1355 -0.2938  0.3110
21668SOL    HW267159   0.777   8.413   7.148 -1.3147 -0.4007  0.4978
21669SOL     OW67160   1.000   2.523   7.055 -0.2638 -0.0529  0.0452
21669SOL    HW167161   1.070   2.553   7.112  0.7666 -1.6859 -0.2830
21669SOL    HW267162   1.005   2.579   6.978  1.2327 -0.6521 -0.3289
21670SOL     OW67163   6.226   7.831   6.041 -0.4501 -0.2230 -0.0253
21670SOL    HW167164   6.276   7.830   5.959 -0.2924 -1.7117  0.0703
21670SOL    HW267165   6.292   7.846   6.109 -0.4608  0.1215 -0.0873
21671SOL     OW67166   1.505   3.929   3.349 -0.0374  0.2171 -0.5890
21671SOL    HW167167   1.451   3.947   3.425 -0.8416  1.4945 -1.4115
21671SOL    HW267168   1.594   3.951   3.376  0.2083 -2.3054  0.9116
21672SOL     OW67169   4.626   7.424   4.982  0.1978 -0.1170  0.4326
21672SOL    HW167170   4.600   7.509   5.018 -1.5003  1.0551 -3.0988
21672SOL    HW267171   4.543   7.380   4.962  1.0592 -1.5770 -0.1149
21673SOL     OW67172   2.079   5.149   0.194  0.7295 -0.3931  0.2598
21673SOL    HW167173   2.017   5.220   0.178  1.4115  0.1313 -0.0858
21673SOL    HW267174   2.165   5.191   0.193  1.0664 -1.0219  1.2798
21674SOL     OW67175   7.682   8.020   0.836 -0.2929  0.2041 -0.4074
21674SOL    HW167176   7.614   8.036   0.771 -1.1648  4.2061  1.1859
21674SOL    HW267177   7.645   7.953   0.894 -1.3783 -0.1646 -1.5005
21675SOL     OW67178   2.394   4.523   7.429  0.8435 -0.9442 -0.6409
21675SOL    HW167179   2.308   4.565   7.426  0.8359 -0.7630  1.0203
21675SOL    HW267180   2.432   4.540   7.343  0.3450  1.4766 -0.4561
21676SOL     OW67181   6.143   6.768   0.727 -0.8029  0.3597  0.1865
21676SOL    HW167182   6.128   6.802   0.639  0.7010  0.9557  0.1282
21676SOL    HW267183   6.071   6.803   0.779 -0.5157  1.8266 -0.3550
21677SOL     OW67184   4.357   2.781   9.278 -0.2169 -0.1313 -0.2019
21677SOL    HW167185   4.323   2.860   9.237 -0.9139  0.8280  2.0629
21677SOL    HW267186   4.368   2.804   9.370  1.0189 -2.2287  0.2569
21678SOL     OW67187   6.284   3.399   5.702  0.5032 -0.0088  0.4546
21678SOL    HW167188   6.346   3.394   5.630  0.3163  0.2164  0.2747
21678SOL    HW267189   6.289   3.314   5.745 -0.9700 -0.9628 -1.1301
21679SOL     OW67190   3.408   8.523   3.690  0.7047 -0.7341 -0.1696
21679SOL    HW167191   3.418   8.619   3.688  1.6749 -0.8287 -1.5611
21679SOL    HW267192   3.485   8.492   3.737  1.1290 -0.8748 -0.9289
21680SOL     OW67193   1.533   7.705   0.303 -0.2141 -0.7900 -0.1925
21680SOL    HW167194   1.564   7.701   0.394  1.3708  3.0782 -0.3797
21680SOL    HW267195   1.582   7.635   0.259  2.2172 -0.1043  1.1925
21681SOL     OW67196   6.372   7.627   7.299  0.5092 -0.1648 -0.8628
21681SOL    HW167197   6.291   7.611   7.251  0.5301 -0.0699 -0.9290
21681SOL    HW267198   6.419   7.544   7.295 -0.8530 -1.1642  1.6142
21682SOL     OW67199   2.214   6.007   4.222 -0.0480 -0.0523  0.2255
21682SOL    HW167200   2.254   5.950   4.288 -0.4437 -0.7416 -0.1211
21682SOL    HW267201   2.134   6.038   4.263 -1.4986 -2.3132 -0.7293
21683SOL     OW67202   4.462   0.619   4.587  0.1461 -0.2500  0.4141
21683SOL    HW167203   4.406   0.668   4.526 -0.0519  0.5220  1.1986
21683SOL    HW267204   4.551   0.646   4.563  0.3488 -2.3993 -1.6461
21684SOL     OW67205   5.260   8.736   0.143 -0.1400  0.7601  0.5101
21684SOL    HW167206   5.173   8.725   0.182 -1.0394  0.6521 -1.4245
21684SOL    HW267207   5.316   8.762   0.216 -1.5434 -0.2624  2.0307
21685SOL     OW67208   4.574   6.623   8.216 -0.0943 -0.2938  0.1991
21685SOL    HW167209   4.584   6.639   8.122 -1.1793 -2.0786 -0.2635
21685SOL    HW267210   4.503   6.559   8.222 -0.3721  0.1483  2.2775
21686SOL     OW67211   4.320   5.176   4.397 -0.2240 -0.8860  0.2243
21686SOL    HW167212   4.291   5.133   4.317 -1.5063 -1.5870  1.0328
21686SOL    HW267213   4.352   5.262   4.368  0.4204 -1.5685 -1.1574
21687SOL     OW67214   6.953   3.239   5.302 -0.6804 -0.1509  0.0055
21687SOL    HW167215   7.025   3.195   5.256 -0.5550 -0.5660  0.5892
21687SOL    HW267216   6.884   3.247   5.236  0.1553  0.8979 -0.7671
21688SOL     OW67217   4.691   6.966   7.611 -0.4790 -0.9079  0.2666
21688SOL    HW167218   4.691   6.877   7.576  3.6769 -0.7262 -0.7536
21688SOL    HW267219   4.750   6.962   7.686  0.2809  1.0508 -0.1669
21689SOL     OW67220   4.245   6.486   1.658 -0.5285 -0.9693 -0.2568
21689SOL    HW167221   4.249   6.461   1.565  1.0742 -1.9182  0.0257
21689SOL    HW267222   4.171   6.547   1.663  0.1091  0.1132 -2.4077
21690SOL     OW67223   4.181   6.434   5.834  0.1639  0.3716  0.3494
21690SOL    HW167224   4.090   6.407   5.827  0.6031 -1.0381 -0.2737
21690SOL    HW267225   4.195   6.493   5.760  1.1287 -3.6983 -3.0950
21691SOL     OW67226   1.720   0.588   4.317 -0.0412  0.6647  0.7227
21691SOL    HW167227   1.803   0.593   4.270 -0.1146 -1.1966  0.3046
21691SOL    HW267228   1.658   0.636   4.262 -0.0613 -1.2245 -1.0421
21692SOL     OW67229   8.433   5.811   1.148  0.5672  0.5847 -0.2390
21692SOL    HW167230   8.504   5.860   1.189 -0.3902 -0.2063  2.5793
21692SOL    HW267231   8.465   5.721   1.144  0.6732  0.6523 -1.4181
21693SOL     OW67232   4.835   7.681   6.216 -0.3607 -0.1234 -0.2390
21693SOL    HW167233   4.875   7.665   6.130 -0.1524 -0.8655 -0.0151
21693SOL    HW267234   4.753   7.632   6.214 -1.3520  1.4700 -0.7300
21694SOL     OW67235   1.194   1.509   2.790 -0.3965 -0.1347 -0.1515
21694SOL    HW167236   1.281   1.468   2.790 -0.8798 -1.1951  0.3413
21694SOL    HW267237   1.183   1.542   2.701  0.2754 -0.5039 -0.3825
21695SOL     OW67238   3.406   3.329   9.549 -0.4631  0.1649  0.2969
21695SOL    HW167239   3.334   3.385   9.521 -1.4203 -1.5516 -0.8608
21695SOL    HW267240   3.481   3.360   9.500 -1.1139  0.0738 -0.7850
21696SOL     OW67241   7.908   6.229   9.125  0.0555 -0.2106 -0.4576
21696SOL    HW167242   7.960   6.309   9.130  1.7399 -1.2762 -0.4176
21696SOL    HW267243   7.842   6.240   9.194 -0.0954  1.3519 -0.8082
21697SOL     OW67244   3.395   8.785   5.722  0.1903 -0.4426  0.6938
21697SOL    HW167245   3.389   8.780   5.818 -0.4637 -0.2995  0.6686
21697SOL    HW267246   3.349   8.706   5.691  0.5783 -0.5948  0.4983
21698SOL     OW67247   2.624   7.198   6.636  0.0050  0.0948  0.0358
21698SOL    HW167248   2.681   7.209   6.560  0.3479  0.8242  0.3844
21698SOL    HW267249   2.677   7.151   6.700  0.9593  2.4734  1.1025
21699SOL     OW67250   6.623   9.612   8.956  0.2852 -0.3019  0.0946
21699SOL    HW167251   6.631   9.691   8.902  0.8271  1.1819  2.2096
21699SOL    HW267252   6.536   9.619   8.996  0.4465 -0.6468  0.5097
21700SOL     OW67253   3.816   2.454   2.203 -0.2615  0.0423 -0.2291
21700SOL    HW167254   3.838   2.361   2.196 -0.7812  0.0436 -2.8264
21700SOL    HW267255   3.722   2.456   2.222  0.0691  0.0895  1.6222
21701SOL     OW67256   1.969   1.131   6.846  0.2398 -0.5080  0.1284
21701SOL    HW167257   2.052   1.175   6.825 -0.2287  0.7445  0.8142
21701SOL    HW267258   1.907   1.164   6.781 -0.1620  0.0132  0.7620
21702SOL     OW67259   1.745   8.769   4.900  0.0404  0.5581  0.5501
21702SOL    HW167260   1.804   8.797   4.970  2.2686 -0.2530 -0.8963
21702SOL    HW267261   1.708   8.687   4.932  0.0179  0.8532  1.3029
21703SOL     OW67262   3.650   1.831   2.407  0.1357 -0.0158  0.5034
21703SOL    HW167263   3.741   1.803   2.418  0.8647  1.2929 -1.4811
21703SOL    HW267264   3.636   1.897   2.474  0.5464 -0.4193  0.9941
21704SOL     OW67265   6.021   9.393   6.446  0.7014  0.5236 -0.3193
21704SOL    HW167266   6.029   9.488   6.441  0.4694  0.4956 -1.5363
21704SOL    HW267267   6.077   9.360   6.375  2.4422 -0.3604  1.3731
21705SOL     OW67268   2.618   2.906   8.956 -0.2701  0.1448  0.1461
21705SOL    HW167269   2.591   2.988   8.998 -2.8812  0.0229 -1.1103
21705SOL    HW267270   2.580   2.837   9.010  1.1989 -0.2687  0.7138
21706SOL     OW67271   8.967   4.316   4.111  0.2661 -0.3709  0.6800
21706SOL    HW167272   8.987   4.380   4.178 -1.5943  0.8909  0.1072
21706SOL    HW267273   8.871   4.317   4.104  0.2243 -2.6347  0.0813
21707SOL     OW67274   8.352   1.970   6.401 -0.0621 -0.3230 -0.2477
21707SOL    HW167275   8.273   2.008   6.364  1.5034  1.6298 -1.8193
21707SOL    HW267276   8.333   1.962   6.495 -0.6984  4.4262  0.3150
21708SOL     OW67277   1.039   2.671   5.121 -0.0300  0.0563 -0.5398
21708SOL    HW167278   0.979   2.630   5.059  0.7832 -1.2487 -0.5021
21708SOL    HW267279   1.115   2.695   5.069  0.1226  0.1415 -0.2798
21709SOL     OW67280   9.502   2.498   1.277  0.0492 -0.1491  0.1184
21709SOL    HW167281   9.448   2.493   1.198 -0.0487 -1.3842  0.2381
21709SOL    HW267282   9.487   2.586   1.310 -1.3834 -0.2261 -0.2293
21710SOL     OW67283   3.773   3.122   8.738  0.6125  0.3207  0.1801
21710SOL    HW167284   3.792   3.136   8.646 -1.4235 -1.9642 -0.7052
21710SOL    HW267285   3.817   3.040   8.760 -0.8256 -0.3892  0.5302
21711SOL     OW67286   7.240   3.468   2.200 -0.0290  0.1407 -0.0956
21711SOL    HW167287   7.248   3.503   2.288 -0.0849  0.5422 -0.2468
21711SOL    HW267288   7.146   3.455   2.188 -0.0171  0.0395 -0.0762
21712SOL     OW67289   0.604   5.813   5.765 -1.2365 -0.4977  0.0465
21712SOL    HW167290   0.700   5.810   5.772 -1.1641 -0.1893 -0.7142
21712SOL    HW267291   0.573   5.767   5.843 -0.4882  0.5731  1.0152
21713SOL     OW67292   8.375   4.135   4.001  0.2451 -0.0479 -0.3463
21713SOL    HW167293   8.341   4.055   4.041 -0.9816 -0.4147 -2.0262
21713SOL    HW267294   8.462   4.145   4.039 -0.2745 -1.1749  1.2486
21714SOL     OW67295   0.109   2.085   4.639  0.3947 -0.0956  0.5048
21714SOL    HW167296   0.122   2.178   4.656 -0.0388  0.2683 -1.0026
21714SOL    HW267297   0.051   2.055   4.710 -1.5008  1.3596 -0.3468
21715SOL     OW67298   2.894   6.893   7.364 -0.1825  0.5960 -0.9133
21715SOL    HW167299   2.974   6.945   7.358  1.0891 -0.7474  2.1831
21715SOL    HW267300   2.923   6.808   7.399 -2.8901 -0.1494 -0.2298
21716SOL     OW67301   8.405   4.184   2.496 -0.1958 -0.5355  0.7029
21716SOL    HW167302   8.496   4.181   2.467  0.1601 -0.5890  1.7981
21716SOL    HW267303   8.370   4.264   2.457  0.8143  0.4033  1.6468
21717SOL     OW67304   8.209   3.132   2.065  0.0777  0.0236  0.3114
21717SOL    HW167305   8.133   3.159   2.014  1.5172  0.9375 -1.5027
21717SOL    HW267306   8.226   3.206   2.124 -0.7200 -0.4103  1.1092
21718SOL     OW67307   2.615   9.220   6.586  0.2252 -0.7242 -0.2653
21718SOL    HW167308   2.605   9.256   6.674  1.5668 -0.8809 -0.0170
21718SOL    HW267309   2.570   9.282   6.529  0.2035 -0.0796  0.4355
21719SOL     OW67310   6.841   7.327   1.194 -0.1191  0.4267  0.2937
21719SOL    HW167311   6.747   7.318   1.175  0.0085  0.5962 -0.4176
21719SOL    HW267312   6.845   7.398   1.259 -0.4056  1.1553 -0.4589
21720SOL     OW67313   9.581   8.115   1.232  0.7286  0.3599  0.6754
21720SOL    HW167314   9.506   8.093   1.176  1.1746 -2.0346  0.9223
21720SOL    HW267315   9.544   8.170   1.301 -0.1407  2.0008 -0.9735
21721SOL     OW67316   1.763   2.179   3.911  0.2944 -0.6818  0.2061
21721SOL    HW167317   1.831   2.152   3.849 -0.1542 -0.0567 -0.5903
21721SOL    HW267318   1.713   2.246   3.863  0.2076  0.1433  1.4192
21722SOL     OW67319   7.247   1.923   9.463  0.5628 -0.7461  0.5824
21722SOL    HW167320   7.222   1.844   9.415  0.9769 -0.4397 -0.1583
21722SOL    HW267321   7.336   1.905   9.495 -0.5364 -1.8783  3.3073
21723SOL     OW67322   7.767   9.239   6.447  0.0733  0.0206  0.5654
21723SOL    HW167323   7.698   9.219   6.383  1.7456 -1.7803 -0.8249
21723SOL    HW267324   7.727   9.219   6.532 -1.7345  1.0161  0.0026
21724SOL     OW67325   5.812   1.772   4.615 -0.3214  0.0668 -0.6187
21724SOL    HW167326   5.822   1.867   4.607 -0.3579  0.3864  2.0041
21724SOL    HW267327   5.749   1.748   4.548  0.7570  1.6418 -2.2991
21725SOL     OW67328   9.429   8.628   9.261  0.2362  0.3661  0.2749
21725SOL    HW167329   9.495   8.666   9.320  0.4015  0.7283 -0.1408
21725SOL    HW267330   9.386   8.704   9.222 -0.0412  0.1243  0.1116
21726SOL     OW67331   9.178   3.675   5.866 -0.5519 -0.1205 -0.3617
21726SOL    HW167332   9.233   3.644   5.937 -0.3882  1.6099  0.3280
21726SOL    HW267333   9.185   3.608   5.798 -0.4713 -1.6606  1.1201
21727SOL     OW67334   5.105   2.617   1.179 -0.0612 -0.0824  0.4095
21727SOL    HW167335   5.015   2.589   1.193 -0.9000  0.4184 -3.0116
21727SOL    HW267336   5.153   2.536   1.162 -0.0878 -0.2709  1.2288
21728SOL     OW67337   6.468   7.034   5.078  0.4006  0.5786 -0.6994
21728SOL    HW167338   6.531   7.016   5.008 -0.1323  0.0737 -1.0614
21728SOL    HW267339   6.505   6.991   5.155  0.3178 -0.0329 -0.9978
21729SOL     OW67340   9.195   0.587   1.659  0.3804  0.6502  0.3070
21729SOL    HW167341   9.247   0.661   1.688  2.6637 -0.5172 -0.5371
21729SOL    HW267342   9.225   0.569   1.570 -0.8170 -0.6668  0.1216
21730SOL     OW67343   3.647   0.927   5.639  0.7441  0.3401  0.4139
21730SOL    HW167344   3.708   0.922   5.566 -0.4529 -0.3427 -0.5790
21730SOL    HW267345   3.593   1.003   5.621 -0.5245 -0.6709 -0.2449
21731SOL     OW67346   9.335   8.237   2.649  0.4199  0.3723  0.4796
21731SOL    HW167347   9.428   8.241   2.624  0.1572  0.9537 -0.4386
21731SOL    HW267348   9.308   8.329   2.656 -0.4391  0.2156 -0.6298
21732SOL     OW67349   2.069   9.593   2.428 -0.1286  0.3629 -0.2284
21732SOL    HW167350   2.071   9.644   2.347  1.6818 -0.5072 -0.7903
21732SOL    HW267351   2.153   9.547   2.429  1.9189  3.4287  4.1214
21733SOL     OW67352   5.330   1.755   8.379 -0.3149 -0.2717 -0.5101
21733SOL    HW167353   5.357   1.777   8.289 -0.9008 -1.6489 -1.0444
21733SOL    HW267354   5.296   1.837   8.414  2.5016  1.0352 -0.5398
21734SOL     OW67355   3.438   2.579   1.246  0.3062 -0.6592 -0.5263
21734SOL    HW167356   3.476   2.655   1.289 -1.3594  0.1818 -0.4530
21734SOL    HW267357   3.416   2.519   1.317  2.3533 -1.6291 -0.6340
21735SOL     OW67358   7.157   7.696   6.198  0.6883  0.8374  0.2153
21735SOL    HW167359   7.179   7.603   6.198  1.1696  0.9148 -1.6646
21735SOL    HW267360   7.165   7.722   6.290  0.1473 -1.0465  0.8438
21736SOL     OW67361   2.167   2.653   2.915  0.0135  0.1594  0.1345
21736SOL    HW167362   2.198   2.583   2.972 -0.3217  1.4923  2.0304
21736SOL    HW267363   2.169   2.731   2.969 -2.5405  1.0993 -0.9375
21737SOL     OW67364   8.712   8.481   0.328 -0.3486  0.3282  0.3002
21737SOL    HW167365   8.630   8.475   0.279 -1.1941 -0.3025  1.7355
21737SOL    HW267366   8.702   8.559   0.382  0.7284  1.2303 -0.7320
21738SOL     OW67367   5.651   7.299   3.538  0.2024 -0.4294  0.4480
21738SOL    HW167368   5.618   7.382   3.572  0.6340 -0.6006  1.3241
21738SOL    HW267369   5.710   7.324   3.467 -0.8186 -0.0688 -0.2926
21739SOL     OW67370   5.866   5.738   5.236 -0.0178  0.8251 -0.2644
21739SOL    HW167371   5.827   5.823   5.220  2.0177  1.5259 -1.9274
21739SOL    HW267372   5.936   5.755   5.300  0.2605  0.3786 -0.4440
21740SOL     OW67373   0.085   5.491   9.258 -0.0406  0.0006  0.1881
21740SOL    HW167374   0.085   5.410   9.308  3.3037  0.9738  2.0714
21740SOL    HW267375   0.144   5.474   9.184  0.1684  0.4942  0.2348
21741SOL     OW67376   1.088   7.854   4.467  0.4217 -0.0108 -0.0989
21741SOL    HW167377   1.041   7.937   4.457  0.9706  0.2472 -0.6653
21741SOL    HW267378   1.052   7.798   4.398  1.9474  0.6889 -1.5577
21742SOL     OW67379   3.832   7.649   0.916 -0.3804 -0.4784 -0.2222
21742SOL    HW167380   3.881   7.643   0.833  0.5381 -0.1068  0.2733
21742SOL    HW267381   3.848   7.565   0.959 -1.8716 -1.1746 -0.9298
21743SOL     OW67382   2.926   2.806   2.523 -0.0693  0.5180  0.5697
21743SOL    HW167383   2.842   2.795   2.568 -2.1570  2.0076 -2.6459
21743SOL    HW267384   2.953   2.896   2.545 -0.8910  1.1058 -0.7300
21744SOL     OW67385   5.089   1.330   0.292 -0.4007 -0.0576 -0.5820
21744SOL    HW167386   5.059   1.240   0.275  0.3658 -0.2207 -1.1111
21744SOL    HW267387   5.026   1.385   0.245  0.0104 -0.3919 -1.5489
21745SOL     OW67388   2.248   3.432   7.569 -0.3895  0.1607 -0.4950
21745SOL    HW167389   2.180   3.428   7.636 -1.0891 -2.2013 -1.2597
21745SOL    HW267390   2.200   3.450   7.488  0.0377 -0.3427 -0.8628
21746SOL     OW67391   8.011   2.068   8.668  0.0018 -0.0054  0.3623
21746SOL    HW167392   8.049   2.152   8.695 -2.2383  1.3179 -0.4003
21746SOL    HW267393   7.976   2.084   8.581 -2.9458 -0.8710  1.2695
21747SOL     OW67394   1.860   1.481   5.390  0.1374 -0.0847  0.0012
21747SOL    HW167395   1.883   1.495   5.481 -1.6843 -1.1038  0.6677
21747SOL    HW267396   1.867   1.386   5.378 -0.6624 -0.0809 -0.6061
21748SOL     OW67397   7.831   2.530   7.442 -0.8995 -0.3928  0.2041
21748SOL    HW167398   7.798   2.546   7.353 -1.2329 -1.2274  0.1721
21748SOL    HW267399   7.842   2.435   7.447  0.4575 -0.2330  0.5981
21749SOL     OW67400   5.549   7.165   6.629  0.1566  0.9700  0.3117
21749SOL    HW167401   5.499   7.168   6.710  0.0156  3.4099  0.2012
21749SOL    HW267402   5.628   7.115   6.651 -0.2311  0.9528  1.7267
21750SOL     OW67403   8.749   2.072   0.131 -0.1928 -0.3432 -0.0470
21750SOL    HW167404   8.843   2.069   0.114 -0.1608 -1.5769  0.2568
21750SOL    HW267405   8.741   2.054   0.224 -0.7807 -1.2482 -0.2687
21751SOL     OW67406   0.466   9.389   9.323  0.4804  0.1980 -0.3264
21751SOL    HW167407   0.532   9.342   9.373  1.3505  0.9118 -0.7850
21751SOL    HW267408   0.439   9.326   9.256 -0.8058 -0.8227  1.0693
21752SOL     OW67409   7.869   4.641   3.220 -0.7881  0.0045  0.6540
21752SOL    HW167410   7.896   4.609   3.134 -0.7389 -1.8584  1.3146
21752SOL    HW267411   7.851   4.562   3.271 -1.6040  1.0715  2.1205
21753SOL     OW67412   4.536   6.271   5.483  0.2777  0.1847  0.1122
21753SOL    HW167413   4.481   6.272   5.561 -0.5408 -1.6284 -0.3893
21753SOL    HW267414   4.593   6.347   5.493 -2.8305  2.7371  0.2661
21754SOL     OW67415   0.895   2.791   2.757 -0.3000  0.3255 -0.2475
21754SOL    HW167416   0.910   2.830   2.843  0.1351 -0.0822 -0.1345
21754SOL    HW267417   0.855   2.705   2.776 -1.0327  0.6032 -0.4841
21755SOL     OW67418   7.289   3.367   3.554 -0.3540 -0.5864  0.2037
21755SOL    HW167419   7.254   3.278   3.561 -1.0693 -0.5422 -2.0527
21755SOL    HW267420   7.212   3.424   3.555 -0.1606 -0.2401 -1.3515
21756SOL     OW67421   9.290   6.676   8.985  0.0887  0.6681  0.1464
21756SOL    HW167422   9.379   6.711   8.989 -0.6597  2.6233  0.6479
21756SOL    HW267423   9.278   6.654   8.892  0.7849  1.2290 -0.0874
21757SOL     OW67424   3.919   5.450   0.840  0.6871  0.2044  0.4145
21757SOL    HW167425   3.883   5.362   0.840  0.8579  0.1234 -0.5861
21757SOL    HW267426   4.014   5.437   0.838  0.7041  0.3784 -1.5753
21758SOL     OW67427   0.287   4.084   3.895  0.5005  0.1033  0.1016
21758SOL    HW167428   0.250   4.172   3.892  0.7046  0.1695 -0.7662
21758SOL    HW267429   0.346   4.080   3.819  0.6989 -0.6856  0.2884
21759SOL     OW67430   6.794   9.255   7.299 -0.8257 -0.5318 -0.6828
21759SOL    HW167431   6.740   9.265   7.378  0.9848 -0.3927  0.6079
21759SOL    HW267432   6.884   9.248   7.333  0.1078  0.5283 -2.7909
21760SOL     OW67433   0.480   9.352   3.637 -0.0319 -0.1920  0.0902
21760SOL    HW167434   0.488   9.258   3.622  4.4352  0.2196 -1.7938
21760SOL    HW267435   0.443   9.386   3.555  0.8131 -0.1550 -0.2924
21761SOL     OW67436   5.988   8.916   5.832 -0.7193  0.3012  0.1344
21761SOL    HW167437   5.970   8.861   5.756 -3.3971  0.2294  0.7141
21761SOL    HW267438   5.943   8.872   5.905 -0.2461  1.6024  1.2623
21762SOL     OW67439   7.141   9.473   3.436 -0.5592  0.2224 -0.3674
21762SOL    HW167440   7.092   9.408   3.487 -0.7129  0.0256 -0.7614
21762SOL    HW267441   7.196   9.421   3.378  1.4698  0.3962  1.2794
21763SOL     OW67442   3.353   5.152   0.042 -0.0542  0.7170 -0.0014
21763SOL    HW167443   3.348   5.101  -0.039 -0.3857  0.2165  0.3230
21763SOL    HW267444   3.380   5.088   0.108 -0.5156  0.9483  0.4212
21764SOL     OW67445   3.128   2.646   2.483 -0.1551  0.1990  0.5843
21764SOL    HW167446   3.163   2.672   2.397  1.2336  0.5841  1.2355
21764SOL    HW267447   3.039   2.681   2.484  1.0483  3.6542  0.7577
21765SOL     OW67448   9.282   5.238   5.173 -0.4720  0.2989  0.8225
21765SOL    HW167449   9.287   5.171   5.105  2.4077  0.3079  0.9339
21765SOL    HW267450   9.239   5.195   5.247  0.8438 -1.2807  0.7021
21766SOL     OW67451   1.889   1.104   7.799  0.1356 -0.2376 -0.9234
21766SOL    HW167452   1.979   1.103   7.832 -0.1703 -1.6753 -0.0424
21766SOL    HW267453   1.892   1.049   7.721  0.1153  0.1778 -1.2230
21767SOL     OW67454   1.234   7.821   9.562 -0.1576  0.1057  0.0129
21767SOL    HW167455   1.179   7.859   9.632 -1.0659 -1.8562  0.4438
21767SOL    HW267456   1.322   7.850   9.583 -0.7533  1.7075  0.4671
21768SOL     OW67457   5.907   1.819   2.803 -0.3793  0.0619  0.0889
21768SOL    HW167458   5.952   1.755   2.858  1.2892 -1.1851 -2.5208
21768SOL    HW267459   5.846   1.863   2.863  1.2370 -1.1723  2.8770
21769SOL     OW67460   9.406   4.938   6.398 -0.2406  0.5860  0.6136
21769SOL    HW167461   9.387   4.985   6.479  0.3807  2.5613 -0.3218
21769SOL    HW267462   9.499   4.914   6.405 -0.0097  1.3476  0.2150
21770SOL     OW67463   6.961   2.229   9.162  0.3293 -0.0787  0.1847
21770SOL    HW167464   7.031   2.180   9.205  0.6219 -0.2170 -0.4397
21770SOL    HW267465   6.883   2.176   9.176  0.3913 -0.0367  0.6929
21771SOL     OW67466   6.653   7.984   9.538  0.3398  0.5868 -0.1015
21771SOL    HW167467   6.574   7.976   9.483 -1.1565  0.3440  1.9704
21771SOL    HW267468   6.707   7.909   9.513 -1.0848 -0.4915 -0.0840
21772SOL     OW67469   0.487   8.118   0.923 -0.3950  0.0402  0.0666
21772SOL    HW167470   0.578   8.146   0.931 -0.1123 -0.8865  0.1841
21772SOL    HW267471   0.443   8.192   0.881  0.3010  0.7045  0.4805
21773SOL     OW67472   1.787   0.940   8.038 -0.7304 -0.2939  0.3412
21773SOL    HW167473   1.802   0.976   7.951 -0.7642 -1.3935 -0.1406
21773SOL    HW267474   1.757   1.014   8.090 -1.5093  0.2225 -0.7943
21774SOL     OW67475   2.335   2.739   5.533 -0.3656 -0.2216  0.3308
21774SOL    HW167476   2.386   2.740   5.451 -1.5655  1.4298 -0.4564
21774SOL    HW267477   2.383   2.678   5.590  1.9661  0.5299 -0.6707
21775SOL     OW67478   0.027   8.489   0.999 -0.0834  0.1543  0.0541
21775SOL    HW167479  -0.006   8.507   1.087 -3.6529 -1.1322 -0.8376
21775SOL    HW267480   0.063   8.401   1.004  0.2422  0.3018  0.3301
21776SOL     OW67481   7.694   6.649   0.976  0.3736  0.3135 -0.0163
21776SOL    HW167482   7.653   6.573   1.018 -1.4984  0.4199 -1.5394
21776SOL    HW267483   7.646   6.724   1.011 -1.9696  0.3431 -2.9903
21777SOL     OW67484   5.156   2.523   3.744 -0.1597  0.5387 -0.0796
21777SOL    HW167485   5.241   2.534   3.788 -0.3695 -0.7509  0.6988
21777SOL    HW267486   5.179   2.505   3.653  0.3506  1.2367 -0.1020
21778SOL     OW67487   1.775   1.448   3.733  0.3600  0.8071  0.1000
21778SOL    HW167488   1.743   1.367   3.693 -0.1513  1.2380 -0.3919
21778SOL    HW267489   1.865   1.429   3.758  0.7078  0.5280 -1.3096
21779SOL     OW67490   7.506   3.178   6.668  0.5282  0.2624 -0.2964
21779SOL    HW167491   7.528   3.240   6.738 -1.0150  0.5552 -0.0293
21779SOL    HW267492   7.537   3.094   6.701 -1.5170  0.1180  1.5166
21780SOL     OW67493   0.408   7.366   2.537 -0.1823  0.0927  0.3947
21780SOL    HW167494   0.319   7.331   2.548  0.4432 -1.9549 -0.4722
21780SOL    HW267495   0.464   7.290   2.554  1.3785  1.1889  0.2679
21781SOL     OW67496   0.220   4.299   0.993 -0.0394  0.3955  0.1538
21781SOL    HW167497   0.173   4.275   1.073  0.6373 -0.7050  0.2433
21781SOL    HW267498   0.154   4.294   0.924  0.1472 -2.4174  0.0701
21782SOL     OW67499   4.132   4.965   2.660 -0.1311  0.3885 -0.1929
21782SOL    HW167500   4.096   4.886   2.619  1.3586  0.3099 -1.4633
21782SOL    HW267501   4.160   5.020   2.587  2.2421  0.4430  0.6516
21783SOL     OW67502   6.384   1.473   8.696  0.3319  0.5428 -0.2683
21783SOL    HW167503   6.316   1.492   8.762  0.4056 -1.9337  0.6296
21783SOL    HW267504   6.444   1.547   8.702  0.6092  0.2164  2.8685
21784SOL     OW67505   9.023   3.391   4.304  0.1958 -0.0033 -0.3159
21784SOL    HW167506   8.933   3.409   4.333  0.3305 -1.2921  0.9800
21784SOL    HW267507   9.013   3.355   4.216 -0.3818  1.8937 -1.0746
21785SOL     OW67508   0.551   6.332   4.031 -0.3433  0.2217 -0.2892
21785SOL    HW167509   0.554   6.392   4.106  0.0806 -0.6164  0.3840
21785SOL    HW267510   0.604   6.257   4.058 -2.5040 -1.3836 -0.2958
21786SOL     OW67511   0.019   4.399   1.946 -0.2636 -0.6219  0.2051
21786SOL    HW167512   0.053   4.351   2.021 -0.4354 -0.1128  0.6131
21786SOL    HW267513   0.090   4.396   1.881  0.5756  0.3874  1.0283
21787SOL     OW67514   4.243   3.866   7.370  0.1224 -0.2963  0.3488
21787SOL    HW167515   4.162   3.879   7.320 -0.6913 -0.4491  1.5630
21787SOL    HW267516   4.265   3.774   7.356  0.1121 -0.2409 -0.0323
21788SOL     OW67517   6.499   8.267   2.646  0.0095 -0.3967 -0.4317
21788SOL    HW167518   6.575   8.315   2.615  0.7308  0.3453  2.2832
21788SOL    HW267519   6.424   8.322   2.621  0.5577  0.2922 -0.5872
21789SOL     OW67520   3.176   4.799   7.838 -0.4219 -0.2304  0.4665
21789SOL    HW167521   3.141   4.879   7.799 -0.3479 -0.1037  0.6618
21789SOL    HW267522   3.145   4.729   7.780 -0.3724 -0.0501  0.2205
21790SOL     OW67523   8.629   7.685   3.434  0.1230 -0.5422  0.4037
21790SOL    HW167524   8.592   7.616   3.489 -1.5787 -0.0129 -0.0060
21790SOL    HW267525   8.664   7.639   3.358 -2.8818 -0.9155 -0.9002
21791SOL     OW67526   7.898   5.936   6.673 -0.4467  0.1848  0.0732
21791SOL    HW167527   7.856   5.936   6.759  0.0352  0.6602  0.3206
21791SOL    HW267528   7.963   5.866   6.678  0.4357  1.0026  0.5507
21792SOL     OW67529   3.321   1.609   6.153  0.1825 -0.0964  0.2785
21792SOL    HW167530   3.250   1.588   6.092 -0.4705 -0.3122  1.0967
21792SOL    HW267531   3.371   1.528   6.161  1.5002  0.4600 -1.5047
21793SOL     OW67532   3.806   0.877   3.598  0.5583  0.0061  0.0986
21793SOL    HW167533   3.819   0.873   3.503  0.5351  0.4244  0.0777
21793SOL    HW267534   3.888   0.911   3.633  0.9793 -1.1970  0.3401
21794SOL     OW67535   6.377   1.758   8.086  0.0406  0.5585  0.6969
21794SOL    HW167536   6.409   1.669   8.102  0.9478  0.7898  0.2443
21794SOL    HW267537   6.424   1.812   8.150 -0.1930  0.7723  0.6873
21795SOL     OW67538   2.463   2.070   1.567  0.3406  0.3188 -0.1815
21795SOL    HW167539   2.489   2.037   1.653 -1.2818  0.3310  0.3485
21795SOL    HW267540   2.465   2.165   1.576  0.2309  0.3204 -0.1680
21796SOL     OW67541   5.363   6.749   4.253  0.3305  0.2948  0.2036
21796SOL    HW167542   5.377   6.732   4.346  0.7919  0.4607  0.1691
21796SOL    HW267543   5.305   6.679   4.224  0.7596 -0.1742  0.4559
21797SOL     OW67544   6.072   4.565   5.482 -0.1048  0.4398 -0.6592
21797SOL    HW167545   6.105   4.549   5.570 -0.6146 -0.0269 -0.5454
21797SOL    HW267546   6.038   4.654   5.484 -0.8204  0.1677 -0.1552
21798SOL     OW67547   6.353   2.709   6.683  0.3387  0.2196  0.6226
21798SOL    HW167548   6.307   2.665   6.755 -0.0538 -1.0280 -0.3385
21798SOL    HW267549   6.428   2.652   6.665 -0.4609 -0.3926 -0.9908
21799SOL     OW67550   7.036   4.390   1.360  0.0378  0.1554  0.4908
21799SOL    HW167551   6.950   4.368   1.396 -0.7216 -1.2176 -1.9195
21799SOL    HW267552   7.046   4.332   1.285  3.0303  0.4083  0.5722
21800SOL     OW67553   0.291   5.963   1.140 -0.3128  0.1339  0.2135
21800SOL    HW167554   0.306   6.050   1.104 -0.2958 -0.3157 -0.9087
21800SOL    HW267555   0.268   5.909   1.064 -0.0843 -0.8925  0.8500
21801SOL     OW67556   8.161   3.799   3.188 -0.4027  1.0100 -0.0057
21801SOL    HW167557   8.109   3.864   3.236 -3.9740 -2.7014  1.7914
21801SOL    HW267558   8.205   3.749   3.256 -2.1857 -1.7763 -0.7753
21802SOL     OW67559   1.365   8.908   7.243 -0.1693 -0.1915  0.1389
21802SOL    HW167560   1.320   8.915   7.327 -0.4332  0.1008 -0.0239
21802SOL    HW267561   1.300   8.936   7.179  0.2766  0.3435 -0.0901
21803SOL     OW67562   5.630   4.202   4.491  0.5316 -0.7152 -0.4367
21803SOL    HW167563   5.692   4.145   4.537 -0.3315 -1.4173 -0.1076
21803SOL    HW267564   5.659   4.201   4.400  1.8110  0.0765 -0.0632
21804SOL     OW67565   0.725   3.430   9.071 -0.0238 -0.5244  0.0204
21804SOL    HW167566   0.713   3.426   9.165  1.1944  1.2240  0.3034
21804SOL    HW267567   0.741   3.339   9.045 -1.2923 -1.1594  1.3223
21805SOL     OW67568   6.750   0.490   4.776  0.0511 -0.9474 -0.4902
21805SOL    HW167569   6.820   0.471   4.714  0.0104  1.0297 -1.2082
21805SOL    HW267570   6.746   0.585   4.779  0.1085 -0.9445  2.6586
21806SOL     OW67571   2.898   5.923   3.456 -0.1679 -0.4073 -0.2990
21806SOL    HW167572   2.993   5.935   3.450 -0.3082  0.5737 -0.7636
21806SOL    HW267573   2.863   6.010   3.474 -1.0964 -0.4346 -1.7568
21807SOL     OW67574   7.515   1.971   8.093 -0.2475 -0.2439  0.3712
21807SOL    HW167575   7.484   1.937   8.177 -1.2154  1.7701  0.8852
21807SOL    HW267576   7.435   1.992   8.044  0.2987 -1.4645 -1.1331
21808SOL     OW67577   4.987   1.123   7.240 -0.0943  0.0196 -0.6147
21808SOL    HW167578   4.986   1.218   7.229 -0.3631  0.0742 -0.1534
21808SOL    HW267579   5.049   1.107   7.312  1.0331 -0.2686 -1.6161
21809SOL     OW67580   2.291   3.194   8.287 -0.2634  0.8482  0.3617
21809SOL    HW167581   2.306   3.285   8.265  0.3739  0.2639 -1.8709
21809SOL    HW267582   2.365   3.170   8.344 -0.2020  1.5943  0.5998
21810SOL     OW67583   1.708   5.105   3.225 -0.0437  0.1516  0.1387
21810SOL    HW167584   1.782   5.054   3.193 -0.6600 -0.6743 -0.0134
21810SOL    HW267585   1.643   5.100   3.154 -0.6407 -0.0010  0.6863
21811SOL     OW67586   6.163   4.834   1.665 -0.3114  0.0819  0.0072
21811SOL    HW167587   6.067   4.830   1.666 -0.4237  1.0978 -2.1344
21811SOL    HW267588   6.186   4.858   1.575  2.0770 -2.3765 -0.1999
21812SOL     OW67589   2.278   0.981   4.518  0.9063  0.0901  0.3427
21812SOL    HW167590   2.349   1.030   4.561  0.9696 -0.0709  0.4253
21812SOL    HW267591   2.274   1.016   4.430  0.9377  0.2588  0.4077
21813SOL     OW67592   8.238   3.049   0.951  0.7739  0.0750  0.1705
21813SOL    HW167593   8.156   3.002   0.966  0.7600  0.4385  1.3336
21813SOL    HW267594   8.306   2.987   0.975  0.7400  0.8656  2.6069
21814SOL     OW67595   5.012   6.891   1.050 -0.8630 -0.1196  0.2723
21814SOL    HW167596   4.924   6.869   1.020 -0.0657 -1.1382 -1.4422
21814SOL    HW267597   5.034   6.823   1.113 -0.6880 -0.8254 -0.5396
21815SOL     OW67598   6.893   7.652   9.576  0.4770 -0.2358 -0.5637
21815SOL    HW167599   6.833   7.692   9.513  0.4869 -0.2351 -0.5728
21815SOL    HW267600   6.943   7.589   9.524  0.3712 -0.3539 -0.5230
21816SOL     OW67601   0.221   0.551   2.336  0.2504  0.2109  0.3863
21816SOL    HW167602   0.260   0.630   2.373 -1.5452  0.9415  0.8135
21816SOL    HW267603   0.229   0.485   2.405  3.7073 -0.7350 -0.7162
21817SOL     OW67604   3.491   6.367   1.603 -0.1569 -0.2989 -0.1641
21817SOL    HW167605   3.571   6.321   1.630 -0.3398 -0.2531  0.4679
21817SOL    HW267606   3.443   6.303   1.551  0.5999 -0.1135 -1.1276
21818SOL     OW67607   9.540   8.930   4.993 -0.6010 -0.1584  0.1783
21818SOL    HW167608   9.459   8.890   4.959  0.4281 -1.5526 -0.7603
21818SOL    HW267609   9.589   8.956   4.915  0.3164 -0.2991  0.6887
21819SOL     OW67610   9.420   3.631   5.598  0.2422  0.3836 -0.2823
21819SOL    HW167611   9.415   3.702   5.534  0.9200 -0.9787 -1.9107
21819SOL    HW267612   9.513   3.609   5.602 -0.0172 -0.7155 -0.1563
21820SOL     OW67613   9.443   7.343   8.597 -0.6825 -0.0276 -0.2530
21820SOL    HW167614   9.371   7.358   8.535 -1.4837 -1.0844  0.3931
21820SOL    HW267615   9.440   7.418   8.656 -0.1612  0.7915 -1.2182
21821SOL     OW67616   7.641   6.060   4.959 -0.7411  0.1438 -0.0514
21821SOL    HW167617   7.694   5.998   4.910  0.6898  0.3290  1.1670
21821SOL    HW267618   7.628   6.018   5.044  0.3839  1.4992  0.8556
21822SOL     OW67619   8.573   9.443   8.060 -0.0982  0.7491  0.1886
21822SOL    HW167620   8.501   9.475   8.115  0.2982  1.7764  0.1250
21822SOL    HW267621   8.582   9.351   8.085 -0.9330  0.7987  0.7369
21823SOL     OW67622   3.741   4.200   9.139 -0.2965 -0.3942  0.0174
21823SOL    HW167623   3.828   4.235   9.158 -0.2526  0.3515 -1.4717
21823SOL    HW267624   3.690   4.275   9.108 -0.3563 -1.4766 -2.7378
21824SOL     OW67625   6.309   4.058   0.537  0.0323 -0.3719 -0.4606
21824SOL    HW167626   6.242   3.992   0.551 -0.2518 -0.7165 -3.0138
21824SOL    HW267627   6.388   4.021   0.576 -0.5087 -1.4266 -0.3387
21825SOL     OW67628   8.898   2.299   6.675  0.2801 -0.1373  0.0766
21825SOL    HW167629   8.959   2.348   6.731  1.8698 -0.0583 -1.6370
21825SOL    HW267630   8.888   2.353   6.597 -1.9913 -0.1951  0.2417
21826SOL     OW67631   1.440   8.077   6.778  0.7328 -0.0818 -0.1067
21826SOL    HW167632   1.476   8.099   6.693 -1.0016  0.6728 -0.7069
21826SOL    HW267633   1.346   8.065   6.762 -0.0670  2.2508  1.9990
21827SOL     OW67634   5.967   6.518   8.753  0.0058  0.1215 -0.0084
21827SOL    HW167635   6.052   6.527   8.797  0.6516 -1.0230 -0.9648
21827SOL    HW267636   5.969   6.584   8.684 -0.3696  0.8646  0.6733
21828SOL     OW67637   7.522   2.787   5.813  0.0487  0.4212  0.5010
21828SOL    HW167638   7.478   2.839   5.880  1.9913  2.1845  0.5388
21828SOL    HW267639   7.587   2.735   5.862  0.5503  0.6911  0.1334
21829SOL     OW67640   1.077   8.538   5.107  0.0001  0.0892  0.0638
21829SOL    HW167641   0.982   8.550   5.106  0.2557  2.7259  0.0270
21829SOL    HW267642   1.101   8.543   5.199  0.3058  2.1554 -0.0763
21830SOL     OW67643   2.263   9.492   8.454  0.3256 -0.3965  0.0855
21830SOL    HW167644   2.299   9.407   8.429 -1.2208 -1.3713  1.0440
21830SOL    HW267645   2.180   9.498   8.406 -0.2720 -0.0964  1.1402
21831SOL     OW67646   7.860   0.325   2.951 -0.0876  0.5697  0.2576
21831SOL    HW167647   7.924   0.297   3.017  1.0204  1.6033 -0.3258
21831SOL    HW267648   7.825   0.407   2.985 -0.4592  0.4522  0.1590
21832SOL     OW67649   4.089   0.222   0.057 -0.0452 -0.7221 -0.1787
21832SOL    HW167650   4.041   0.253  -0.020  0.3488  0.2845 -0.0382
21832SOL    HW267651   4.062   0.131   0.068 -1.2760 -0.4244 -0.6010
21833SOL     OW67652   3.272   0.499   3.740  0.0644 -0.1713  0.3563
21833SOL    HW167653   3.201   0.443   3.709 -3.4756  4.5756 -1.1651
21833SOL    HW267654   3.340   0.490   3.673 -1.4440 -0.8401 -1.1707
21834SOL     OW67655   5.750   2.370   6.529 -0.8861 -0.5457  0.3071
21834SOL    HW167656   5.722   2.437   6.591 -1.8106  0.4935 -1.1724
21834SOL    HW267657   5.839   2.395   6.505 -0.7631 -0.5879  0.7056
21835SOL     OW67658   3.100   7.926   2.605 -0.2526 -0.1373 -0.2463
21835SOL    HW167659   3.011   7.961   2.595  0.3648  1.0722 -1.9709
21835SOL    HW267660   3.110   7.865   2.532  0.5485  0.2345 -0.4601
21836SOL     OW67661   4.675   5.904   4.938  0.4422  0.3930  0.1427
21836SOL    HW167662   4.644   5.995   4.943 -2.4295 -0.5509  1.2697
21836SOL    HW267663   4.640   5.872   4.855 -0.2320 -0.2227  0.6568
21837SOL     OW67664   2.605   4.155   8.710  0.3202  0.6606 -0.6694
21837SOL    HW167665   2.578   4.079   8.658  0.7125 -1.5724  2.1479
21837SOL    HW267666   2.698   4.165   8.690  0.4355 -0.0767 -0.5523
21838SOL     OW67667   0.977   2.766   6.892  0.2141  0.0180  0.1536
21838SOL    HW167668   1.026   2.831   6.942 -1.3629  0.3337  1.3750
21838SOL    HW267669   0.925   2.817   6.830  0.6462 -0.2503 -0.4456
21839SOL     OW67670   0.215   6.757   9.095 -0.1681 -0.0498 -0.3529
21839SOL    HW167671   0.217   6.719   9.182 -1.6620 -0.2321 -0.3825
21839SOL    HW267672   0.275   6.832   9.100  0.7409 -0.8012  0.4476
21840SOL     OW67673   4.027   6.109   9.450 -0.0446 -0.6022 -0.4526
21840SOL    HW167674   4.095   6.175   9.440  0.6051 -1.2502 -0.3547
21840SOL    HW267675   3.990   6.100   9.362  0.9788 -1.2782 -0.8384
21841SOL     OW67676   9.425   6.049   3.615  0.3385 -0.0706 -0.5885
21841SOL    HW167677   9.421   6.141   3.639 -2.3060  0.0867 -1.2775
21841SOL    HW267678   9.409   6.002   3.697  0.3823  0.1349 -0.4619
21842SOL     OW67679   4.375   5.841   3.109 -0.4308 -0.2721  0.6928
21842SOL    HW167680   4.375   5.934   3.134 -1.5009 -0.0409 -0.0939
21842SOL    HW267681   4.468   5.820   3.098 -0.1953  0.9336  0.1204
21843SOL     OW67682   3.659   7.950   9.336 -0.2570 -0.4573 -0.1862
21843SOL    HW167683   3.693   7.929   9.250  0.4699 -0.6336  0.1328
21843SOL    HW267684   3.648   7.866   9.380 -1.1517 -0.4019 -0.2973
21844SOL     OW67685   8.409   6.524   3.465 -0.0973  0.0873 -0.0858
21844SOL    HW167686   8.426   6.480   3.548 -2.0748  1.0308  0.8667
21844SOL    HW267687   8.491   6.571   3.446  1.0513 -1.6557  0.2991
21845SOL     OW67688   5.039   8.277   9.386 -0.2541  0.7022  0.6500
21845SOL    HW167689   5.107   8.339   9.363  0.2026  0.3012  0.9056
21845SOL    HW267690   5.083   8.192   9.387 -1.2040  0.1337 -1.2800
21846SOL     OW67691   9.285   1.151   6.990  0.2723  0.3469  0.1225
21846SOL    HW167692   9.342   1.225   6.970  1.5650 -0.2556  1.4313
21846SOL    HW267693   9.197   1.189   6.993  0.9235  1.8722  0.9018
21847SOL     OW67694   3.157   9.088   1.766 -0.0925  0.4695 -0.3339
21847SOL    HW167695   3.111   9.119   1.844 -0.4545  0.2201 -0.4510
21847SOL    HW267696   3.099   9.109   1.693 -0.8757 -1.4691 -0.3292
21848SOL     OW67697   1.169   7.263   5.206 -0.2777 -0.7736  0.2675
21848SOL    HW167698   1.233   7.282   5.275 -0.4992  1.4593 -0.0553
21848SOL    HW267699   1.091   7.311   5.232 -0.4999 -0.2265 -1.2955
21849SOL     OW67700   3.337   4.214   2.584 -0.2629 -0.0494 -0.3086
21849SOL    HW167701   3.385   4.292   2.612 -0.1899 -0.0753 -0.3615
21849SOL    HW267702   3.278   4.246   2.515 -0.1009 -0.0737 -0.4617
21850SOL     OW67703   0.445   7.383   2.935  0.2953  0.6146  0.4817
21850SOL    HW167704   0.364   7.416   2.973 -1.0531 -0.7591 -1.0622
21850SOL    HW267705   0.478   7.455   2.882 -1.1627  0.4805 -0.6762
21851SOL     OW67706   9.617   1.532   7.273 -0.3106  0.3532  0.1115
21851SOL    HW167707   9.555   1.469   7.310 -0.7674  0.6647 -0.1056
21851SOL    HW267708   9.614   1.515   7.179  1.3917 -0.9323  0.2296
21852SOL     OW67709   5.643   8.951   9.281 -0.8219 -0.4413  0.6184
21852SOL    HW167710   5.686   8.961   9.366 -0.1134 -3.3030  0.7127
21852SOL    HW267711   5.612   8.860   9.281  0.0869 -0.8682 -2.5596
21853SOL     OW67712   2.248   4.009   9.449 -0.6366 -0.4752 -0.8039
21853SOL    HW167713   2.302   4.074   9.494  0.0547 -1.7402  0.2817
21853SOL    HW267714   2.309   3.938   9.427 -0.9341  0.0951 -3.8501
21854SOL     OW67715   3.014   6.905   3.285  0.6258  0.1089  0.0459
21854SOL    HW167716   2.943   6.969   3.275 -0.8838 -1.6094 -0.6241
21854SOL    HW267717   3.084   6.940   3.230 -0.6400  0.5484 -1.3570
21855SOL     OW67718   2.849   0.674   7.654 -0.0315  0.4593  0.2934
21855SOL    HW167719   2.909   0.657   7.727  0.4284 -1.9557 -0.5536
21855SOL    HW267720   2.835   0.588   7.614 -1.6027  1.4553 -1.4544
21856SOL     OW67721   0.841   1.994   5.820 -0.1936 -0.2340  0.4264
21856SOL    HW167722   0.907   1.942   5.867 -1.6379  1.1897  4.3833
21856SOL    HW267723   0.881   2.081   5.812 -0.6346 -0.0158  0.5956
21857SOL     OW67724   6.069   5.209   5.358 -0.1119  0.4610 -0.3323
21857SOL    HW167725   6.159   5.184   5.376 -0.5397 -1.2051 -0.3777
21857SOL    HW267726   6.074   5.258   5.276  0.6087 -0.8026 -1.0731
21858SOL     OW67727   1.677   7.872   5.861 -0.4296  0.5135 -0.6483
21858SOL    HW167728   1.630   7.819   5.796 -0.9090  0.3711 -0.1911
21858SOL    HW267729   1.745   7.814   5.894 -1.1393  0.0655  0.0666
21859SOL     OW67730   8.493   5.785   0.562  0.1737  0.2473  0.7879
21859SOL    HW167731   8.560   5.770   0.628  0.7343  1.2876  0.4763
21859SOL    HW267732   8.440   5.856   0.598  0.3186  0.6330  0.2503
21860SOL     OW67733   7.071   3.926   6.005 -0.5096 -0.3321 -0.0054
21860SOL    HW167734   7.096   3.896   6.093 -0.3949 -1.3543 -0.3688
21860SOL    HW267735   7.043   4.016   6.017 -0.6115 -0.5003  1.1072
21861SOL     OW67736   5.756   3.676   2.694 -0.5808  0.7618  0.3848
21861SOL    HW167737   5.834   3.717   2.730 -0.1215  0.8035 -0.6195
21861SOL    HW267738   5.683   3.725   2.732 -0.0929  1.3336  0.5934
21862SOL     OW67739   2.765   7.173   4.431 -0.5412  0.2040 -0.0470
21862SOL    HW167740   2.822   7.098   4.414 -0.7815 -0.0300  0.1556
21862SOL    HW267741   2.821   7.249   4.419 -0.0702 -0.0355  0.6044
21863SOL     OW67742   7.105   7.352   5.986  0.0292  0.1782  0.5410
21863SOL    HW167743   7.127   7.392   5.902 -2.1358  0.1810 -0.0800
21863SOL    HW267744   7.069   7.266   5.964 -1.7553  0.6783  1.3082
21864SOL     OW67745   3.631   8.225   4.874 -0.3535  0.6315 -0.1326
21864SOL    HW167746   3.656   8.317   4.879  1.4789  0.2091 -0.7699
21864SOL    HW267747   3.669   8.186   4.952  0.7441  0.0350 -0.9383
21865SOL     OW67748   5.629   4.006   8.081 -0.2202 -0.4563 -0.4931
21865SOL    HW167749   5.619   4.019   7.987  0.4132  0.7795 -0.4172
21865SOL    HW267750   5.585   4.081   8.120  0.4964 -0.3617  0.1516
21866SOL     OW67751   0.683   1.243   1.749 -0.3284 -0.1091 -0.5837
21866SOL    HW167752   0.703   1.176   1.814 -1.0567 -1.4362 -1.6854
21866SOL    HW267753   0.590   1.230   1.729 -0.1714  0.4008 -1.7308
21867SOL     OW67754   6.654   6.682   8.944  0.3658  0.1963 -0.6976
21867SOL    HW167755   6.715   6.609   8.932 -0.5448 -0.6547 -0.3967
21867SOL    HW267756   6.647   6.722   8.858 -0.2463 -1.0311 -1.2564
21868SOL     OW67757   6.692   3.701   8.818  0.1416 -0.0196 -0.4459
21868SOL    HW167758   6.700   3.715   8.912  3.0416 -0.0758 -0.5789
21868SOL    HW267759   6.665   3.610   8.808  0.5126 -0.2219  0.3473
21869SOL     OW67760   3.121   4.583   3.227 -0.5037  0.1292  0.3430
21869SOL    HW167761   3.134   4.678   3.232 -1.9868  0.3343  0.8054
21869SOL    HW267762   3.094   4.568   3.136 -0.2645  0.1544  0.2682
21870SOL     OW67763   6.779   9.179   6.303 -0.4672 -0.3321  0.5934
21870SOL    HW167764   6.745   9.110   6.360 -1.1319 -0.6422 -0.1657
21870SOL    HW267765   6.802   9.135   6.222  1.3409 -0.0438  0.9108
21871SOL     OW67766   4.556   1.302   3.481 -0.8382 -0.5179  0.0062
21871SOL    HW167767   4.543   1.397   3.480  3.2797  0.2385 -1.4849
21871SOL    HW267768   4.614   1.287   3.555  1.0334 -1.3115 -1.5317
21872SOL     OW67769   1.961   6.724   7.358  0.5239 -0.0623 -0.1686
21872SOL    HW167770   1.866   6.729   7.363  0.5693  0.6902 -0.0031
21872SOL    HW267771   1.980   6.630   7.355 -0.1227 -0.3009  1.6979
21873SOL     OW67772   0.264   6.350   8.651  0.4133  0.5849 -0.1650
21873SOL    HW167773   0.177   6.317   8.627  1.6235 -3.3754  0.0765
21873SOL    HW267774   0.311   6.356   8.568  0.4577  0.9311 -0.1166
21874SOL     OW67775   7.719   9.250   6.888  0.2272 -0.3619 -0.0554
21874SOL    HW167776   7.692   9.211   6.971  0.3106  0.0145  0.1521
21874SOL    HW267777   7.646   9.307   6.863 -0.2452 -1.2715 -0.7696
21875SOL     OW67778   4.671   4.827   4.837 -0.2967 -0.2348 -0.6026
21875SOL    HW167779   4.621   4.909   4.836  1.4633  0.8938 -1.6028
21875SOL    HW267780   4.641   4.781   4.915 -1.0389  1.5658  0.2237
21876SOL     OW67781   0.170   8.531   4.545 -0.2173 -0.3165  0.0945
21876SOL    HW167782   0.198   8.440   4.548 -1.7776 -0.8231  0.8127
21876SOL    HW267783   0.251   8.582   4.547  0.7631 -1.6693 -2.0324
21877SOL     OW67784   6.418   8.727   6.117 -0.0175  0.0199  0.5956
21877SOL    HW167785   6.436   8.705   6.026 -2.1507 -0.2158  0.1953
21877SOL    HW267786   6.434   8.821   6.122  0.4769 -0.0287  0.0947
21878SOL     OW67787   3.869   8.131   7.024 -0.2775 -0.1133  0.3218
21878SOL    HW167788   3.819   8.210   7.003  0.1194  0.1811  0.4693
21878SOL    HW267789   3.845   8.069   6.955 -1.7353 -0.3881  1.0474
21879SOL     OW67790   3.993   5.464   7.127  0.4415 -0.3603 -0.1085
21879SOL    HW167791   4.053   5.401   7.167 -0.5320  0.0735  2.1792
21879SOL    HW267792   4.044   5.544   7.119  1.2936 -1.0213 -1.8410
21880SOL     OW67793   2.396   7.368   0.750 -0.5677  0.2932  0.0234
21880SOL    HW167794   2.349   7.331   0.824  0.2787  0.4568  0.6637
21880SOL    HW267795   2.436   7.448   0.785 -0.3758  0.5152 -0.6833
21881SOL     OW67796   5.634   1.490   7.024  0.1661  0.2423 -0.3024
21881SOL    HW167797   5.685   1.565   7.056 -1.3988  1.6107 -0.8774
21881SOL    HW267798   5.650   1.489   6.930  0.0408 -0.0241 -0.3206
21882SOL     OW67799   7.536   0.884   8.016 -0.7184  1.0909 -0.4604
21882SOL    HW167800   7.626   0.859   7.996 -0.5789  2.8826 -2.5059
21882SOL    HW267801   7.483   0.810   7.985 -0.0246  0.3328  0.1078
21883SOL     OW67802   1.503   1.790   7.321 -0.0192 -0.4348  0.5794
21883SOL    HW167803   1.523   1.698   7.338  0.3810 -0.5726 -0.5758
21883SOL    HW267804   1.582   1.824   7.279  0.3866  0.8172  2.2563
21884SOL     OW67805   6.409   7.886   9.411  0.2287 -0.6047  0.2706
21884SOL    HW167806   6.340   7.873   9.476  1.2822 -2.3987  1.1213
21884SOL    HW267807   6.436   7.798   9.387  1.1460  0.0446 -1.2617
21885SOL     OW67808   4.916   7.615   2.219 -0.1680  0.3412  0.4137
21885SOL    HW167809   4.970   7.656   2.152  1.0936  0.0846  1.2504
21885SOL    HW267810   4.859   7.555   2.170  0.5335  0.3671 -0.4626
21886SOL     OW67811   4.340   9.392   5.897 -0.7087  0.4838 -0.5995
21886SOL    HW167812   4.313   9.335   5.968 -1.5164  0.0601 -1.2281
21886SOL    HW267813   4.419   9.351   5.862  0.3411  1.2950  0.7404
21887SOL     OW67814   6.752   2.800   7.786 -0.5573 -0.0629  0.4213
21887SOL    HW167815   6.662   2.781   7.811 -0.9714 -1.0290 -1.5352
21887SOL    HW267816   6.744   2.845   7.701  0.7747  0.9895  0.8182
21888SOL     OW67817   4.111   3.218   8.373  0.3245  0.2040 -0.0183
21888SOL    HW167818   4.170   3.279   8.329  0.5418 -0.4446 -0.6393
21888SOL    HW267819   4.088   3.154   8.305 -0.3724 -0.0651  0.4627
21889SOL     OW67820   3.170   6.225   4.299 -0.2415  0.0529 -0.3081
21889SOL    HW167821   3.167   6.269   4.214 -0.1322 -1.0967 -0.9274
21889SOL    HW267822   3.147   6.134   4.280  0.1365 -0.3034  0.8442
21890SOL     OW67823   0.972   9.319   2.494 -0.1925  0.5255 -0.0116
21890SOL    HW167824   0.968   9.311   2.398  0.1861  1.1547 -0.0871
21890SOL    HW267825   0.881   9.311   2.522 -0.2148 -0.6316 -0.3290
21891SOL     OW67826   9.150   2.026   5.305 -0.1232 -0.4766 -0.0719
21891SOL    HW167827   9.145   1.954   5.242 -2.8704 -0.6909  0.2651
21891SOL    HW267828   9.163   2.104   5.252  1.1842 -1.0113 -0.5740
21892SOL     OW67829   2.631   5.058   3.959 -0.1540  0.2424  0.0123
21892SOL    HW167830   2.557   5.023   4.008 -0.5057  1.5842  0.4653
21892SOL    HW267831   2.688   5.096   4.025  0.4624  0.1030 -0.4287
21893SOL     OW67832   9.526   0.421   4.677 -0.2401  0.1355  0.0479
21893SOL    HW167833   9.451   0.479   4.665 -0.2914 -0.1927 -1.4281
21893SOL    HW267834   9.529   0.369   4.596  0.4640 -1.1424  0.8619
21894SOL     OW67835   7.655   5.272   3.630 -0.1482  0.5407 -0.2982
21894SOL    HW167836   7.750   5.261   3.634  0.0741  2.3370  0.8472
21894SOL    HW267837   7.642   5.342   3.566 -0.5116  1.5613  0.8410
21895SOL     OW67838   0.044   7.130   1.113  0.3848 -0.2613 -0.7961
21895SOL    HW167839  -0.023   7.165   1.054 -1.5630 -1.6683  0.4338
21895SOL    HW267840   0.062   7.201   1.174 -2.3160 -0.6948  0.6808
21896SOL     OW67841   8.009   9.408   6.428 -0.0253 -0.2780  0.2724
21896SOL    HW167842   7.997   9.368   6.514  0.2707  0.2144  0.5509
21896SOL    HW267843   7.976   9.343   6.367 -2.5894  0.3523  0.8800
21897SOL     OW67844   1.989   7.771   4.250  0.0050 -0.4859  0.0309
21897SOL    HW167845   1.911   7.824   4.266 -0.2510 -1.2354  1.4280
21897SOL    HW267846   1.968   7.685   4.285  1.1456 -0.9561 -0.3799
21898SOL     OW67847   8.146   9.599   3.881 -0.2707 -0.1100 -0.2360
21898SOL    HW167848   8.204   9.641   3.945 -0.1625 -1.9665  0.9693
21898SOL    HW267849   8.085   9.548   3.934 -0.5523 -1.2520 -1.5906
21899SOL     OW67850   6.657   5.395   4.693  0.4579 -0.0060 -0.2966
21899SOL    HW167851   6.738   5.344   4.692  0.1168 -0.5583 -0.0871
21899SOL    HW267852   6.587   5.330   4.693 -0.1292  0.3326 -4.4099
21900SOL     OW67853   4.198   5.523   8.049 -0.3027  0.0156 -0.6649
21900SOL    HW167854   4.201   5.618   8.061  1.4142 -0.0671 -0.2344
21900SOL    HW267855   4.282   5.492   8.081  0.1381 -1.4133 -2.9486
21901SOL     OW67856   0.479   2.022   4.697  0.6065  0.3265  0.2118
21901SOL    HW167857   0.439   2.091   4.751  1.9006 -0.4784  2.3591
21901SOL    HW267858   0.432   1.942   4.720 -0.4760  0.3244 -1.8037
21902SOL     OW67859   7.077   6.726   6.353  0.3271  0.6287 -0.0282
21902SOL    HW167860   7.017   6.800   6.352 -0.2291  0.1901 -0.8585
21902SOL    HW267861   7.060   6.682   6.437  0.8596  1.5836  0.5899
21903SOL     OW67862   7.935   7.661   2.911  0.1238 -0.0442  0.7110
21903SOL    HW167863   7.906   7.728   2.849  0.1298  0.1157  0.8826
21903SOL    HW267864   7.856   7.635   2.958  0.2774  0.4770  1.2621
21904SOL     OW67865   2.012   9.505   6.265  0.4514 -0.0579  0.9002
21904SOL    HW167866   2.104   9.513   6.240  0.3831 -0.7318  0.4098
21904SOL    HW267867   1.964   9.547   6.193  0.3483 -0.1134  0.9366
21905SOL     OW67868   9.251   0.604   7.550 -0.2381 -0.1873 -0.4017
21905SOL    HW167869   9.282   0.548   7.479  1.8795  0.0152  0.2995
21905SOL    HW267870   9.318   0.671   7.558 -0.9473  0.3731  1.1307
21906SOL     OW67871   4.252   4.961   0.773 -0.0334  0.9374 -0.4237
21906SOL    HW167872   4.200   5.013   0.834 -0.2876  0.3804 -0.1551
21906SOL    HW267873   4.206   4.968   0.690 -1.2895 -0.5920  0.0955
21907SOL     OW67874   9.324   1.795   6.231  0.1651  0.0764  0.3034
21907SOL    HW167875   9.415   1.823   6.231  0.1080  0.5354 -2.1525
21907SOL    HW267876   9.327   1.702   6.210  0.0782  0.2955 -0.7545
21908SOL     OW67877   7.130   7.764   1.849  0.2086  0.0809 -0.0722
21908SOL    HW167878   7.045   7.721   1.838  0.1399 -0.4346  1.9382
21908SOL    HW267879   7.194   7.695   1.832  0.1832  0.0803 -0.1665
21909SOL     OW67880   3.919   9.410   5.387  0.6299  0.0166  0.2889
21909SOL    HW167881   3.998   9.407   5.333  1.4350  0.0809  1.4372
21909SOL    HW267882   3.875   9.490   5.360  0.9393 -0.0265 -0.3697
21910SOL     OW67883   9.615   5.745   0.570 -0.2384 -0.5269  0.0525
21910SOL    HW167884   9.590   5.769   0.481  0.5967 -1.1031 -0.3446
21910SOL    HW267885   9.707   5.720   0.564  0.0414  0.1451  1.2193
21911SOL     OW67886   7.139   2.810   4.260 -0.1698  0.7157  0.1217
21911SOL    HW167887   7.156   2.722   4.226  0.4670  0.7776  0.2547
21911SOL    HW267888   7.199   2.819   4.334 -0.9868  0.8729  0.7778
21912SOL     OW67889   8.198   0.410   2.497 -0.2389  0.1105 -0.1538
21912SOL    HW167890   8.241   0.365   2.570  0.0422 -0.1886 -0.5000
21912SOL    HW267891   8.218   0.503   2.511 -0.3676  0.0752  0.2686
21913SOL     OW67892   5.151   8.957   4.566  0.0171 -0.4755 -0.4596
21913SOL    HW167893   5.131   9.040   4.611  2.5284 -0.3450  0.5419
21913SOL    HW267894   5.080   8.898   4.592 -0.4895  0.6496  0.8219
21914SOL     OW67895   8.805   1.135   5.233  0.0867 -0.6522 -0.2243
21914SOL    HW167896   8.775   1.197   5.167  1.7095 -0.0572 -0.4571
21914SOL    HW267897   8.794   1.049   5.192  0.6499 -0.3164 -1.1264
21915SOL     OW67898   8.950   9.540   8.409 -0.4457  0.2084 -0.1347
21915SOL    HW167899   8.989   9.452   8.404  2.1380  1.2348  0.5682
21915SOL    HW267900   8.882   9.532   8.476  0.9412 -0.8629  1.2024
21916SOL     OW67901   1.644   5.738   5.103 -0.4579 -0.0702 -0.4152
21916SOL    HW167902   1.718   5.705   5.154 -0.8297 -0.3776 -0.0671
21916SOL    HW267903   1.630   5.827   5.135 -0.6159 -0.2219 -0.0616
21917SOL     OW67904   8.128   6.781   4.518  0.4034  0.1341 -0.0702
21917SOL    HW167905   8.165   6.693   4.517  0.3588  0.0956  0.9857
21917SOL    HW267906   8.033   6.767   4.518  0.3728  0.2179 -1.5855
21918SOL     OW67907   0.214   5.119   7.619  0.6450  0.0087 -0.5906
21918SOL    HW167908   0.274   5.070   7.674 -0.7882 -2.1025 -0.7813
21918SOL    HW267909   0.154   5.162   7.680 -0.2754 -1.4513 -0.4077
21919SOL     OW67910   1.547   3.590   8.704 -0.5393 -0.4489 -0.2674
21919SOL    HW167911   1.607   3.624   8.769  0.4941  0.2453 -1.5320
21919SOL    HW267912   1.547   3.495   8.717  1.0234 -0.4801 -0.3852
21920SOL     OW67913   3.832   0.318   0.224 -0.2804 -0.1058 -0.5464
21920SOL    HW167914   3.906   0.374   0.202  0.3582 -0.2081  1.1405
21920SOL    HW267915   3.812   0.339   0.315 -2.0342 -0.4298 -0.8087
21921SOL     OW67916   3.504   7.267   4.982 -0.2757 -0.0771 -0.3004
21921SOL    HW167917   3.410   7.256   4.997 -0.1066  1.3244  2.5791
21921SOL    HW267918   3.530   7.188   4.936 -2.4964 -1.5856  0.8179
21922SOL     OW67919   1.707   8.182   4.197 -0.2536  0.0591  0.1163
21922SOL    HW167920   1.647   8.125   4.148  0.0550 -1.3161  1.2425
21922SOL    HW267921   1.749   8.123   4.260  2.4739  0.9209 -0.7488
21923SOL     OW67922   6.167   0.251   1.487  0.4668  0.0548 -0.2808
21923SOL    HW167923   6.146   0.298   1.568  1.7027 -0.1704  0.2026
21923SOL    HW267924   6.083   0.240   1.443 -0.7767 -2.2593  2.2910
21924SOL     OW67925   9.505   0.846   2.416  0.5582 -0.0986  0.1442
21924SOL    HW167926   9.419   0.816   2.386  0.2056  1.2384 -0.2589
21924SOL    HW267927   9.548   0.767   2.448 -0.6251 -0.8798 -0.1188
21925SOL     OW67928   9.510   4.192   2.185 -0.1862 -0.0942 -0.0150
21925SOL    HW167929   9.601   4.219   2.191 -0.2027 -0.2584  1.1576
21925SOL    HW267930   9.469   4.257   2.128  0.4193  0.6403  0.3800
21926SOL     OW67931   8.585   9.142   1.944 -0.2407 -0.6960 -0.1270
21926SOL    HW167932   8.661   9.085   1.933  0.6908  0.3182  0.8059
21926SOL    HW267933   8.603   9.192   2.024 -1.8834 -0.4104  0.1081
21927SOL     OW67934   8.647   2.888   1.803  0.1104  0.0317  0.2719
21927SOL    HW167935   8.620   2.835   1.878  1.5774  0.1907  0.9388
21927SOL    HW267936   8.680   2.969   1.842 -0.9579  0.9582 -0.6692
21928SOL     OW67937   1.851   0.349   3.724 -0.2332 -0.2929 -0.5300
21928SOL    HW167938   1.859   0.444   3.734 -0.2903 -0.1753 -1.5688
21928SOL    HW267939   1.795   0.322   3.797  0.7429  0.3035  0.4829
21929SOL     OW67940   4.289   8.853   3.718  0.0544  0.3181  0.6912
21929SOL    HW167941   4.270   8.845   3.811  0.5086  1.4279  0.8977
21929SOL    HW267942   4.377   8.817   3.707 -0.1992 -0.2837  0.5930
21930SOL     OW67943   5.503   9.065   3.806  0.8950 -0.9654 -0.3050
21930SOL    HW167944   5.522   9.040   3.896  1.2396 -0.4126 -0.2170
21930SOL    HW267945   5.546   9.150   3.795 -0.5196 -0.2519 -0.5002
21931SOL     OW67946   3.216   7.456   8.148  0.3212 -0.4480  0.0948
21931SOL    HW167947   3.173   7.539   8.172  1.2863  0.0377  0.1972
21931SOL    HW267948   3.167   7.389   8.196 -1.4762 -0.1461 -1.2010
21932SOL     OW67949   5.870   9.285   3.598  0.7106  0.2296 -0.7452
21932SOL    HW167950   5.812   9.211   3.582 -2.0069  2.0131  0.1225
21932SOL    HW267951   5.872   9.333   3.516  0.6455  0.3522 -0.6766
21933SOL     OW67952   2.627   5.432   2.187  0.3888 -0.0461  0.0896
21933SOL    HW167953   2.540   5.417   2.152  0.9281 -1.1017 -0.8626
21933SOL    HW267954   2.684   5.372   2.138  1.4965 -0.1036  1.3638
21934SOL     OW67955   4.235   7.016   7.496 -0.5806 -0.3293 -0.3971
21934SOL    HW167956   4.289   7.095   7.504  0.2937 -1.0183  0.7328
21934SOL    HW267957   4.195   7.005   7.582  0.1767 -1.7084 -0.1909
21935SOL     OW67958   4.631   4.086   9.273  0.3894  0.3063 -0.3045
21935SOL    HW167959   4.635   4.105   9.180  0.3509 -0.3776 -0.4497
21935SOL    HW267960   4.537   4.091   9.295  0.4758  1.3376 -0.1061
21936SOL     OW67961   7.318   2.662   1.445 -0.1827 -0.1631  0.6211
21936SOL    HW167962   7.246   2.612   1.483 -0.5821  0.4991  0.7407
21936SOL    HW267963   7.292   2.753   1.454 -0.0011  0.0380 -0.6825
21937SOL     OW67964   2.878   6.950   5.331  0.2056  0.1692  0.5407
21937SOL    HW167965   2.835   6.874   5.370  2.2358 -2.1927 -1.4076
21937SOL    HW267966   2.827   6.968   5.252  2.4047 -2.6015 -1.7439
21938SOL     OW67967   9.373   8.884   6.380  0.1294 -0.0640  0.6338
21938SOL    HW167968   9.383   8.793   6.353 -1.5201 -0.3507  0.8905
21938SOL    HW267969   9.330   8.927   6.306 -0.5752  0.1110  1.1275
21939SOL     OW67970   0.027   2.950   0.012 -0.1268 -0.1754  0.5830
21939SOL    HW167971  -0.061   2.914   0.024 -0.3974  0.2016 -0.1792
21939SOL    HW267972   0.064   2.901  -0.061  0.3980 -0.4994  1.0578
21940SOL     OW67973   7.641   5.348   2.714  0.2981  0.3818  0.0724
21940SOL    HW167974   7.664   5.403   2.789 -0.1071  1.9081 -0.8767
21940SOL    HW267975   7.610   5.409   2.647  1.4892 -0.8278 -1.6926
21941SOL     OW67976   4.897   1.883   6.198  0.3616  0.3320  0.4338
21941SOL    HW167977   4.895   1.933   6.116 -0.4895  0.5542  0.5830
21941SOL    HW267978   4.810   1.844   6.204  0.7659 -0.5676  0.6992
21942SOL     OW67979   7.957   5.260   8.889  0.7786 -0.0676 -0.5495
21942SOL    HW167980   7.950   5.227   8.799  3.4628 -1.8610 -0.2190
21942SOL    HW267981   8.051   5.276   8.901  0.3611  1.1622  1.6384
21943SOL     OW67982   7.078   3.545   3.539  0.5590 -0.1138 -0.2276
21943SOL    HW167983   7.066   3.610   3.470 -0.2203 -0.9179 -0.8747
21943SOL    HW267984   6.989   3.527   3.571  0.9584  0.6704  1.3994
21944SOL     OW67985   3.955   1.483   0.400  0.1473 -0.3826  0.0450
21944SOL    HW167986   3.866   1.480   0.436  0.1047 -0.4268 -0.0627
21944SOL    HW267987   3.964   1.401   0.352  0.6535 -0.8974  0.9962
21945SOL     OW67988   6.932   6.973   6.876  0.0189 -0.1737  0.2541
21945SOL    HW167989   6.997   6.905   6.893  1.5152  0.7741 -1.3997
21945SOL    HW267990   6.936   7.030   6.953  0.4492 -0.6413  0.5814
21946SOL     OW67991   7.414   0.527   5.719 -0.1060  0.3337 -0.3288
21946SOL    HW167992   7.379   0.439   5.706 -1.7045  1.0928 -1.6451
21946SOL    HW267993   7.503   0.523   5.683 -0.2218 -0.6945 -0.5446
21947SOL     OW67994   5.575   5.275   6.887 -0.7393 -0.3615  0.5213
21947SOL    HW167995   5.573   5.323   6.804 -0.8242 -0.1685  0.6336
21947SOL    HW267996   5.666   5.281   6.916 -1.1353  1.6051  1.6053
21948SOL     OW67997   0.833   9.394   3.894 -0.1523 -0.2965 -0.4616
21948SOL    HW167998   0.797   9.305   3.899 -2.2794  0.5563  0.0983
21948SOL    HW267999   0.906   9.393   3.957  1.1306 -2.1458 -1.8393
21949SOL     OW68000   7.703   3.465   1.180  0.5477  0.1043  0.1485
21949SOL    HW168001   7.645   3.500   1.248  0.6022  0.0618  0.2165
21949SOL    HW268002   7.654   3.477   1.099  1.0684  1.5279  0.0015
21950SOL     OW68003   2.408   0.615   1.502  0.1495 -0.5439  0.4175
21950SOL    HW168004   2.333   0.663   1.466 -0.4642 -1.6060  0.2252
21950SOL    HW268005   2.434   0.555   1.432 -1.0180 -2.6045  1.6366
21951SOL     OW68006   1.174   9.207   5.678 -0.1040 -0.2795 -0.6245
21951SOL    HW168007   1.172   9.248   5.592 -1.4434 -0.8332 -0.8825
21951SOL    HW268008   1.205   9.118   5.662  1.5489  0.1930 -0.2386
21952SOL     OW68009   3.069   5.164   3.349  0.3616 -0.2218  0.5443
21952SOL    HW168010   3.000   5.230   3.346  0.3423 -0.2737 -1.8202
21952SOL    HW268011   3.022   5.081   3.362 -0.0041 -0.2022 -0.5647
21953SOL     OW68012   5.554   6.847   7.593 -0.8427  0.4146 -0.5194
21953SOL    HW168013   5.563   6.811   7.505  1.2325 -0.1648 -0.1182
21953SOL    HW268014   5.644   6.854   7.626 -1.4636  2.1062  0.9726
21954SOL     OW68015   2.913   8.476   0.224 -0.0177  0.2541 -0.2308
21954SOL    HW168016   2.864   8.505   0.147  1.9579 -0.1497 -1.6938
21954SOL    HW268017   2.911   8.551   0.283 -0.5945  0.9796 -1.1431
21955SOL     OW68018   8.511   1.045   4.821 -0.3631 -0.5301  0.2809
21955SOL    HW168019   8.578   1.074   4.759  1.0291 -1.0396  1.5047
21955SOL    HW268020   8.478   1.126   4.860  0.3252 -0.3383  0.4649
21956SOL     OW68021   0.354   7.469   3.514  0.2064 -0.2015  0.0417
21956SOL    HW168022   0.392   7.507   3.435 -1.2004 -1.8265 -1.5219
21956SOL    HW268023   0.406   7.389   3.529 -2.4917 -2.6414 -2.3277
21957SOL     OW68024   2.001   4.908   0.383 -0.0567  0.4126 -0.1014
21957SOL    HW168025   2.087   4.914   0.342 -0.1289 -0.1278 -0.3474
21957SOL    HW268026   1.949   4.856   0.321 -0.3175  0.0349  0.4296
21958SOL     OW68027   7.107   2.916   8.257 -0.3135  0.0279 -0.5449
21958SOL    HW168028   7.170   2.859   8.301 -3.0431 -2.9267 -0.0454
21958SOL    HW268029   7.134   3.005   8.280  1.2017 -1.1854  3.1420
21959SOL     OW68030   1.244   7.794   3.432  0.1588  0.2393 -0.4319
21959SOL    HW168031   1.170   7.828   3.482  1.5601 -0.2400  2.1025
21959SOL    HW268032   1.238   7.699   3.439  0.4204  0.1571 -1.1607
21960SOL     OW68033   4.749   4.132   7.243  0.0433 -0.4357  0.0325
21960SOL    HW168034   4.724   4.224   7.250  0.1155 -0.3301 -0.9855
21960SOL    HW268035   4.671   4.089   7.208  0.2847 -0.6104 -0.2994
21961SOL     OW68036   1.144   1.440   4.801  0.1807 -0.0510 -0.8244
21961SOL    HW168037   1.058   1.473   4.825  0.6485 -0.4129  1.5562
21961SOL    HW268038   1.180   1.507   4.743 -1.2520  0.6443 -0.9543
21962SOL     OW68039   6.093   0.127   3.527  0.8316 -0.3992  1.0715
21962SOL    HW168040   6.082   0.064   3.455 -0.5190  0.2960  0.6189
21962SOL    HW268041   6.058   0.081   3.604 -0.0150 -0.2780  0.7730
21963SOL     OW68042   7.203   5.014   4.796  0.4764 -0.3451  0.2792
21963SOL    HW168043   7.215   5.091   4.739  1.2989 -0.1891  0.6468
21963SOL    HW268044   7.108   5.010   4.810  0.1775 -0.7254 -1.5525
21964SOL     OW68045   0.655   4.820   3.365 -0.1858  0.0499 -0.2097
21964SOL    HW168046   0.605   4.884   3.415 -0.3273 -0.7282  0.6644
21964SOL    HW268047   0.714   4.781   3.429 -0.2066 -0.7995 -0.6993
21965SOL     OW68048   8.512   1.238   2.785 -0.0707  0.2250 -0.0188
21965SOL    HW168049   8.463   1.262   2.707 -1.0489  0.3944  0.6265
21965SOL    HW268050   8.579   1.306   2.794  1.2520 -0.7936 -1.7104
21966SOL     OW68051   1.043   4.146   0.120  0.5112 -0.1546 -0.1743
21966SOL    HW168052   0.974   4.190   0.070 -1.7514 -1.2294  1.7989
21966SOL    HW268053   1.029   4.053   0.103 -0.1349 -0.5292  2.0952
21967SOL     OW68054   0.572   0.095   0.487 -0.6132  0.2510 -0.0942
21967SOL    HW168055   0.622   0.176   0.480  0.9242 -0.3930  2.2923
21967SOL    HW268056   0.481   0.122   0.474 -0.0306  2.1318 -0.5720
21968SOL     OW68057   8.498   6.295   7.399 -0.4893  0.2129 -0.4445
21968SOL    HW168058   8.559   6.323   7.331  0.1838 -0.1888 -0.0205
21968SOL    HW268059   8.546   6.229   7.449 -0.9558  0.5224  0.4466
21969SOL     OW68060   8.668   6.137   0.170 -0.1889  0.6967 -0.3136
21969SOL    HW168061   8.591   6.082   0.158  1.8280 -2.1676 -1.2669
21969SOL    HW268062   8.697   6.158   0.081  1.6473 -0.7249 -0.1266
21970SOL     OW68063   4.266   7.085   2.220 -0.1527 -0.0377  0.2109
21970SOL    HW168064   4.331   7.015   2.208  0.4401  0.5307  0.0621
21970SOL    HW268065   4.285   7.120   2.307 -0.7806 -0.3933  0.4965
21971SOL     OW68066   1.222   3.933   1.027  0.4383  0.3243  0.3686
21971SOL    HW168067   1.250   4.009   1.079  1.4019 -0.1006  0.4977
21971SOL    HW268068   1.273   3.941   0.946 -1.4409  1.2864 -0.8003
21972SOL     OW68069   4.117   8.373   0.095 -0.0473  0.0435  0.2181
21972SOL    HW168070   4.146   8.455   0.135  2.8398  0.1127 -1.7034
21972SOL    HW268071   4.187   8.350   0.034 -1.6490 -2.8857 -0.7215
21973SOL     OW68072   0.669   2.235   4.889 -0.2323  0.1278 -0.4031
21973SOL    HW168073   0.700   2.280   4.968 -0.5490 -0.2513 -0.0619
21973SOL    HW268074   0.575   2.225   4.903 -0.5621  1.4102 -1.4929
21974SOL     OW68075   2.264   6.839   3.148  0.6143  0.1287 -0.3024
21974SOL    HW168076   2.236   6.756   3.187  0.7522  0.4043  0.3910
21974SOL    HW268077   2.186   6.872   3.103  0.7362 -0.6892 -1.1497
21975SOL     OW68078   3.088   5.192   1.818  0.2515  0.7542  0.5929
21975SOL    HW168079   3.048   5.252   1.755 -0.6004 -0.1034  0.2935
21975SOL    HW268080   3.015   5.141   1.853  1.1159 -1.4551 -0.6061
21976SOL     OW68081   6.812   6.138   2.908  0.1809 -0.4026 -0.2908
21976SOL    HW168082   6.765   6.056   2.892  1.6732 -1.6949  1.5406
21976SOL    HW268083   6.883   6.138   2.844 -1.4458  0.9872 -2.2658
21977SOL     OW68084   5.995   7.368   4.651 -0.5309 -0.0078  0.0042
21977SOL    HW168085   5.972   7.278   4.672 -0.4110 -0.5131 -1.8675
21977SOL    HW268086   5.935   7.393   4.580  0.2202  0.9618 -0.3261
21978SOL     OW68087   5.212   6.721   4.704  0.2381  0.0766 -0.0199
21978SOL    HW168088   5.221   6.632   4.738 -0.9302 -0.4993 -1.1209
21978SOL    HW268089   5.133   6.756   4.746 -0.2749 -0.0454 -0.8498
21979SOL     OW68090   4.625   8.432   0.033 -0.4995  0.2395 -0.1352
21979SOL    HW168091   4.717   8.407   0.028 -0.1651  1.2671  0.5778
21979SOL    HW268092   4.591   8.384   0.108 -0.6405 -0.3886 -0.5901
21980SOL     OW68093   8.727   0.231   1.129  0.1972 -0.0413 -0.1605
21980SOL    HW168094   8.683   0.312   1.105  0.8551  0.2211 -0.5035
21980SOL    HW268095   8.786   0.255   1.200 -0.1678 -0.3813  0.2655
21981SOL     OW68096   3.784   6.394   7.721  0.1106 -0.3015  0.1269
21981SOL    HW168097   3.756   6.317   7.672  1.1457 -0.4198 -0.3187
21981SOL    HW268098   3.766   6.468   7.663 -0.4836 -0.2452  0.3785
21982SOL     OW68099   4.361   7.517   8.052 -0.2107  0.4199  0.2528
21982SOL    HW168100   4.345   7.486   7.963  0.2441 -0.9739  0.6284
21982SOL    HW268101   4.280   7.497   8.100  0.1217 -0.3406  0.5210
21983SOL     OW68102   6.702   1.641   1.303  0.3540  0.0487  0.0650
21983SOL    HW168103   6.658   1.560   1.277  0.6370  0.3392 -1.3761
21983SOL    HW268104   6.759   1.662   1.229  1.0642  1.0135  0.8625
21984SOL     OW68105   6.075   2.679   7.724 -0.1887  0.4964  0.1791
21984SOL    HW168106   5.980   2.667   7.719 -0.3877  1.2473  1.5186
21984SOL    HW268107   6.092   2.695   7.817  0.9272  2.7306 -0.3380
21985SOL     OW68108   6.495   8.734   3.804  0.0563 -0.2536  0.1231
21985SOL    HW168109   6.556   8.797   3.767 -1.8326  0.7594 -1.4625
21985SOL    HW268110   6.427   8.787   3.846 -0.7539 -1.2597  0.1298
21986SOL     OW68111   8.864   7.592   5.246  0.7279  0.4374 -1.1081
21986SOL    HW168112   8.770   7.573   5.245 -0.0842  3.7924 -0.2517
21986SOL    HW268113   8.890   7.589   5.154 -0.5526  0.7751 -1.4944
21987SOL     OW68114   6.702   9.025   5.638  0.3151  0.0485  0.0471
21987SOL    HW168115   6.648   8.991   5.566  1.4370 -0.6094 -0.5109
21987SOL    HW268116   6.690   9.120   5.634 -1.0881 -0.0944  0.1837
21988SOL     OW68117   9.603   7.405   9.079  0.5080  0.5693  0.4967
21988SOL    HW168118   9.514   7.437   9.072  0.2669  0.0429  1.0310
21988SOL    HW268119   9.646   7.434   8.999 -0.3943  0.0235 -0.2029
21989SOL     OW68120   5.988   1.379   2.625 -0.0046  0.3981  0.3670
21989SOL    HW168121   6.038   1.298   2.635 -0.4175 -0.0064 -0.6951
21989SOL    HW268122   5.897   1.351   2.627 -0.2395  1.1068  2.0788
21990SOL     OW68123   0.218   2.073   0.543 -0.3966 -0.4603 -0.0987
21990SOL    HW168124   0.167   2.146   0.580 -1.5154 -1.9883  1.5241
21990SOL    HW268125   0.260   2.032   0.619  2.1398 -0.1548 -1.2414
21991SOL     OW68126   3.700   6.065   9.579  0.5234 -0.2175  0.2332
21991SOL    HW168127   3.664   5.978   9.595 -0.2296  0.2076  0.9183
21991SOL    HW268128   3.774   6.050   9.520 -0.6344 -1.1398 -1.0507
21992SOL     OW68129   1.759   4.340   6.961 -0.1917 -0.1979  0.0012
21992SOL    HW168130   1.673   4.371   6.990 -0.4692 -0.7858 -0.1792
21992SOL    HW268131   1.760   4.247   6.984 -0.2266 -0.5667 -1.4208
21993SOL     OW68132   9.410   7.925   6.583 -0.8485 -0.4547  0.2139
21993SOL    HW168133   9.465   7.975   6.643 -1.7048  0.1031  0.5543
21993SOL    HW268134   9.342   7.986   6.555  0.1869 -0.3292 -2.2799
21994SOL     OW68135   4.541   8.384   3.970  0.4029 -0.4915 -0.1703
21994SOL    HW168136   4.530   8.325   3.895  0.1933 -1.2619  0.4573
21994SOL    HW268137   4.635   8.383   3.987  0.2740 -1.6404  0.6063
21995SOL     OW68138   7.164   1.061   5.337 -0.6326 -0.0773  0.1020
21995SOL    HW168139   7.259   1.049   5.331 -0.7455 -1.8740  1.1864
21995SOL    HW268140   7.149   1.084   5.429 -1.2355  0.2787 -0.0841
21996SOL     OW68141   3.314   8.261   5.530 -0.5045  0.3317 -0.4139
21996SOL    HW168142   3.304   8.341   5.478 -0.0055  1.4793  1.1548
21996SOL    HW268143   3.238   8.208   5.508 -0.3196  0.7743 -2.2592
21997SOL     OW68144   4.509   7.607   5.167 -0.2098  0.0696 -0.3419
21997SOL    HW168145   4.510   7.589   5.261 -1.3602 -1.3328 -0.5722
21997SOL    HW268146   4.597   7.641   5.149  1.0605 -2.3241  0.7694
21998SOL     OW68147   1.378   7.877   2.999  0.4548  0.3171  0.2834
21998SOL    HW168148   1.383   7.813   3.070  0.1791 -0.3810 -0.3157
21998SOL    HW268149   1.421   7.955   3.034  1.2166 -0.3425  0.8650
21999SOL     OW68150   3.763   1.451   8.059  0.1142 -0.1247  0.2531
21999SOL    HW168151   3.703   1.381   8.034 -0.5255  0.7885 -0.9021
21999SOL    HW268152   3.849   1.423   8.026  0.1236 -0.9390  0.9509
22000SOL     OW68153   3.502   1.641   9.581 -0.2723  0.0722 -0.3729
22000SOL    HW168154   3.478   1.711   9.642  3.3131  1.8383 -0.7078
22000SOL    HW268155   3.526   1.686   9.501 -1.2338 -1.9192 -1.8642
22001SOL     OW68156   7.215   6.134   0.290  0.1980 -0.2200 -0.0189
22001SOL    HW168157   7.186   6.146   0.200  2.0419 -2.6668 -1.0478
22001SOL    HW268158   7.169   6.055   0.320 -0.8185  0.8743  1.4293
22002SOL     OW68159   8.702   2.123   0.522  0.1587 -0.3442  0.0878
22002SOL    HW168160   8.789   2.141   0.558  0.3882  1.5042 -1.2511
22002SOL    HW268161   8.712   2.040   0.476  1.0845 -0.4049  0.3778
22003SOL     OW68162   1.942   6.315   8.871 -0.1200  0.1509  0.6362
22003SOL    HW168163   1.909   6.361   8.948 -2.3544  1.2339 -0.8732
22003SOL    HW268164   1.935   6.379   8.800  0.3327 -1.3244 -0.8007
22004SOL     OW68165   8.963   7.029   3.815 -0.3719  0.7333  0.2564
22004SOL    HW168166   8.904   6.982   3.874  1.5988 -1.2954  0.7585
22004SOL    HW268167   8.991   7.106   3.865 -0.6698  0.3837  0.9764
22005SOL     OW68168   4.689   7.350   8.984 -0.0016 -0.1942 -0.7675
22005SOL    HW168169   4.724   7.303   8.908  0.4252 -1.7015  0.3114
22005SOL    HW268170   4.766   7.376   9.034 -0.2909 -2.0773  0.7798
22006SOL     OW68171   5.661   8.320   8.410 -0.5845 -0.4016 -0.7317
22006SOL    HW168172   5.567   8.299   8.406 -1.2694  2.2524 -0.6274
22006SOL    HW268173   5.667   8.389   8.476  1.5221 -0.6983 -0.5413
22007SOL     OW68174   1.958   7.187   9.035  0.1411  0.1318 -0.2598
22007SOL    HW168175   1.996   7.221   8.954  0.4291  1.5614  0.4484
22007SOL    HW268176   1.890   7.126   9.005 -0.1217  1.0229 -1.5809
22008SOL     OW68177   8.216   9.507   6.757  0.5779  0.3250 -0.4326
22008SOL    HW168178   8.274   9.503   6.833  2.0525  0.5649 -1.4926
22008SOL    HW268179   8.268   9.471   6.685 -0.7054  0.2838 -1.3814
22009SOL     OW68180   5.030   2.726   6.736 -0.2440 -0.0425  0.0968
22009SOL    HW168181   5.051   2.663   6.806 -1.0183 -1.0312 -0.5441
22009SOL    HW268182   4.938   2.746   6.750 -0.1021  0.6421  0.0447
22010SOL     OW68183   2.715   3.430   8.559 -0.0321  0.0579  0.6495
22010SOL    HW168184   2.768   3.500   8.595 -2.6583  0.9824  3.1153
22010SOL    HW268185   2.638   3.474   8.522  0.5190 -1.2502 -2.3628
22011SOL     OW68186   0.318   9.229   3.325  0.1968  0.3856 -0.8818
22011SOL    HW168187   0.231   9.249   3.291  0.2264  1.0953 -0.5711
22011SOL    HW268188   0.321   9.134   3.330 -1.3562  0.3771  1.0876
22012SOL     OW68189   3.868   3.632   8.973  0.3842 -0.2151  0.1282
22012SOL    HW168190   3.831   3.606   8.888 -1.7101 -0.9023  1.1904
22012SOL    HW268191   3.799   3.683   9.014  1.8710  1.2253  0.9304
22013SOL     OW68192   8.853   7.958   7.223 -0.1656 -0.1027 -0.3889
22013SOL    HW168193   8.760   7.941   7.235  0.0564 -0.9773  0.2033
22013SOL    HW268194   8.878   7.908   7.146  0.1579 -1.2866  0.4505
22014SOL     OW68195   5.856   2.689   1.365 -0.2680 -0.5328 -0.4413
22014SOL    HW168196   5.900   2.654   1.443  1.4648  0.2066 -1.0188
22014SOL    HW268197   5.763   2.682   1.384  0.0984 -0.1672  1.8023
22015SOL     OW68198   7.356   3.373   3.069  1.0023  0.3789  0.8072
22015SOL    HW168199   7.326   3.454   3.110  0.8219 -0.1553  1.7562
22015SOL    HW268200   7.388   3.400   2.983  0.6252  1.4026  0.9774
22016SOL     OW68201   4.846   9.462   7.743 -0.0184  0.5101 -0.0120
22016SOL    HW168202   4.902   9.466   7.666 -1.2481 -1.0485 -1.0452
22016SOL    HW268203   4.907   9.464   7.817  1.2516  0.9719 -1.0238
22017SOL     OW68204   6.756   5.287   4.234  0.3594  0.1251  0.1897
22017SOL    HW168205   6.744   5.344   4.158 -0.2336  0.0011  0.1817
22017SOL    HW268206   6.727   5.341   4.308  2.8272  0.9847  0.6273
22018SOL     OW68207   8.846   8.307   8.640 -0.3079  0.2001 -0.2416
22018SOL    HW168208   8.886   8.271   8.561 -1.3590 -1.0232 -0.2444
22018SOL    HW268209   8.917   8.309   8.705  0.3508  0.4244 -0.9509
22019SOL     OW68210   1.373   4.582   9.366  0.0706 -0.2116  0.0782
22019SOL    HW168211   1.341   4.659   9.319 -0.6628 -1.8867 -2.3376
22019SOL    HW268212   1.467   4.597   9.375 -0.0484  0.9375 -0.4307
22020SOL     OW68213   2.556   2.751   6.992  0.1294  0.1634  0.2512
22020SOL    HW168214   2.519   2.839   6.987 -0.5998 -0.1382  0.2805
22020SOL    HW268215   2.488   2.698   7.032 -0.3282 -0.8908 -1.8067
22021SOL     OW68216   8.986   8.394   3.198 -0.1482  0.3256 -0.0861
22021SOL    HW168217   8.998   8.301   3.177 -2.5452 -0.2763  0.8077
22021SOL    HW268218   8.914   8.394   3.262  0.3805  2.7503  0.5920
22022SOL     OW68219   1.146   1.281   6.401 -0.4994  0.4860  0.0533
22022SOL    HW168220   1.119   1.198   6.441  2.4637 -1.3790 -1.4119
22022SOL    HW268221   1.161   1.259   6.309  1.7503  2.2541 -0.0912
22023SOL     OW68222   7.234   1.818   5.945  0.2734 -0.3611  0.1353
22023SOL    HW168223   7.307   1.776   5.900  0.3674  0.0442 -0.0943
22023SOL    HW268224   7.159   1.803   5.888 -0.1587 -2.1250  1.1139
22024SOL     OW68225   1.824   2.961   1.501 -0.3266 -0.3373 -0.3427
22024SOL    HW168226   1.773   3.017   1.559 -0.3133 -0.7847  0.1160
22024SOL    HW268227   1.836   3.012   1.421 -0.6511  0.1500 -0.0822
22025SOL     OW68228   7.355   3.008   1.988  0.4155 -0.2447 -0.5818
22025SOL    HW168229   7.328   2.921   2.017 -0.7176  0.4298  0.4525
22025SOL    HW268230   7.379   2.996   1.896 -1.6979 -1.2572 -1.0560
22026SOL     OW68231   2.880   1.333   5.152 -0.0473 -0.0755  0.0119
22026SOL    HW168232   2.923   1.248   5.161 -1.2398 -0.5997  1.0092
22026SOL    HW268233   2.936   1.393   5.202  0.5163 -0.3740 -0.2518
22027SOL     OW68234   7.599   9.233   1.446  0.0692  0.3335 -0.1880
22027SOL    HW168235   7.638   9.191   1.523  1.3844 -0.2301 -1.1119
22027SOL    HW268236   7.647   9.315   1.437 -0.5015  0.6850 -0.0640
22028SOL     OW68237   5.049   6.199   9.015 -0.1882 -0.1855 -0.0688
22028SOL    HW168238   5.087   6.118   9.048  0.2806  0.5820  1.3154
22028SOL    HW268239   5.107   6.225   8.943  0.5091 -0.3093  0.4403
22029SOL     OW68240   2.012   9.377   2.203  0.1859 -0.5396  0.2523
22029SOL    HW168241   2.029   9.283   2.205  2.1866 -0.2128  1.4873
22029SOL    HW268242   2.098   9.417   2.217 -0.8751  1.4475  1.6091
22030SOL     OW68243   8.818   5.591   5.712  0.3022  0.2719 -0.1435
22030SOL    HW168244   8.756   5.551   5.652  1.7778 -0.3723 -1.3051
22030SOL    HW268245   8.904   5.559   5.684  1.0414 -0.6245  2.7324
22031SOL     OW68246   5.714   3.231   7.538  0.7267 -0.1251 -0.3140
22031SOL    HW168247   5.700   3.158   7.478 -2.6729  0.7863 -0.7981
22031SOL    HW268248   5.713   3.309   7.482  0.5248  0.5418  0.5871
22032SOL     OW68249   4.999   4.091   5.679  0.3367  0.0378  0.1006
22032SOL    HW168250   4.999   4.151   5.753 -0.8428  0.2955 -0.0839
22032SOL    HW268251   4.924   4.119   5.626  0.5612 -0.7763 -0.6669
22033SOL     OW68252   6.877   8.253   2.016 -0.1374 -0.4945  0.1511
22033SOL    HW168253   6.870   8.159   2.001 -0.2990 -0.2356 -1.5002
22033SOL    HW268254   6.953   8.280   1.964  0.5353  0.1448  1.4113
22034SOL     OW68255   2.746   8.873   8.733 -0.0136 -0.4409  0.6223
22034SOL    HW168256   2.692   8.799   8.763 -1.4684 -0.2701 -1.3177
22034SOL    HW268257   2.727   8.944   8.794 -1.1805 -0.7237  0.6079
22035SOL     OW68258   4.171   6.984   4.036  0.1848 -0.2400  0.2722
22035SOL    HW168259   4.159   6.896   4.073 -0.5385  0.9774  3.1986
22035SOL    HW268260   4.083   7.015   4.019  0.4291  0.0371 -0.5317
22036SOL     OW68261   3.436   0.217   4.235 -0.2151 -0.6108 -0.0015
22036SOL    HW168262   3.398   0.271   4.306  1.4763  0.4162  0.1750
22036SOL    HW268263   3.434   0.128   4.269  0.1689 -0.1872  1.1818
22037SOL     OW68264   3.231   8.885   8.339  0.0109  0.0489 -0.1398
22037SOL    HW168265   3.226   8.979   8.356 -0.4843 -0.1823  1.0968
22037SOL    HW268266   3.149   8.864   8.293 -1.4069 -0.2849  2.3740
22038SOL     OW68267   3.283   3.763   8.782  0.1150  0.1497  0.2285
22038SOL    HW168268   3.312   3.851   8.807 -0.1161  0.4069 -0.3826
22038SOL    HW268269   3.283   3.713   8.864  1.2358  0.4404  0.4230
22039SOL     OW68270   0.943   5.584   7.950 -0.0047 -0.8110 -0.2145
22039SOL    HW168271   0.998   5.506   7.951 -1.0336 -1.6583 -2.8455
22039SOL    HW268272   0.998   5.651   7.910 -0.0175 -0.9430 -0.4547
22040SOL     OW68273   0.835   7.638   4.706  0.4840  0.0091  0.0007
22040SOL    HW168274   0.808   7.727   4.729  2.0666  1.3169 -2.6171
22040SOL    HW268275   0.911   7.621   4.762 -0.0527  0.1402  0.7815
22041SOL     OW68276   6.235   6.596   7.411  0.1105 -0.1771  0.2596
22041SOL    HW168277   6.246   6.634   7.499  0.4582 -0.3099  0.2754
22041SOL    HW268278   6.219   6.671   7.354  2.5066  0.2106 -0.0045
22042SOL     OW68279   2.818   1.530   1.914 -0.2396 -0.1603  0.6391
22042SOL    HW168280   2.824   1.540   2.009 -0.2670  3.8431  0.4281
22042SOL    HW268281   2.877   1.597   1.880  2.2924 -3.5336 -2.3419
22043SOL     OW68282   4.388   4.542   0.182 -0.2902  0.0068  0.0477
22043SOL    HW168283   4.310   4.556   0.129 -0.4292 -0.0978  0.2254
22043SOL    HW268284   4.460   4.575   0.127 -0.2154 -1.6827 -0.9466
22044SOL     OW68285   7.829   1.254   1.640 -0.2845 -0.2785 -0.4100
22044SOL    HW168286   7.804   1.341   1.670 -0.4252 -0.4726  0.0321
22044SOL    HW268287   7.749   1.216   1.605 -0.0024  0.1754 -1.6215
22045SOL     OW68288   7.965   7.978   3.562  0.9487  0.5421 -0.7804
22045SOL    HW168289   7.985   7.931   3.644 -2.9161 -0.7396 -0.3699
22045SOL    HW268290   7.978   8.070   3.584  3.3324  0.0627  0.1323
22046SOL     OW68291   6.525   3.188   1.152  0.1206 -0.5493 -0.3333
22046SOL    HW168292   6.485   3.244   1.086 -1.7796 -0.2659  0.9975
22046SOL    HW268293   6.578   3.248   1.205 -0.7947 -0.2150  0.2329
22047SOL     OW68294   9.095   6.871   8.868  0.0789  0.1721 -0.3479
22047SOL    HW168295   9.132   6.788   8.899 -0.3798 -0.8171 -2.2715
22047SOL    HW268296   9.166   6.910   8.816 -0.2744  0.1376 -0.8616
22048SOL     OW68297   9.155   4.103   5.076  0.2149  0.0237  0.0384
22048SOL    HW168298   9.235   4.054   5.059 -0.0616 -0.8596  1.1363
22048SOL    HW268299   9.184   4.185   5.115  0.6370  0.2431 -0.7350
22049SOL     OW68300   0.947   9.083   4.081  0.5010  0.6657 -0.0342
22049SOL    HW168301   0.961   9.030   4.003 -0.8111  0.7227 -0.3393
22049SOL    HW268302   1.023   9.141   4.085  0.7427  0.4392 -1.0788
22050SOL     OW68303   5.821   7.272   6.349 -0.0459 -0.6296 -0.8056
22050SOL    HW168304   5.906   7.296   6.313 -0.8540  2.3148 -0.9855
22050SOL    HW268305   5.813   7.325   6.428 -0.7773 -2.6512  0.5664
22051SOL     OW68306   8.982   7.969   5.198 -0.1176 -0.2193  0.3009
22051SOL    HW168307   8.926   8.018   5.136 -2.7730 -2.6228  0.5925
22051SOL    HW268308   9.022   7.901   5.145 -0.0070 -0.4573  0.6891
22052SOL     OW68309   1.450   5.917   8.660 -0.1454  0.0769  0.2353
22052SOL    HW168310   1.443   5.913   8.756  0.6662  0.9769  0.3547
22052SOL    HW268311   1.430   5.829   8.630 -3.3458  0.4090  1.0083
22053SOL     OW68312   1.579   3.482   6.735 -0.0247  0.2956 -0.1641
22053SOL    HW168313   1.495   3.474   6.691 -0.9000  2.8383  0.8465
22053SOL    HW268314   1.627   3.548   6.685 -0.3588  1.9519  1.5544
22054SOL     OW68315   5.161   5.768   3.734  0.0196  0.2427 -0.5785
22054SOL    HW168316   5.110   5.849   3.737  0.2884  0.3838  1.1404
22054SOL    HW268317   5.238   5.786   3.788  1.4964 -0.2600 -2.4151
22055SOL     OW68318   0.584   9.119   1.462 -0.1541 -0.2106 -0.2392
22055SOL    HW168319   0.511   9.135   1.522  0.6096  2.0545  0.1873
22055SOL    HW268320   0.549   9.140   1.376 -0.6020 -1.2658 -0.3287
22056SOL     OW68321   7.970   4.420   1.758  0.7602  0.1287 -0.3132
22056SOL    HW168322   7.921   4.346   1.793  0.0838  0.0504 -1.3831
22056SOL    HW268323   8.062   4.399   1.777  0.6820 -1.5465 -1.5975
22057SOL     OW68324   1.867   4.343   3.162 -0.2105  0.0425  0.1587
22057SOL    HW168325   1.804   4.291   3.213 -0.2092  0.1663  0.2887
22057SOL    HW268326   1.909   4.280   3.105  0.4722 -0.2751  0.9917
22058SOL     OW68327   1.237   7.162   2.345 -0.6224  0.1008  0.0652
22058SOL    HW168328   1.282   7.127   2.269  0.5527 -0.9787  1.2170
22058SOL    HW268329   1.164   7.102   2.360  0.7925 -1.3652  1.4249
22059SOL     OW68330   9.372   0.795   4.548  0.0911 -0.0946 -0.2759
22059SOL    HW168331   9.339   0.842   4.625 -1.4728  0.1338 -1.0369
22059SOL    HW268332   9.358   0.703   4.568  0.4425 -0.0779  0.0441
22060SOL     OW68333   2.605   6.872   2.068  0.1267 -0.1731 -0.1883
22060SOL    HW168334   2.572   6.883   2.157  1.1272 -3.2099  0.6867
22060SOL    HW268335   2.544   6.812   2.027 -0.7823  1.8233 -1.9219
22061SOL     OW68336   1.511   8.357   7.602 -0.2447 -0.5179 -0.3239
22061SOL    HW168337   1.499   8.266   7.574  0.0625  0.1101 -2.6363
22061SOL    HW268338   1.593   8.355   7.652  0.3070 -1.3472 -1.2258
22062SOL     OW68339   9.496   4.374   8.039 -0.7710  0.8883 -0.0619
22062SOL    HW168340   9.582   4.334   8.048 -0.6924  0.7269 -1.4039
22062SOL    HW268341   9.473   4.363   7.947 -2.8818 -0.4004  0.5442
22063SOL     OW68342   8.928   7.183   6.645  0.1815  0.0415  0.4512
22063SOL    HW168343   8.952   7.225   6.728  2.7663  0.6780 -0.5301
22063SOL    HW268344   8.950   7.247   6.578  0.0374 -1.2280 -0.8534
22064SOL     OW68345   0.656   9.237   7.967  0.5424 -0.0581  0.3246
22064SOL    HW168346   0.712   9.312   7.950 -1.1767  0.9642 -1.1825
22064SOL    HW268347   0.713   9.174   8.010  2.5104  1.3774 -0.0373
22065SOL     OW68348   5.652   3.145   2.511  0.1618 -0.1947  0.2232
22065SOL    HW168349   5.602   3.065   2.491  1.1982 -1.2008  1.4813
22065SOL    HW268350   5.731   3.113   2.554  0.1456  1.5796  1.6636
22066SOL     OW68351   3.959   4.520   7.322 -0.5815 -0.1735 -0.0876
22066SOL    HW168352   3.953   4.430   7.290 -0.3496 -0.2563  0.0970
22066SOL    HW268353   3.919   4.573   7.253  1.5483 -0.1630 -1.3893
22067SOL     OW68354   9.364   2.491   1.014 -0.9266 -0.2728 -0.8147
22067SOL    HW168355   9.315   2.539   0.947  0.3980 -0.5764 -2.0638
22067SOL    HW268356   9.323   2.405   1.016 -1.0352 -0.2339 -1.2010
22068SOL     OW68357   1.376   9.618   2.315 -0.3222  0.5272  0.1764
22068SOL    HW168358   1.361   9.523   2.318  1.1254  0.3021  2.7996
22068SOL    HW268359   1.290   9.656   2.329 -1.0908 -0.3224 -1.8343
22069SOL     OW68360   1.100   8.980   6.286 -0.4178 -0.2970 -0.0944
22069SOL    HW168361   1.105   9.072   6.264  0.9878  0.2925  2.2912
22069SOL    HW268362   1.008   8.965   6.309 -1.3023 -0.2903 -3.1298
22070SOL     OW68363   5.598   0.804   8.711 -0.6745  0.3011  0.5282
22070SOL    HW168364   5.614   0.868   8.781 -2.0775  0.5495  0.6661
22070SOL    HW268365   5.677   0.751   8.708  0.0255  1.2587  1.2665
22071SOL     OW68366   8.815   4.399   4.678  0.6551  0.8090 -0.3330
22071SOL    HW168367   8.813   4.323   4.735 -2.5273 -0.1571 -1.5551
22071SOL    HW268368   8.851   4.367   4.595  0.6997  1.0320 -0.4029
22072SOL     OW68369   1.814   6.616   4.219  0.0754 -0.3173 -0.1288
22072SOL    HW168370   1.880   6.654   4.277 -2.3780  1.1005  1.9316
22072SOL    HW268371   1.807   6.679   4.147  0.5939 -0.2211 -0.1026
22073SOL     OW68372   1.188   8.544   3.555  0.6238 -0.0223  0.5757
22073SOL    HW168373   1.215   8.635   3.568 -1.4487  0.7528 -0.1028
22073SOL    HW268374   1.104   8.537   3.599 -0.0760 -1.1018 -0.8312
22074SOL     OW68375   3.747   0.705   2.347  0.3579 -0.3452  0.6013
22074SOL    HW168376   3.831   0.741   2.318 -0.8070  1.3561 -0.8377
22074SOL    HW268377   3.688   0.717   2.273 -1.5314 -0.2310  2.0262
22075SOL     OW68378   8.920   2.877   4.614  0.4673 -0.6432  0.2701
22075SOL    HW168379   8.925   2.828   4.532 -1.2086 -1.8072  0.8052
22075SOL    HW268380   8.938   2.968   4.589 -0.6188 -0.8720 -1.4992
22076SOL     OW68381   8.428   9.254   6.853  0.2440 -0.1516 -0.2976
22076SOL    HW168382   8.388   9.335   6.885 -2.0046 -0.9395 -0.8641
22076SOL    HW268383   8.471   9.216   6.929 -0.4690  0.5664  0.4820
22077SOL     OW68384   3.440   5.085   7.183  0.1361  0.4905  0.4027
22077SOL    HW168385   3.431   5.164   7.235  1.1207 -0.2031  1.6982
22077SOL    HW268386   3.365   5.086   7.124  0.0257  2.2778  0.5156
22078SOL     OW68387   7.336   2.192   2.048 -0.1436 -0.3048 -0.6130
22078SOL    HW168388   7.360   2.265   1.991 -0.7941 -0.3622 -0.9731
22078SOL    HW268389   7.242   2.179   2.032 -0.1480 -0.8729 -0.1582
22079SOL     OW68390   2.666   9.574   2.993 -0.0015 -0.0431  0.1440
22079SOL    HW168391   2.576   9.542   2.991 -0.7233  1.8053  1.2280
22079SOL    HW268392   2.687   9.583   3.086  1.6874 -1.3373 -0.0496
22080SOL     OW68393   7.756   3.348   4.329 -0.2613  0.1640  0.6086
22080SOL    HW168394   7.742   3.415   4.396 -0.1802  0.6317  0.1519
22080SOL    HW268395   7.678   3.353   4.273  0.4563  0.9392 -0.3444
22081SOL     OW68396   2.962   3.020   4.042  0.2629  0.0402  0.2054
22081SOL    HW168397   2.954   2.927   4.021 -2.6340  0.5049 -1.3056
22081SOL    HW268398   2.999   3.059   3.963 -1.3501  0.5145 -0.3475
22082SOL     OW68399   0.193   9.343   1.520  0.1010 -0.4490 -0.3758
22082SOL    HW168400   0.153   9.419   1.563 -0.1414 -0.9160  0.2425
22082SOL    HW268401   0.119   9.297   1.478  0.2235 -0.4306 -0.6135
22083SOL     OW68402   7.271   0.723   0.655  0.4760 -0.2127  0.5733
22083SOL    HW168403   7.241   0.807   0.689  1.5555 -0.5726  2.5197
22083SOL    HW268404   7.240   0.658   0.719 -0.3406 -1.3440 -0.8932
22084SOL     OW68405   0.632   6.221   6.911  0.5410  0.3258  0.3419
22084SOL    HW168406   0.627   6.142   6.964  0.8992  0.1637  0.1391
22084SOL    HW268407   0.546   6.228   6.869  0.3838  0.2512  0.6503
22085SOL     OW68408   1.170   3.012   2.032  0.2374 -0.5509  0.2826
22085SOL    HW168409   1.158   2.968   2.117 -0.6489 -2.1835 -0.6397
22085SOL    HW268410   1.151   3.104   2.051  0.6439 -0.7671  1.9709
22086SOL     OW68411   6.771   1.045   2.989 -0.1089 -0.2429 -0.5868
22086SOL    HW168412   6.778   0.951   2.976 -0.9021 -0.4151  0.1345
22086SOL    HW268413   6.861   1.075   2.999  0.0616 -1.2041  0.9600
22087SOL     OW68414   7.740   9.266   3.392  0.2686  0.0981  0.0612
22087SOL    HW168415   7.657   9.222   3.406 -0.9311  2.0725 -0.3961
22087SOL    HW268416   7.787   9.256   3.474 -1.3647  0.7917  1.1270
22088SOL     OW68417   2.417   7.834   8.350  1.0401 -0.0729 -0.2384
22088SOL    HW168418   2.485   7.802   8.292  1.6296  3.1012 -1.5241
22088SOL    HW268419   2.464   7.862   8.429  0.7045 -1.2011  0.3754
22089SOL     OW68420   4.815   3.119   6.126  0.3698 -0.1906 -0.5425
22089SOL    HW168421   4.893   3.160   6.087  2.4438 -0.5399  2.8463
22089SOL    HW268422   4.850   3.048   6.180 -2.2402 -0.0763  1.4824
22090SOL     OW68423   1.771   1.566   0.398 -0.5990  0.2359 -0.1018
22090SOL    HW168424   1.712   1.623   0.350 -1.4267 -1.4053 -1.1365
22090SOL    HW268425   1.814   1.623   0.462  0.5511  2.5253 -2.7467
22091SOL     OW68426   4.132   5.024   1.173 -0.6242  0.0394  0.1835
22091SOL    HW168427   4.163   5.077   1.099  1.5081  0.4391  1.2858
22091SOL    HW268428   4.206   4.967   1.194 -1.7998 -1.2508  0.9801
22092SOL     OW68429   5.275   8.690   7.983 -0.7880 -0.0996 -0.5570
22092SOL    HW168430   5.206   8.624   7.993 -0.6369 -0.0938  0.7146
22092SOL    HW268431   5.249   8.761   8.041  0.4876 -0.2787  0.2680
22093SOL     OW68432   2.766   2.695   5.501 -0.0080  0.5283 -0.0908
22093SOL    HW168433   2.820   2.773   5.488  0.2713  0.5000  0.8423
22093SOL    HW268434   2.816   2.625   5.461  1.6340  0.1491  2.4133
22094SOL     OW68435   8.800   2.132   6.940 -0.2201 -0.5786 -0.1629
22094SOL    HW168436   8.759   2.200   6.994  0.9502  0.3550 -0.4188
22094SOL    HW268437   8.753   2.137   6.856  1.2159  1.4205 -0.9346
22095SOL     OW68438   1.657   8.870   3.797 -0.0253 -0.1932 -0.1562
22095SOL    HW168439   1.725   8.814   3.761 -0.0387 -1.1960  1.2709
22095SOL    HW268440   1.586   8.810   3.819  0.4270  0.1196  2.5238
22096SOL     OW68441   6.626   7.376   8.134 -0.2298  0.0742 -0.2908
22096SOL    HW168442   6.719   7.394   8.118 -0.0706 -0.8839 -0.5354
22096SOL    HW268443   6.588   7.371   8.046 -0.2045 -1.0076 -0.2540
22097SOL     OW68444   4.651   8.030   0.341 -0.5963  0.3177 -0.1615
22097SOL    HW168445   4.612   7.990   0.418  1.6609 -0.7505  0.5085
22097SOL    HW268446   4.690   7.956   0.293 -1.4085  1.0381 -2.0146
22098SOL     OW68447   4.605   5.288   7.936  0.3663  0.5258  0.6112
22098SOL    HW168448   4.598   5.206   7.984 -1.2754  0.7772  0.8850
22098SOL    HW268449   4.686   5.280   7.885 -0.1544 -1.6079  0.0087
22099SOL     OW68450   6.581   4.232   2.636 -0.4331  0.0218  0.1305
22099SOL    HW168451   6.584   4.200   2.726 -0.2731  0.6304  0.3531
22099SOL    HW268452   6.626   4.165   2.585 -1.5788 -0.9133  0.3086
22100SOL     OW68453   3.306   2.562   0.801  0.0879 -0.4395  0.1411
22100SOL    HW168454   3.356   2.485   0.776  0.1446 -0.2596 -0.3038
22100SOL    HW268455   3.290   2.551   0.895 -0.3226 -1.2298 -0.0169
22101SOL     OW68456   2.891   3.697   1.470 -0.3477  0.2334 -0.0538
22101SOL    HW168457   2.812   3.745   1.447 -0.6244 -0.4564 -0.5610
22101SOL    HW268458   2.933   3.677   1.386 -0.7596 -1.2809  0.0680
22102SOL     OW68459   6.491   4.592   7.863  0.0249  0.0161  0.2159
22102SOL    HW168460   6.475   4.556   7.775  0.2735  1.1723 -0.3128
22102SOL    HW268461   6.421   4.555   7.917  0.2344 -1.2168 -0.3099
22103SOL     OW68462   5.714   0.831   3.142 -0.2655  0.0836 -0.0826
22103SOL    HW168463   5.775   0.848   3.070 -2.1911  0.7634 -1.6414
22103SOL    HW268464   5.734   0.741   3.169  1.7802  0.4734 -0.1305
22104SOL     OW68465   7.131   5.658   7.342 -0.2372  0.5285  0.6216
22104SOL    HW168466   7.191   5.728   7.366  0.1352 -0.2061  1.9481
22104SOL    HW268467   7.093   5.686   7.258 -0.1963  2.3532  1.1653
22105SOL     OW68468   3.759   0.461   9.333  0.5626 -0.2738 -0.1847
22105SOL    HW168469   3.781   0.554   9.328  0.3192  0.0278  2.6739
22105SOL    HW268470   3.666   0.457   9.313  0.8480 -0.1458 -1.6901
22106SOL     OW68471   7.469   5.864   4.482 -0.5879 -0.3646  0.1581
22106SOL    HW168472   7.441   5.847   4.572 -3.4187  0.7247 -0.4076
22106SOL    HW268473   7.430   5.794   4.431 -1.0066  0.3394 -0.5052
22107SOL     OW68474   3.376   1.729   0.386  0.0224  0.5102 -0.2901
22107SOL    HW168475   3.413   1.770   0.464 -0.9640  0.2372  0.3452
22107SOL    HW268476   3.281   1.736   0.398 -0.1538 -0.5152 -0.9493
22108SOL     OW68477   7.350   6.409   6.817  0.3322 -0.3203 -0.0999
22108SOL    HW168478   7.421   6.430   6.756  0.6514  2.0384  0.9733
22108SOL    HW268479   7.272   6.407   6.762  0.8120  0.3367 -0.8347
22109SOL     OW68480   4.635   4.232   4.377 -0.6647 -0.1438 -0.5727
22109SOL    HW168481   4.587   4.315   4.381  0.9861  0.8326  0.6270
22109SOL    HW268482   4.625   4.195   4.464  0.7069  0.0980 -0.2853
22110SOL     OW68483   8.678   4.279   7.555  0.1318 -0.2216  0.1598
22110SOL    HW168484   8.655   4.341   7.624  1.2869 -1.2075  1.4639
22110SOL    HW268485   8.686   4.333   7.476  1.1407  1.3063  1.2608
22111SOL     OW68486   1.917   3.616   5.150 -0.3119  0.1790 -0.3058
22111SOL    HW168487   1.973   3.626   5.073  1.3577  0.7094  0.9332
22111SOL    HW268488   1.884   3.704   5.166 -0.7508  0.0466 -0.4569
22112SOL     OW68489   7.207   1.113   1.545  0.6389  0.2291 -0.3143
22112SOL    HW168490   7.191   1.036   1.490 -1.0655 -0.2470  0.7714
22112SOL    HW268491   7.287   1.092   1.593  1.5438  0.1912 -1.7728
22113SOL     OW68492   1.285   3.027   2.696  0.0763  0.1770  0.3427
22113SOL    HW168493   1.233   3.033   2.776  1.5983  2.6409  1.2391
22113SOL    HW268494   1.228   2.980   2.634 -1.5830 -0.7932  2.4776
22114SOL     OW68495   4.894   9.456   6.941 -0.4059 -0.4465 -0.0006
22114SOL    HW168496   4.928   9.511   7.011  1.9166 -1.0610 -0.5662
22114SOL    HW268497   4.932   9.492   6.861  0.3037 -2.1885 -0.4954
22115SOL     OW68498   0.449   9.352   6.048  0.3532  0.3288  0.3769
22115SOL    HW168499   0.526   9.341   5.993  0.2368  0.7673  0.1216
22115SOL    HW268500   0.380   9.305   6.001  0.0776  1.3317 -0.2358
22116SOL     OW68501   6.270   1.819   8.645  0.1844  0.5373 -0.1639
22116SOL    HW168502   6.202   1.781   8.589 -0.1014  0.4160  0.2552
22116SOL    HW268503   6.221   1.864   8.714  0.5282  0.8344 -0.1100
22117SOL     OW68504   8.391   4.911   2.137  0.0171 -0.5469 -0.1452
22117SOL    HW168505   8.318   4.973   2.145 -0.0519 -0.5440 -0.7720
22117SOL    HW268506   8.402   4.899   2.043  2.7693  1.7690 -0.2644
22118SOL     OW68507   8.072   6.761   9.331 -0.2977  0.1775 -0.2439
22118SOL    HW168508   8.083   6.703   9.256  1.9050 -0.9066  0.8349
22118SOL    HW268509   8.161   6.782   9.359 -1.0579  1.4771  1.3747
22119SOL     OW68510   0.249   6.486   7.223  0.1381 -0.3135 -0.1852
22119SOL    HW168511   0.279   6.550   7.159 -0.3908  0.0018 -0.1201
22119SOL    HW268512   0.330   6.442   7.253  0.8547  2.0485  1.6518
22120SOL     OW68513   0.482   0.117   5.212  0.2833 -0.6367 -0.6813
22120SOL    HW168514   0.537   0.094   5.287 -1.8509 -2.0542  0.5416
22120SOL    HW268515   0.515   0.202   5.183  2.0893 -0.7259  0.9440
22121SOL     OW68516   8.771   0.123   7.365  0.1285  0.2059 -0.6533
22121SOL    HW168517   8.771   0.040   7.413  1.9506  0.7962  0.4573
22121SOL    HW268518   8.832   0.108   7.292  1.4101  0.9078  0.2449
22122SOL     OW68519   3.536   2.886   0.567 -0.6391 -0.0168  0.1334
22122SOL    HW168520   3.555   2.943   0.642 -0.8483  0.1381  0.0704
22122SOL    HW268521   3.469   2.934   0.518 -0.6415 -0.2085 -0.0483
22123SOL     OW68522   1.185   7.662   6.454  0.7147 -0.3541 -0.1846
22123SOL    HW168523   1.113   7.714   6.418  0.7315  0.9430  1.5280
22123SOL    HW268524   1.260   7.683   6.399  0.2142 -0.2634 -0.8416
22124SOL     OW68525   7.723   7.885   5.174 -0.4438  0.1933 -0.9686
22124SOL    HW168526   7.730   7.825   5.248  1.5201 -0.6970 -1.8178
22124SOL    HW268527   7.781   7.849   5.108 -1.4068  1.4954 -2.6089
22125SOL     OW68528   0.732   8.708   3.605 -0.0777 -0.2398  1.0735
22125SOL    HW168529   0.800   8.691   3.671  0.0139  0.4236  1.1621
22125SOL    HW268530   0.652   8.718   3.657  0.2924  2.1392  1.3168
22126SOL     OW68531   6.725   0.893   2.228  1.1279 -0.0642  0.3634
22126SOL    HW168532   6.688   0.897   2.140  0.6478 -0.8558  0.5201
22126SOL    HW268533   6.748   0.983   2.249  1.1667  0.1418 -0.5394
22127SOL     OW68534   9.614   9.403   3.097 -0.1142 -0.8323  0.1557
22127SOL    HW168535   9.645   9.335   3.037 -2.2799 -1.0823 -0.7537
22127SOL    HW268536   9.529   9.372   3.128 -1.6986  1.8380 -1.1009
22128SOL     OW68537   3.315   8.131   1.847 -0.4574 -0.2809 -0.1407
22128SOL    HW168538   3.273   8.048   1.870  0.7579 -0.3690  1.9957
22128SOL    HW268539   3.396   8.105   1.804  1.1531 -0.3899  2.6994
22129SOL     OW68540   8.916   7.392   3.104 -0.1267 -0.2291 -0.1852
22129SOL    HW168541   8.952   7.303   3.107 -0.3801 -0.3343 -0.2631
22129SOL    HW268542   8.929   7.421   3.014  2.0074  0.6700  0.3409
22130SOL     OW68543   5.543   1.208   7.384 -0.3391  0.1097 -0.0556
22130SOL    HW168544   5.618   1.256   7.420 -1.0366  0.9179  0.3737
22130SOL    HW268545   5.538   1.237   7.293 -2.1265  2.7719  0.7448
22131SOL     OW68546   6.897   5.609   2.009  0.7508  0.2404  0.6957
22131SOL    HW168547   6.904   5.674   1.939  2.2844 -1.3900 -0.7864
22131SOL    HW268548   6.961   5.637   2.074 -0.8383  1.8919  1.6635
22132SOL     OW68549   3.896   6.304   8.705  0.1785 -0.4481 -0.0371
22132SOL    HW168550   3.981   6.304   8.662  0.1639 -1.0267 -0.0786
22132SOL    HW268551   3.857   6.388   8.682  1.6436  0.8145  1.8316
22133SOL     OW68552   3.311   1.475   9.503 -0.2659 -0.3100 -0.1519
22133SOL    HW168553   3.249   1.545   9.485  0.1865 -0.0640 -0.7765
22133SOL    HW268554   3.389   1.519   9.536 -0.4559 -0.6267  0.7452
22134SOL     OW68555   4.783   2.224   9.574 -0.1364  0.6115  0.9284
22134SOL    HW168556   4.874   2.255   9.579 -0.1379  1.1160 -1.1856
22134SOL    HW268557   4.734   2.286   9.627  0.5564  1.3197  0.7697
22135SOL     OW68558   0.572   2.293   2.551  0.3868 -0.0217 -0.0414
22135SOL    HW168559   0.485   2.326   2.574 -0.2363 -2.2610  1.0261
22135SOL    HW268560   0.632   2.355   2.593 -0.7187 -0.0867  1.7688
22136SOL     OW68561   6.098   0.873   3.721  0.2511  0.3539 -0.2403
22136SOL    HW168562   6.050   0.956   3.729 -3.2817 -0.9725 -3.8268
22136SOL    HW268563   6.033   0.806   3.745  1.4796 -1.4772 -1.7458
22137SOL     OW68564   5.423   6.935   6.076  0.1843 -0.3897  0.0181
22137SOL    HW168565   5.430   6.968   6.165  0.1563  1.0997 -0.5130
22137SOL    HW268566   5.360   6.862   6.082 -0.1120 -0.0503  1.1388
22138SOL     OW68567   1.310   3.817   1.491  0.0812  0.6445 -0.5034
22138SOL    HW168568   1.354   3.812   1.406  0.8931 -0.2118 -0.0568
22138SOL    HW268569   1.353   3.749   1.544  0.0343  1.5791  0.7867
22139SOL     OW68570   3.145   9.521   0.097  0.1975  0.0960  0.4515
22139SOL    HW168571   3.058   9.483   0.099 -0.4878  1.5447 -0.4478
22139SOL    HW268572   3.181   9.503   0.184 -0.9469 -0.5817  0.8073
22140SOL     OW68573   9.283   4.755   7.766 -0.4370 -0.6050 -0.1972
22140SOL    HW168574   9.271   4.748   7.861  0.5654 -1.6140 -0.1222
22140SOL    HW268575   9.266   4.666   7.734  1.1814 -0.7645 -0.7089
22141SOL     OW68576   5.542   6.224   4.182 -0.0352 -0.1928  0.7071
22141SOL    HW168577   5.616   6.198   4.125  0.3536 -0.0499  1.1410
22141SOL    HW268578   5.522   6.314   4.155 -0.9855 -0.7102 -0.3810
22142SOL     OW68579   3.122   3.280   6.718 -0.1645  0.3597 -0.1077
22142SOL    HW168580   3.119   3.254   6.810 -0.2802  2.6385  0.5918
22142SOL    HW268581   3.043   3.333   6.706  0.6001  1.3074 -1.1067
22143SOL     OW68582   7.484   3.027   4.264 -0.8191 -0.3230 -0.6489
22143SOL    HW168583   7.429   3.089   4.216 -0.6658  0.5593  0.2694
22143SOL    HW268584   7.421   2.975   4.314 -0.8733  0.1780 -0.1845
22144SOL     OW68585   0.826   8.494   1.615 -0.1479 -0.0480 -0.3566
22144SOL    HW168586   0.828   8.401   1.639 -2.0160 -0.1149 -0.3249
22144SOL    HW268587   0.908   8.509   1.569  1.9212 -0.8150  2.7936
22145SOL     OW68588   2.384   9.068   8.162  0.2111  0.2902  0.7030
22145SOL    HW168589   2.398   9.110   8.247 -1.6629  0.1565  1.1196
22145SOL    HW268590   2.353   9.139   8.106  0.3684  0.1454  0.4308
22146SOL     OW68591   8.973   7.597   7.679 -0.0207 -0.1359  0.4017
22146SOL    HW168592   9.021   7.527   7.723  0.2508 -0.2116 -0.0107
22146SOL    HW268593   8.887   7.598   7.722  0.5104  0.3272  1.4858
22147SOL     OW68594   8.191   1.256   4.542  0.0203  0.2845 -0.1325
22147SOL    HW168595   8.142   1.222   4.467 -0.1255 -1.3757  0.6645
22147SOL    HW268596   8.256   1.188   4.562  0.4244  0.9404  0.8901
22148SOL     OW68597   7.482   2.090   1.707 -0.1336  0.0396  0.2290
22148SOL    HW168598   7.469   2.054   1.619  0.5860  0.5321 -0.0921
22148SOL    HW268599   7.561   2.144   1.699 -0.7033  0.9933  0.9099
22149SOL     OW68600   2.551   0.051   1.521  0.0456 -0.3349 -0.0408
22149SOL    HW168601   2.546  -0.033   1.476 -1.3487 -0.4279  0.2416
22149SOL    HW268602   2.462   0.065   1.556 -0.2840  2.1304 -1.6506
22150SOL     OW68603   6.743   6.880   2.067 -0.0463  0.5974  0.2069
22150SOL    HW168604   6.670   6.824   2.093  1.5587 -2.1139 -0.7321
22150SOL    HW268605   6.808   6.869   2.137  0.5094  0.8604 -0.2533
22151SOL     OW68606   6.539   4.314   9.432  0.3508 -0.0661  0.0996
22151SOL    HW168607   6.448   4.322   9.403  0.4483  1.6191  0.1804
22151SOL    HW268608   6.584   4.388   9.391  2.4121 -2.5311 -2.4684
22152SOL     OW68609   1.493   6.415   6.267  0.1426 -0.0430 -0.0852
22152SOL    HW168610   1.518   6.474   6.197 -0.6506  0.0029 -0.3379
22152SOL    HW268611   1.495   6.328   6.227  0.3145 -0.0803  0.0061
22153SOL     OW68612   3.118   4.352   9.436  0.1859  0.2865 -0.6210
22153SOL    HW168613   3.069   4.434   9.446 -1.5444 -0.6219 -1.2521
22153SOL    HW268614   3.076   4.308   9.362 -0.1667 -2.0055  0.8477
22154SOL     OW68615   5.099   6.458   0.603 -0.1244  0.3396  0.2633
22154SOL    HW168616   5.098   6.393   0.674 -1.2057  0.9817  0.8434
22154SOL    HW268617   5.192   6.470   0.584  0.1692 -0.0953  1.3414
22155SOL     OW68618   5.661   8.901   7.262  0.2873 -1.0482 -0.3876
22155SOL    HW168619   5.678   8.978   7.316  1.5663 -2.1388  0.8217
22155SOL    HW268620   5.582   8.925   7.212 -2.0893 -0.5912  3.2116
22156SOL     OW68621   7.060   3.969   5.279  0.5289 -0.4108 -0.4984
22156SOL    HW168622   7.124   3.986   5.211 -0.1079  3.3074 -0.3750
22156SOL    HW268623   7.112   3.946   5.356  1.5851  0.5066 -0.9139
22157SOL     OW68624   5.694   6.894   7.893  0.1887  0.1467  0.0896
22157SOL    HW168625   5.779   6.850   7.901  0.4095  0.1341 -1.8256
22157SOL    HW268626   5.630   6.824   7.894  0.4234 -0.1142 -1.2529
22158SOL     OW68627   5.849   6.267   7.586  0.8874  0.3687 -0.0748
22158SOL    HW168628   5.914   6.325   7.625  0.4253  1.1092 -0.3957
22158SOL    HW268629   5.778   6.262   7.650  1.8035 -1.4949  0.8726
22159SOL     OW68630   5.224   1.057   1.204  0.0244  0.2135 -0.6573
22159SOL    HW168631   5.207   1.056   1.298 -1.4609 -0.3560 -0.8929
22159SOL    HW268632   5.196   1.144   1.175 -1.9261 -0.4446 -0.9149
22160SOL     OW68633   8.329   6.893   9.364 -0.7984  0.0269 -0.0473
22160SOL    HW168634   8.311   6.916   9.455 -1.7925  0.7040 -0.4032
22160SOL    HW268635   8.298   6.967   9.313 -0.3436 -0.3863 -0.9573
22161SOL     OW68636   0.019   5.992   9.063 -0.3105  0.1081 -0.3704
22161SOL    HW168637   0.012   5.992   9.158  2.8716 -2.3285  0.0475
22161SOL    HW268638   0.065   6.073   9.042 -0.6582  0.4566  0.1900
22162SOL     OW68639   8.057   7.782   7.080  0.1335  0.3162  0.1681
22162SOL    HW168640   8.005   7.726   7.023  0.8188 -0.6053  0.4256
22162SOL    HW268641   8.137   7.800   7.029  0.7302 -0.4777  0.7939
22163SOL     OW68642   3.970   0.360   2.212 -0.6759 -0.0306 -0.8168
22163SOL    HW168643   4.052   0.318   2.238 -1.2994 -0.4897  0.5491
22163SOL    HW268644   3.991   0.408   2.132  1.1579  0.6342  0.0076
22164SOL     OW68645   6.100   6.733   6.111 -0.1201  0.0624 -0.7951
22164SOL    HW168646   6.041   6.740   6.035 -1.6048  2.5408  0.4240
22164SOL    HW268647   6.092   6.818   6.155  2.9466 -0.2103  0.5569
22165SOL     OW68648   6.603   6.619   5.432  0.2467 -0.3358  0.3781
22165SOL    HW168649   6.691   6.617   5.395 -0.2858 -0.4201 -0.9174
22165SOL    HW268650   6.557   6.547   5.389 -0.7976  0.4464  0.1563
22166SOL     OW68651   3.540   4.221   0.612  0.5786 -0.0491  0.2485
22166SOL    HW168652   3.547   4.138   0.564 -0.6232 -0.9043  1.4508
22166SOL    HW268653   3.623   4.266   0.596  1.7556 -2.0082  0.4976
22167SOL     OW68654   7.780   6.373   3.503  0.5791  0.0501  0.1003
22167SOL    HW168655   7.780   6.355   3.598  2.8991  1.0281  0.3366
22167SOL    HW268656   7.690   6.400   3.485  0.4668  1.5505  2.3935
22168SOL     OW68657   5.570   2.926   4.743 -0.2759  0.2554  0.4849
22168SOL    HW168658   5.587   2.961   4.655 -1.5792  0.5100  0.3178
22168SOL    HW268659   5.475   2.912   4.746 -0.0276 -1.5870  1.1799
22169SOL     OW68660   7.137   4.576   6.713 -0.3577 -0.0338 -0.1185
22169SOL    HW168661   7.061   4.621   6.676  0.1571  2.3637  1.5142
22169SOL    HW268662   7.198   4.568   6.639 -1.2282  0.2068 -0.8830
22170SOL     OW68663   7.468   4.729   0.514  0.4816 -0.0629 -0.5759
22170SOL    HW168664   7.528   4.784   0.564  2.8648 -2.7652 -0.2036
22170SOL    HW268665   7.496   4.740   0.423  0.2160  0.1850 -0.6282
22171SOL     OW68666   3.134   6.156   1.674  0.4266  0.2017 -0.3886
22171SOL    HW168667   3.202   6.090   1.659  0.0642 -0.5530  1.1131
22171SOL    HW268668   3.085   6.159   1.592  0.2400 -1.6823 -0.3988
22172SOL     OW68669   5.027   3.192   8.605 -0.1356 -0.5720 -0.3254
22172SOL    HW168670   4.950   3.241   8.634  1.0326  1.0170  0.2803
22172SOL    HW268671   5.041   3.221   8.514 -0.8354 -1.6712 -0.8071
22173SOL     OW68672   4.164   8.302   4.205  0.2245 -0.5176  0.3013
22173SOL    HW168673   4.171   8.233   4.271 -1.0762 -0.7425  0.2241
22173SOL    HW268674   4.233   8.282   4.143  0.0431 -1.5952  0.4288
22174SOL     OW68675   3.666   8.157   3.883  0.2998  0.3471 -0.5944
22174SOL    HW168676   3.626   8.071   3.871 -1.0544  0.7165  0.9606
22174SOL    HW268677   3.758   8.137   3.904 -0.0890 -0.7523  0.1656
22175SOL     OW68678   7.113   0.013   7.905 -0.2476 -0.1851 -0.6354
22175SOL    HW168679   7.135   0.104   7.927 -0.6120  0.0562 -1.2648
22175SOL    HW268680   7.060   0.019   7.826 -1.6651 -0.8276  0.2264
22176SOL     OW68681   5.997   0.425   4.971 -0.7509  0.2560 -0.1950
22176SOL    HW168682   6.018   0.332   4.979 -2.3606 -0.3757 -2.4545
22176SOL    HW268683   6.072   0.463   4.926  1.0819  0.6784  2.9219
22177SOL     OW68684   6.623   4.209   0.315  0.1778 -0.2772 -0.6294
22177SOL    HW168685   6.712   4.196   0.349  0.0491  0.6390  0.1065
22177SOL    HW268686   6.637   4.229   0.222  0.5783 -2.1555 -1.0072
22178SOL     OW68687   7.546   5.799   5.123 -0.5954 -0.3975 -0.8499
22178SOL    HW168688   7.636   5.791   5.091  0.6278 -0.5793  2.2974
22178SOL    HW268689   7.528   5.714   5.163 -1.5625  0.1836 -0.0227
22179SOL     OW68690   9.108   0.621   6.615 -0.0379 -0.8041  0.5235
22179SOL    HW168691   9.080   0.691   6.556  0.4705  1.9041  3.1906
22179SOL    HW268692   9.028   0.592   6.658 -0.1405 -1.2248  0.0497
22180SOL     OW68693   7.799   9.110   2.267 -0.4087 -0.5151  0.3684
22180SOL    HW168694   7.868   9.123   2.202 -0.4690 -1.6863  0.0491
22180SOL    HW268695   7.717   9.127   2.220 -0.3875  0.0173  0.5179
22181SOL     OW68696   0.205   7.480   3.091 -0.4221  0.0869 -0.1089
22181SOL    HW168697   0.120   7.442   3.114 -1.2555  1.7534 -0.3236
22181SOL    HW268698   0.257   7.471   3.171 -0.3086 -2.1335 -0.3672
22182SOL     OW68699   5.017   1.156   4.498  1.2157 -0.4264  0.3952
22182SOL    HW168700   4.987   1.220   4.562  0.2320 -0.4980  0.0216
22182SOL    HW268701   5.044   1.209   4.422 -1.3975 -0.4904 -0.6567
22183SOL     OW68702   5.418   7.702   5.365 -0.0459 -0.3318 -0.1272
22183SOL    HW168703   5.445   7.700   5.273 -0.3887  0.9412 -0.2757
22183SOL    HW268704   5.397   7.611   5.386 -2.5096 -0.3080 -2.0831
22184SOL     OW68705   2.460   9.271   7.065  0.1619 -0.1953  0.0342
22184SOL    HW168706   2.468   9.334   7.136  0.0554  1.6568 -1.4873
22184SOL    HW268707   2.379   9.223   7.083  1.0014 -0.9497  1.9884
22185SOL     OW68708   0.587   7.013   5.025  0.1825 -0.1881  0.8148
22185SOL    HW168709   0.682   7.004   5.020  0.3840 -0.0805  3.3563
22185SOL    HW268710   0.565   7.071   4.952  2.1145  0.2294  0.5001
22186SOL     OW68711   8.999   4.258   6.150  0.1686  0.3938  0.4555
22186SOL    HW168712   9.092   4.271   6.168  0.3518  1.3695 -0.9712
22186SOL    HW268713   8.997   4.220   6.062 -0.7976  1.7024 -0.1143
22187SOL     OW68714   2.269   9.104   1.160  0.3647 -0.1117 -0.1275
22187SOL    HW168715   2.214   9.174   1.196 -2.4469 -2.0017 -0.4525
22187SOL    HW268716   2.336   9.150   1.109 -0.8674  2.3428  0.3085
22188SOL     OW68717   6.738   3.810   3.273 -0.4388  0.5484  0.4132
22188SOL    HW168718   6.773   3.817   3.184 -1.2442  1.0455  0.1246
22188SOL    HW268719   6.656   3.762   3.263 -1.0094  1.4294  0.7511
22189SOL     OW68720   7.121   3.912   9.234  0.2233  0.0812 -0.6872
22189SOL    HW168721   7.208   3.898   9.271 -0.2446  1.2149  1.0084
22189SOL    HW268722   7.121   4.004   9.207 -0.5853  0.2504 -0.1665
22190SOL     OW68723   7.546   2.644   8.177 -0.2577  0.8427  0.1176
22190SOL    HW168724   7.597   2.659   8.257  0.8206 -0.3471 -0.3086
22190SOL    HW268725   7.475   2.586   8.205  1.4606 -1.5539 -0.1543
22191SOL     OW68726   3.923   2.513   1.174 -0.2016 -0.0541  0.0244
22191SOL    HW168727   3.856   2.581   1.179 -0.7490 -0.4311 -1.5455
22191SOL    HW268728   3.923   2.487   1.082  2.4357  0.2567 -0.1320
22192SOL     OW68729   9.323   1.031   6.063 -0.6151  0.4350  0.3355
22192SOL    HW168730   9.308   1.126   6.057  1.0512  0.6810 -0.6340
22192SOL    HW268731   9.416   1.023   6.084 -0.6264 -0.9989 -0.0520
22193SOL     OW68732   7.715   7.608   3.045 -0.4138 -0.1154  0.2653
22193SOL    HW168733   7.640   7.663   3.070  0.1262  1.9102 -2.1518
22193SOL    HW268734   7.677   7.536   2.996 -0.9459 -0.4839  1.1984
22194SOL     OW68735   1.069   3.392   8.202 -0.4214 -0.2946 -0.6155
22194SOL    HW168736   0.992   3.439   8.234 -0.1370 -0.1494 -0.1489
22194SOL    HW268737   1.038   3.348   8.122 -0.5857  0.9777 -1.2695
22195SOL     OW68738   3.158   7.797   0.467  0.1351 -0.4221 -0.1565
22195SOL    HW168739   3.240   7.751   0.449  0.5147  0.5051 -0.8526
22195SOL    HW268740   3.100   7.771   0.395  0.1439 -0.2909 -0.2101
22196SOL     OW68741   3.044   4.696   9.001  0.1196 -0.3115 -0.4135
22196SOL    HW168742   3.002   4.768   8.954  3.9546  1.4185 -1.6019
22196SOL    HW268743   3.019   4.618   8.952 -2.0244  0.4875 -0.7051
22197SOL     OW68744   2.480   0.535   6.426  0.7249 -0.1214  0.0169
22197SOL    HW168745   2.543   0.589   6.378  2.2950 -2.2191 -0.4189
22197SOL    HW268746   2.533   0.480   6.484 -0.6293 -2.0108 -0.4036
22198SOL     OW68747   1.989   9.066   2.049  0.6127 -0.0940  0.2762
22198SOL    HW168748   2.035   9.064   2.133  2.6109 -0.0202 -0.7425
22198SOL    HW268749   2.020   8.987   2.004  0.0017  0.1596 -0.6031
22199SOL     OW68750   5.130   3.016   6.999 -0.0079 -0.1657  0.3637
22199SOL    HW168751   5.097   2.993   7.086 -1.0097 -1.8616 -0.4135
22199SOL    HW268752   5.179   2.939   6.971  3.4115  1.6716  0.8013
22200SOL     OW68753   9.561   2.343   2.146 -0.6739 -0.0002  0.1864
22200SOL    HW168754   9.510   2.329   2.225 -0.4696  0.3002  0.3745
22200SOL    HW268755   9.522   2.285   2.081  0.6997 -2.1503  1.1496
22201SOL     OW68756   9.036   8.474   9.189  0.2952 -0.4843  0.1719
22201SOL    HW168757   9.125   8.440   9.196  0.7578  0.7613  0.6990
22201SOL    HW268758   9.034   8.547   9.252 -0.8747 -0.0535 -0.3430
22202SOL     OW68759   1.458   2.583   2.831  0.2085 -0.4260 -0.0937
22202SOL    HW168760   1.401   2.510   2.854 -2.3175  0.5414 -2.7379
22202SOL    HW268761   1.524   2.544   2.774 -1.8759 -0.6028 -2.5600
22203SOL     OW68762   7.880   1.484   6.104 -0.0866 -0.0928  0.2401
22203SOL    HW168763   7.945   1.550   6.129 -2.5630  2.7046 -0.0571
22203SOL    HW268764   7.835   1.463   6.185  0.5439 -1.2863  0.2904
22204SOL     OW68765   6.188   1.672   5.804 -0.5973 -0.3951  0.1349
22204SOL    HW168766   6.128   1.729   5.852  0.9985  0.1874  1.5081
22204SOL    HW268767   6.200   1.716   5.720 -1.0929  0.1382  0.3375
22205SOL     OW68768   3.457   1.132   5.663 -0.2713  0.2375 -0.0154
22205SOL    HW168769   3.493   1.194   5.726 -0.9701  0.2033  0.4300
22205SOL    HW268770   3.377   1.099   5.704  1.4028 -3.0005  0.9712
22206SOL     OW68771   4.172   1.759   6.364 -0.0501 -0.8566 -0.0180
22206SOL    HW168772   4.123   1.694   6.314  0.2321 -1.6818  0.7483
22206SOL    HW268773   4.179   1.835   6.306 -1.7435 -0.9169 -0.3572
22207SOL     OW68774   3.625   2.555   3.731  0.0185  0.3042  0.9145
22207SOL    HW168775   3.582   2.593   3.807  1.1934  1.6213  0.9617
22207SOL    HW268776   3.669   2.629   3.689 -0.8521 -0.3232 -1.2490
22208SOL     OW68777   2.313   6.785   5.559 -0.4039 -0.1841 -0.7200
22208SOL    HW168778   2.393   6.796   5.611  0.4680  0.4877 -2.1410
22208SOL    HW268779   2.243   6.812   5.618  0.6404  1.5591 -0.1961
22209SOL     OW68780   7.810   8.291   8.870 -0.0741 -0.3466  0.0786
22209SOL    HW168781   7.836   8.199   8.864  0.2055 -0.1956 -1.4609
22209SOL    HW268782   7.757   8.305   8.792 -0.5299  0.6834  0.5614
22210SOL     OW68783   2.967   6.840   7.690 -0.3561 -0.1091 -0.3217
22210SOL    HW168784   3.041   6.865   7.634 -0.4786 -0.4950 -0.6631
22210SOL    HW268785   2.974   6.897   7.766  0.2198 -0.0596 -0.4093
22211SOL     OW68786   5.619   7.716   1.150  0.2737 -0.1231 -0.2155
22211SOL    HW168787   5.707   7.735   1.182  0.7052 -1.7538 -0.3065
22211SOL    HW268788   5.631   7.688   1.060 -0.3147 -0.4860 -0.1927
22212SOL     OW68789   8.726   6.384   4.199  0.3817  0.1227 -0.1502
22212SOL    HW168790   8.639   6.424   4.209  0.3341  0.4155 -1.5535
22212SOL    HW268791   8.782   6.434   4.258 -0.5396 -0.5969  1.3966
22213SOL     OW68792   4.346   0.359   4.713  0.6174 -0.5450 -0.7683
22213SOL    HW168793   4.392   0.413   4.649  1.5761  0.9081  1.0229
22213SOL    HW268794   4.266   0.331   4.668  1.7678 -0.5552 -2.9328
22214SOL     OW68795   8.735   5.006   5.976 -0.0081  0.0499 -0.3657
22214SOL    HW168796   8.773   4.947   5.911 -0.6270 -0.8362  0.0681
22214SOL    HW268797   8.718   4.951   6.052 -0.7567  0.7487 -0.0127
22215SOL     OW68798   6.488   6.877   6.795 -0.0292  0.1641 -0.0166
22215SOL    HW168799   6.548   6.818   6.841 -0.9440 -0.8548 -0.1030
22215SOL    HW268800   6.447   6.822   6.729 -2.5428  0.2914  1.3324
22216SOL     OW68801   4.278   9.036   2.403  0.3094 -0.1193 -0.3096
22216SOL    HW168802   4.303   9.094   2.331  2.0602 -0.7218 -0.2308
22216SOL    HW268803   4.353   8.977   2.413 -1.1282 -1.9553  0.0801
22217SOL     OW68804   7.040   8.622   7.540 -0.1108  0.0504 -0.1857
22217SOL    HW168805   7.005   8.701   7.580  0.6966  1.0315 -1.3511
22217SOL    HW268806   6.974   8.555   7.558 -2.5367  1.7531 -2.0459
22218SOL     OW68807   5.161   6.379   3.203  0.1343  0.2515 -0.2400
22218SOL    HW168808   5.104   6.436   3.151  0.2557  0.2461 -0.3786
22218SOL    HW268809   5.152   6.293   3.162 -0.8385 -0.0621  0.5787
22219SOL     OW68810   1.520   0.689   0.961  0.1787  0.4226  0.5306
22219SOL    HW168811   1.582   0.701   0.889 -0.6422  1.7289  0.0040
22219SOL    HW268812   1.460   0.621   0.930  0.5623  0.0987  0.4958
22220SOL     OW68813   4.550   7.516   7.725 -0.4498 -0.0588  0.1137
22220SOL    HW168814   4.461   7.509   7.690 -0.1158 -0.6635 -0.6333
22220SOL    HW268815   4.587   7.592   7.680 -0.7868  0.5786  0.8904
22221SOL     OW68816   5.612   2.497   2.724  0.6985 -0.2770 -0.0357
22221SOL    HW168817   5.667   2.520   2.649 -1.8948 -0.5736 -2.1841
22221SOL    HW268818   5.601   2.579   2.772  1.0742  0.3107 -0.9412
22222SOL     OW68819   1.809   7.036   8.167 -0.2048 -0.2434 -0.1087
22222SOL    HW168820   1.797   6.942   8.150  0.5585 -0.3024 -0.3833
22222SOL    HW268821   1.900   7.043   8.197 -0.4882  0.3132  0.6603
22223SOL     OW68822   9.181   3.857   9.563  0.1926  0.2191  0.0154
22223SOL    HW168823   9.168   3.918   9.636 -0.0429  1.5627 -1.0906
22223SOL    HW268824   9.096   3.857   9.517  0.8726  0.9037 -1.3161
22224SOL     OW68825   2.017   6.314   3.852  0.2601 -0.5092 -0.1695
22224SOL    HW168826   1.989   6.346   3.938 -0.1391  1.9263 -1.1062
22224SOL    HW268827   2.002   6.220   3.855 -2.2086 -0.1657  1.5544
22225SOL     OW68828   7.765   7.983   4.743 -0.6778 -0.0186 -0.4035
22225SOL    HW168829   7.763   7.898   4.786 -0.8236  0.2144  0.0490
22225SOL    HW268830   7.826   8.036   4.795  0.2958 -0.1951 -1.3370
22226SOL     OW68831   0.824   4.348   4.579  0.3844  0.5804  0.1335
22226SOL    HW168832   0.778   4.422   4.540 -0.7731  0.3804  1.0413
22226SOL    HW268833   0.754   4.287   4.603  1.3362 -1.1989 -1.3056
22227SOL     OW68834   0.480   4.229   7.591 -0.2367  0.2833  0.0218
22227SOL    HW168835   0.390   4.199   7.580 -0.6908  1.1356  1.1787
22227SOL    HW268836   0.476   4.323   7.573  0.6679  0.1298 -1.0914
22228SOL     OW68837   9.071   1.630   7.211  0.9388  0.0248  0.3738
22228SOL    HW168838   9.081   1.546   7.254 -1.3203  0.5823  2.1814
22228SOL    HW268839   8.995   1.670   7.253  0.8546  2.2297 -1.6401
22229SOL     OW68840   5.558   0.105   3.396  0.1354  0.0775 -0.2095
22229SOL    HW168841   5.550   0.147   3.482  0.9625 -0.0597 -0.0580
22229SOL    HW268842   5.517   0.019   3.408  2.7353 -1.1283  0.9181
22230SOL     OW68843   4.723   5.229   8.348 -0.2923 -0.2607 -0.4192
22230SOL    HW168844   4.779   5.186   8.413 -1.0248 -0.5429  0.0331
22230SOL    HW268845   4.728   5.173   8.271 -0.7058 -0.7980 -0.0578
22231SOL     OW68846   7.941   9.568   4.658 -0.5110 -0.1071  0.3506
22231SOL    HW168847   7.910   9.658   4.659  0.2227  0.1661 -0.3300
22231SOL    HW268848   7.935   9.541   4.567 -3.1101 -1.6346  0.8780
22232SOL     OW68849   3.534   4.965   7.595 -0.4980 -0.3102  0.1652
22232SOL    HW168850   3.583   5.039   7.558 -1.5790 -0.0194 -0.7655
22232SOL    HW268851   3.456   5.005   7.633 -0.2393 -0.8070  1.2307
22233SOL     OW68852   9.595   6.425   8.142 -0.3352 -0.4456  0.5554
22233SOL    HW168853   9.531   6.366   8.180 -0.9812  0.4523  0.9049
22233SOL    HW268854   9.562   6.513   8.162  0.7168  0.0402  0.2666
22234SOL     OW68855   7.228   6.874   0.609 -0.2091  0.0545 -0.0758
22234SOL    HW168856   7.270   6.791   0.631 -1.0764 -0.4959 -0.4143
22234SOL    HW268857   7.277   6.907   0.533 -1.0824 -1.1625 -1.2162
22235SOL     OW68858   1.661   6.711   9.318  0.0232 -0.3261 -0.1214
22235SOL    HW168859   1.640   6.676   9.231 -1.2875  0.7431 -0.2822
22235SOL    HW268860   1.756   6.720   9.318  0.3329 -2.8714 -0.4177
22236SOL     OW68861   5.213   1.873   4.158  0.2765 -0.4642 -0.1528
22236SOL    HW168862   5.132   1.874   4.209  0.3183 -1.4980 -0.0446
22236SOL    HW268863   5.227   1.781   4.137  0.3042 -0.0984 -1.9669
22237SOL     OW68864   0.727   0.721   8.142 -0.2412  0.0727  0.3518
22237SOL    HW168865   0.757   0.673   8.065 -1.3659  1.0821 -0.7585
22237SOL    HW268866   0.632   0.724   8.134 -0.3919  0.1302  1.8355
22238SOL     OW68867   3.432   8.723   4.501  0.3875  0.4011  0.0549
22238SOL    HW168868   3.489   8.651   4.525 -0.4491 -0.4537 -0.4500
22238SOL    HW268869   3.466   8.755   4.418  0.5873  0.3951  0.1357
22239SOL     OW68870   1.909   6.783   3.975 -0.4013  0.1880 -0.1883
22239SOL    HW168871   1.926   6.714   3.911  1.5571 -0.7015  1.1799
22239SOL    HW268872   1.965   6.856   3.948  2.4273 -1.0702  1.7173
22240SOL     OW68873   7.252   4.389   7.939  0.0102 -1.0918 -0.1237
22240SOL    HW168874   7.190   4.344   7.997 -0.7662 -0.4896 -0.4724
22240SOL    HW268875   7.246   4.341   7.856 -1.5017  0.1734 -0.7840
22241SOL     OW68876   8.741   1.917   3.250 -0.6015  0.4577  0.0389
22241SOL    HW168877   8.796   1.840   3.230  0.1675  1.2890 -1.2089
22241SOL    HW268878   8.783   1.957   3.326 -0.5097  0.1229  0.1702
22242SOL     OW68879   4.967   1.074   3.085 -0.8071  0.4073 -0.1702
22242SOL    HW168880   4.913   1.030   3.019  0.5005 -0.4030 -0.7643
22242SOL    HW268881   4.961   1.018   3.162 -0.3706 -0.0160 -0.4317
22243SOL     OW68882   2.508   8.648   2.311  0.4112  0.3725  0.5460
22243SOL    HW168883   2.465   8.608   2.236 -0.4886  0.8113  0.8092
22243SOL    HW268884   2.486   8.591   2.385  0.7222  0.3156  0.5983
22244SOL     OW68885   7.552   7.438   3.668 -0.0405  0.1118  0.5066
22244SOL    HW168886   7.618   7.494   3.708  2.3401 -0.2583 -2.4588
22244SOL    HW268887   7.550   7.360   3.724  2.9387 -0.3049  0.2412
22245SOL     OW68888   5.756   5.644   0.016 -0.0444 -0.0119 -0.6164
22245SOL    HW168889   5.807   5.598  -0.051  0.0457 -0.0464 -0.5255
22245SOL    HW268890   5.666   5.643  -0.017  0.5046  3.3746 -2.6708
22246SOL     OW68891   8.379   9.113   4.471  0.2326 -0.0008  0.2752
22246SOL    HW168892   8.324   9.185   4.502  2.1741  1.3027  0.9574
22246SOL    HW268893   8.374   9.047   4.539 -0.2254  0.2436  0.4809
22247SOL     OW68894   2.407   6.803   0.209  0.3417 -0.4948  0.2983
22247SOL    HW168895   2.335   6.741   0.208  1.6221 -2.0316  0.3581
22247SOL    HW268896   2.477   6.760   0.161  0.7936  1.5480 -0.9994
22248SOL     OW68897   4.601   2.782   6.718  0.5329  0.0186 -0.1797
22248SOL    HW168898   4.678   2.777   6.774  1.4034 -1.2876 -1.4273
22248SOL    HW268899   4.632   2.818   6.636 -0.0833 -0.8495 -0.8214
22249SOL     OW68900   7.480   0.777   1.758 -0.5116  0.1884 -0.2010
22249SOL    HW168901   7.485   0.683   1.739 -4.3523 -0.2966  0.4691
22249SOL    HW268902   7.523   0.787   1.843 -0.8646 -1.1307  0.1495
22250SOL     OW68903   3.841   3.028   6.551  0.6208 -0.0233  0.3563
22250SOL    HW168904   3.864   3.097   6.488  0.9134 -0.5066 -0.0705
22250SOL    HW268905   3.864   3.066   6.636 -1.3356  1.2935  0.3662
22251SOL     OW68906   5.170   0.799   2.470 -0.1951 -0.1153  0.3276
22251SOL    HW168907   5.200   0.753   2.392  1.4557  0.3776  0.6365
22251SOL    HW268908   5.075   0.789   2.469  0.0023 -2.3164 -0.3369
22252SOL     OW68909   4.131   4.196   0.793  0.2085  0.2698 -0.2724
22252SOL    HW168910   4.110   4.193   0.700 -0.4189 -0.5098 -0.1154
22252SOL    HW268911   4.050   4.171   0.837  0.6379  0.1455  0.4654
22253SOL     OW68912   6.733   6.373   3.714 -0.2046  0.0076 -0.1019
22253SOL    HW168913   6.788   6.300   3.685 -1.3420 -1.3756  1.0735
22253SOL    HW268914   6.750   6.380   3.808 -0.5998  0.8483 -0.0824
22254SOL     OW68915   6.620   0.586   3.879 -0.6280  0.1935 -0.0303
22254SOL    HW168916   6.584   0.504   3.914 -1.5836  0.0969 -1.1980
22254SOL    HW268917   6.692   0.607   3.939 -0.8931 -1.0518  0.7765
22255SOL     OW68918   1.540   1.564   0.934  0.1918 -0.1041 -0.3469
22255SOL    HW168919   1.467   1.590   0.879  0.2103  2.5292  0.7221
22255SOL    HW268920   1.500   1.515   1.006 -0.4728  0.7475 -0.1207
22256SOL     OW68921   0.748   4.025   6.223 -0.2523 -0.2535  0.1564
22256SOL    HW168922   0.791   3.952   6.179 -1.2864 -0.3627 -0.7401
22256SOL    HW268923   0.694   4.065   6.155 -0.5415  0.6730  0.9068
22257SOL     OW68924   7.998   7.058   0.073 -0.0921  0.1790 -0.4445
22257SOL    HW168925   7.915   7.058   0.121 -0.0125  1.1492 -0.2764
22257SOL    HW268926   7.982   7.002  -0.003 -0.1728 -1.5214  0.7722
22258SOL     OW68927   9.299   6.052   7.336  0.0627  0.1982 -0.1134
22258SOL    HW168928   9.246   6.044   7.256  0.2035  0.2523 -0.2137
22258SOL    HW268929   9.238   6.033   7.407  0.3758 -1.7654 -0.3231
22259SOL     OW68930   7.228   8.820   0.516  0.5201 -0.4640 -0.1050
22259SOL    HW168931   7.188   8.860   0.593 -1.5060 -0.0174 -1.2962
22259SOL    HW268932   7.213   8.726   0.528  2.1504 -0.6032  1.0353
22260SOL     OW68933   7.910   1.470   2.758  0.4004 -0.0123 -0.0304
22260SOL    HW168934   7.827   1.492   2.799  0.1484 -0.4268 -0.3149
22260SOL    HW268935   7.950   1.406   2.817  0.6275  0.3658  0.2282
22261SOL     OW68936   7.762   9.327   8.669 -0.2060 -0.7423  0.3010
22261SOL    HW168937   7.724   9.391   8.609  0.9481  1.1576  1.4904
22261SOL    HW268938   7.828   9.281   8.617 -0.0432  0.0604 -0.2212
22262SOL     OW68939   2.057   7.558   2.916  0.6483  0.0014 -0.2640
22262SOL    HW168940   2.105   7.532   2.994 -0.2373 -1.5868 -0.2045
22262SOL    HW268941   2.017   7.642   2.939  0.5398 -0.3582  0.9175
22263SOL     OW68942   6.567   0.486   6.345 -0.1760  0.1700  0.3318
22263SOL    HW168943   6.569   0.407   6.290 -0.3001 -0.1590  0.7939
22263SOL    HW268944   6.536   0.455   6.430  1.5094  0.3689  1.0644
22264SOL     OW68945   2.154   7.059   6.508  0.0645  0.5548 -0.6903
22264SOL    HW168946   2.224   7.095   6.562  0.4865  0.7965 -1.3785
22264SOL    HW268947   2.199   7.003   6.445 -0.2632  1.3171 -1.6393
22265SOL     OW68948   1.413   2.709   8.441 -0.0472 -0.1599  0.5245
22265SOL    HW168949   1.447   2.675   8.523 -0.9971 -0.6982  0.7076
22265SOL    HW268950   1.322   2.732   8.460 -0.2316 -0.1453 -0.3291
22266SOL     OW68951   3.802   7.268   7.850 -0.9646 -0.1941  0.0171
22266SOL    HW168952   3.799   7.316   7.932  0.4737  0.8817 -0.5065
22266SOL    HW268953   3.712   7.268   7.818 -1.7632 -1.6213  2.1042
22267SOL     OW68954   0.701   8.102   3.574  0.1789 -0.6036 -0.4157
22267SOL    HW168955   0.685   8.022   3.525 -1.8228 -0.3780 -0.2272
22267SOL    HW268956   0.765   8.151   3.522 -1.6815 -0.4831 -2.7241
22268SOL     OW68957   2.177   4.103   3.095  0.0660  0.3115  0.3282
22268SOL    HW168958   2.089   4.121   3.062 -0.1672 -0.7621  0.3408
22268SOL    HW268959   2.186   4.162   3.171 -1.0807 -0.3703  1.0222
22269SOL     OW68960   4.556   5.031   6.969  0.4573  0.2032 -0.1005
22269SOL    HW168961   4.600   5.008   7.051  0.1761  0.7875  0.2169
22269SOL    HW268962   4.524   4.947   6.935 -1.6400  0.2150  1.6459
22270SOL     OW68963   7.403   4.101   6.056 -0.0674 -0.1078 -0.7059
22270SOL    HW168964   7.366   4.078   6.142 -0.2570  0.0863 -0.7350
22270SOL    HW268965   7.405   4.018   6.008  1.0425 -0.4346 -0.1441
22271SOL     OW68966   7.531   0.511   1.737  0.1681  0.2141  0.3643
22271SOL    HW168967   7.617   0.470   1.730  0.8085  1.3699  1.2014
22271SOL    HW268968   7.496   0.479   1.821 -0.8877 -1.4156 -0.6358
22272SOL     OW68969   9.099   5.563   8.841 -0.1011  0.5206  0.1699
22272SOL    HW168970   9.036   5.627   8.874  0.0361 -0.7218  3.2067
22272SOL    HW268971   9.045   5.495   8.801 -0.5304  0.6565  0.5057
22273SOL     OW68972   2.759   7.021   1.660 -0.0201  0.0633  0.4785
22273SOL    HW168973   2.741   6.964   1.585  1.2822 -0.6493  0.6852
22273SOL    HW268974   2.689   7.002   1.722 -0.9410  0.4420 -0.4185
22274SOL     OW68975   4.325   3.624   7.240 -0.3792 -0.6413 -0.6927
22274SOL    HW168976   4.277   3.594   7.162  1.6224 -2.2236 -1.3788
22274SOL    HW268977   4.304   3.560   7.307 -0.1721 -0.6464 -0.6353
22275SOL     OW68978   9.362   9.582   7.683 -0.2895 -0.3577 -0.3876
22275SOL    HW168979   9.376   9.541   7.597 -1.5502 -1.7094  0.0100
22275SOL    HW268980   9.272   9.560   7.705 -1.4047  3.4057 -0.4807
22276SOL     OW68981   0.693   8.749   6.528  0.0053 -0.0054 -0.2565
22276SOL    HW168982   0.668   8.657   6.541 -1.4459  0.1946 -1.4258
22276SOL    HW268983   0.716   8.780   6.616  0.4852 -1.4662  0.1628
22277SOL     OW68984   6.431   7.928   1.275 -0.1009  0.5467  0.1856
22277SOL    HW168985   6.397   7.982   1.346 -0.0972 -1.1201  1.5055
22277SOL    HW268986   6.355   7.907   1.221 -0.2609  1.0714  0.2105
22278SOL     OW68987   3.045   0.944   3.068  0.4161  0.2346  0.2759
22278SOL    HW168988   3.110   0.995   3.116  0.5900 -0.0714  0.3663
22278SOL    HW268989   3.001   0.891   3.135  1.4549 -1.0680 -0.0405
22279SOL     OW68990   7.740   0.032   5.109 -0.4817 -0.9087 -0.5152
22279SOL    HW168991   7.766   0.007   5.020 -0.5190  1.0613 -1.1182
22279SOL    HW268992   7.757  -0.047   5.161  2.2990 -1.2135 -1.7089
22280SOL     OW68993   4.244   5.769   4.573 -0.2191  0.2682 -0.1268
22280SOL    HW168994   4.268   5.845   4.627  1.0643  0.9081 -1.4964
22280SOL    HW268995   4.209   5.705   4.635  0.3884  1.2822  1.3317
22281SOL     OW68996   8.994   1.332   9.217 -0.2825 -0.0007 -0.8804
22281SOL    HW168997   9.083   1.337   9.183 -0.2374  0.1347 -0.7396
22281SOL    HW268998   8.986   1.407   9.275 -0.7805  0.5002 -1.5763
22282SOL     OW68999   6.009   4.572   8.245  0.3253 -0.6079  0.1585
22282SOL    HW169000   6.020   4.657   8.203 -2.3337  0.3721  1.2422
22282SOL    HW269001   6.013   4.509   8.173  1.7615  0.4549 -0.7385
22283SOL     OW69002   9.167   0.080   9.006  0.1789 -0.1901  0.4805
22283SOL    HW169003   9.262   0.083   9.016  0.0893  0.0956  1.3325
22283SOL    HW269004   9.147  -0.013   8.998  0.6319 -0.1901 -0.8649
22284SOL     OW69005   8.920   9.540   6.115  0.3077 -0.4534  0.2366
22284SOL    HW169006   8.969   9.621   6.130 -1.4812  0.9578 -0.9835
22284SOL    HW269007   8.893   9.512   6.203 -1.5265  2.0143  0.5985
22285SOL     OW69008   0.841   5.787   2.413  0.1854  0.6613 -0.1428
22285SOL    HW169009   0.853   5.879   2.436  1.5058  0.6809 -0.8377
22285SOL    HW269010   0.926   5.747   2.427  0.2205  0.0114 -1.8954
22286SOL     OW69011   6.238   6.404   3.688 -0.3001 -0.2152 -0.8701
22286SOL    HW169012   6.180   6.432   3.617  0.0896  4.8616  0.4969
22286SOL    HW269013   6.324   6.439   3.665  0.8119 -2.0014  0.2615
22287SOL     OW69014   9.627   5.378   8.794 -0.1224  0.2441  0.5074
22287SOL    HW169015   9.550   5.341   8.751 -1.1784  1.6351  1.1366
22287SOL    HW269016   9.698   5.320   8.768 -0.9632  0.1600 -1.8965
22288SOL     OW69017   9.364   8.570   8.182 -0.7154  0.2629  0.4847
22288SOL    HW169018   9.346   8.620   8.102 -0.2617  1.8178  1.3180
22288SOL    HW269019   9.278   8.557   8.222 -0.9682 -0.6927 -0.3183
22289SOL     OW69020   7.353   9.071   3.824 -0.0968 -0.4294 -0.2302
22289SOL    HW169021   7.302   8.996   3.792 -1.4108  0.7588 -1.0177
22289SOL    HW269022   7.288   9.132   3.858  0.5564  1.7804 -2.5882
22290SOL     OW69023   3.753   6.956   2.566 -0.3175 -0.4107 -0.3285
22290SOL    HW169024   3.732   7.029   2.625 -0.2447 -0.5959 -0.0760
22290SOL    HW269025   3.682   6.958   2.501 -0.3639 -0.1685 -0.2745
22291SOL     OW69026   4.102   2.122   4.088  0.1363  0.4385 -0.2511
22291SOL    HW169027   4.044   2.101   4.015  0.3501  1.2533 -0.6633
22291SOL    HW269028   4.052   2.184   4.141  0.0203 -0.0775  0.2538
22292SOL     OW69029   7.443   6.256   7.398 -0.1468  0.0608  0.2649
22292SOL    HW169030   7.372   6.198   7.428 -0.2292 -0.4925 -0.9560
22292SOL    HW269031   7.424   6.272   7.306  1.9326 -1.0380 -0.4213
22293SOL     OW69032   8.280   4.360   1.553 -0.4572  0.0181 -0.7592
22293SOL    HW169033   8.249   4.276   1.587  0.2212 -0.5638 -1.5318
22293SOL    HW269034   8.204   4.418   1.561 -0.8200 -0.5591  0.1327
22294SOL     OW69035   8.940   2.242   1.297  0.3206  0.4142  0.0438
22294SOL    HW169036   8.880   2.317   1.292 -1.0280 -0.5615  0.7654
22294SOL    HW269037   8.931   2.198   1.213 -0.7079 -0.2363  0.4759
22295SOL     OW69038   8.025   1.328   1.384 -0.6572 -0.1624 -0.0320
22295SOL    HW169039   8.070   1.397   1.335 -2.6466  0.1105 -1.5695
22295SOL    HW269040   8.003   1.369   1.467  1.8624 -0.3173  0.8039
22296SOL     OW69041   1.494   3.450   3.973 -0.5928 -0.4042 -0.0899
22296SOL    HW169042   1.540   3.490   4.047 -0.5825 -0.2776 -0.1643
22296SOL    HW269043   1.564   3.426   3.912 -0.7031  1.3649 -0.9988
22297SOL     OW69044   8.942   7.496   8.643 -0.0355 -0.3104  0.0683
22297SOL    HW169045   9.028   7.488   8.603  0.3319  2.9644 -0.1252
22297SOL    HW269046   8.880   7.485   8.571  0.5409  3.0098 -1.1335
22298SOL     OW69047   6.174   9.318   6.259  0.1276 -0.1353  0.1047
22298SOL    HW169048   6.152   9.231   6.295 -1.2159  0.9689  2.1473
22298SOL    HW269049   6.263   9.335   6.290  0.1042 -0.4673  0.3637
22299SOL     OW69050   2.349   9.186   5.173 -0.5752  0.6545  0.6650
22299SOL    HW169051   2.277   9.209   5.113  0.3222  1.6546 -0.0714
22299SOL    HW269052   2.415   9.147   5.116 -0.1158  0.6769  1.1793
22300SOL     OW69053   6.517   6.952   2.772  0.7187 -0.0924  0.4908
22300SOL    HW169054   6.577   7.024   2.792  0.2667 -0.3120  2.9723
22300SOL    HW269055   6.433   6.981   2.809 -0.3203 -0.5115 -1.4346
22301SOL     OW69056   5.052   3.406   1.099  0.0606  0.2403  0.2704
22301SOL    HW169057   5.077   3.387   1.009  2.7183 -2.0461  1.3570
22301SOL    HW269058   5.124   3.458   1.134 -1.1729  1.5399  1.0043
22302SOL     OW69059   2.815   0.894   0.113 -0.1453 -0.4000  0.1130
22302SOL    HW169060   2.767   0.812   0.114 -1.4761  0.3456  1.2379
22302SOL    HW269061   2.747   0.961   0.102  0.5975  0.7021  1.8513
22303SOL     OW69062   2.279   5.104   0.578  0.2342 -0.3042  0.6679
22303SOL    HW169063   2.305   5.054   0.501 -0.0057 -3.2026  2.3427
22303SOL    HW269064   2.335   5.071   0.648 -0.4039  1.3624  2.0346
22304SOL     OW69065   6.152   4.482   1.507  0.2389 -0.1090 -0.4398
22304SOL    HW169066   6.160   4.544   1.435 -0.5432  1.6259  0.9047
22304SOL    HW269067   6.161   4.535   1.586 -1.9122 -1.4383  0.7990
22305SOL     OW69068   7.985   3.549   5.996  0.5048 -0.2885 -0.4418
22305SOL    HW169069   8.066   3.509   6.027  0.1442 -0.4848  0.2951
22305SOL    HW269070   7.956   3.493   5.924 -0.0174 -1.4229  0.6064
22306SOL     OW69071   3.609   5.181   7.462  0.2543  0.5108 -0.1448
22306SOL    HW169072   3.532   5.217   7.418 -0.7211  2.3605  2.7972
22306SOL    HW269073   3.683   5.215   7.413 -0.7752  1.3719 -1.1537
22307SOL     OW69074   2.237   7.351   4.338 -0.6845 -0.3699  0.0305
22307SOL    HW169075   2.142   7.348   4.351 -0.8981 -1.8066 -1.5155
22307SOL    HW269076   2.250   7.420   4.273 -0.5551  0.4241  0.8769
22308SOL     OW69077   0.102   7.553   7.101  0.4396  0.2067  0.0674
22308SOL    HW169078   0.095   7.589   7.190 -1.5787  2.5975 -0.9627
22308SOL    HW269079   0.194   7.527   7.094  0.8411  0.6549  2.5666
22309SOL     OW69080   5.408   0.191   0.542 -0.2169  0.6966 -0.1534
22309SOL    HW169081   5.484   0.143   0.576 -0.2351  0.8490  0.1092
22309SOL    HW269082   5.411   0.276   0.587 -1.0684  0.3651  0.5734
22310SOL     OW69083   1.920   6.792   6.004 -0.2735 -0.2363 -0.3838
22310SOL    HW169084   2.000   6.746   6.030 -0.6614 -0.4857  0.4108
22310SOL    HW269085   1.863   6.786   6.081 -1.4533 -0.9526 -1.2652
22311SOL     OW69086   7.550   8.695   1.079  0.2874 -0.2973 -0.8497
22311SOL    HW169087   7.504   8.710   0.996  0.3615 -0.3651 -0.9030
22311SOL    HW269088   7.517   8.764   1.137 -0.1392 -0.5596 -0.7840
22312SOL     OW69089   4.736   8.105   7.113  0.1137 -0.2020 -0.2165
22312SOL    HW169090   4.683   8.185   7.116 -1.1886 -1.0198 -0.7706
22312SOL    HW269091   4.704   8.057   7.037  1.0998 -1.1062 -0.0841
22313SOL     OW69092   3.044   2.051   9.078 -0.0877  0.2376 -0.8185
22313SOL    HW169093   3.061   2.041   9.172 -0.7502 -0.0323 -0.7246
22313SOL    HW269094   3.084   2.135   9.056  0.2133  0.2303 -0.3296
22314SOL     OW69095   2.107   1.481   0.848 -0.6192  0.4129  0.1744
22314SOL    HW169096   2.039   1.416   0.867 -0.3358  0.3454  0.9969
22314SOL    HW269097   2.090   1.552   0.910  0.0523  0.3959  0.3917
22315SOL     OW69098   4.557   6.685   4.242  0.0798 -0.3989 -0.1236
22315SOL    HW169099   4.543   6.620   4.173  1.3732 -1.5120  0.6166
22315SOL    HW269100   4.508   6.650   4.317 -1.0425  0.6321 -0.3514
22316SOL     OW69101   9.563   5.040   1.903  0.4248  0.1447 -0.0504
22316SOL    HW169102   9.508   4.983   1.848  1.4657  0.5246 -1.5189
22316SOL    HW269103   9.558   5.000   1.990 -0.8514 -0.7649 -0.5065
22317SOL     OW69104   5.427   5.438   1.454  0.0580  0.5042 -0.4913
22317SOL    HW169105   5.392   5.358   1.494  1.7575 -0.1079 -0.1095
22317SOL    HW269106   5.383   5.444   1.369  0.0540 -0.9781 -0.6243
22318SOL     OW69107   7.821   4.253   0.764 -0.3416 -0.0922 -0.5772
22318SOL    HW169108   7.791   4.182   0.707  0.2266  0.3604 -1.4611
22318SOL    HW269109   7.747   4.314   0.769 -0.7301 -0.5969 -0.0443
22319SOL     OW69110   1.458   5.258   8.921  0.5452  0.5914 -0.0992
22319SOL    HW169111   1.385   5.296   8.971 -1.2460 -1.2101 -1.1629
22319SOL    HW269112   1.439   5.280   8.830  0.5364 -1.0177 -0.5219
22320SOL     OW69113   5.759   3.383   8.461  0.1158  0.1658  0.1067
22320SOL    HW169114   5.756   3.295   8.423  1.4657 -0.0261  0.3597
22320SOL    HW269115   5.697   3.435   8.410  0.6272 -0.5086 -1.2214
22321SOL     OW69116   5.117   4.452   2.525 -0.2615 -0.0852  0.3835
22321SOL    HW169117   5.028   4.434   2.494 -0.4016  1.0221  0.0824
22321SOL    HW269118   5.106   4.520   2.592  0.3837  0.2832  0.1236
22322SOL     OW69119   1.638   4.493   1.858 -0.3304  0.3790  0.5244
22322SOL    HW169120   1.586   4.502   1.938 -1.1083  0.1787  0.0479
22322SOL    HW269121   1.649   4.398   1.847  1.6703  0.4294  1.5791
22323SOL     OW69122   5.772   6.608   3.499  0.1607 -0.6722  0.6949
22323SOL    HW169123   5.846   6.651   3.456 -1.1391  0.6836 -0.2773
22323SOL    HW269124   5.701   6.613   3.436 -2.4631  3.1326  3.4588
22324SOL     OW69125   2.715   4.637   8.700 -0.3000 -0.1290 -0.4777
22324SOL    HW169126   2.761   4.592   8.629 -0.8315 -2.1240  0.3691
22324SOL    HW269127   2.647   4.575   8.727 -0.4716  0.8228  1.4141
22325SOL     OW69128   1.784   5.979   2.270 -0.0362  0.0736 -0.2925
22325SOL    HW169129   1.793   5.890   2.236 -0.1628  0.5935 -1.7683
22325SOL    HW269130   1.690   5.987   2.288  0.2867 -0.8659  2.2062
22326SOL     OW69131   3.931   8.842   3.941  0.5181  0.3470 -0.0748
22326SOL    HW169132   3.890   8.901   3.879  1.3852  0.7793 -0.2576
22326SOL    HW269133   4.024   8.842   3.916  0.5574 -1.0341 -0.0388
22327SOL     OW69134   3.781   4.362   0.275  0.4462  0.0841 -0.8467
22327SOL    HW169135   3.771   4.440   0.329  0.5750 -0.2845 -0.2767
22327SOL    HW269136   3.777   4.394   0.185  1.0262  0.8142 -0.6229
22328SOL     OW69137   5.413   3.127   7.478  0.0576 -0.6753 -0.0185
22328SOL    HW169138   5.486   3.111   7.419 -0.3405  0.4519 -0.8545
22328SOL    HW269139   5.362   3.196   7.435 -1.3745 -1.2707  0.6438
22329SOL     OW69140   6.160   4.005   2.018  0.7141 -0.9174  0.2145
22329SOL    HW169141   6.065   4.010   2.017  0.7001  0.3241  2.2207
22329SOL    HW269142   6.189   4.071   1.955  0.2447 -0.7511  0.1758
22330SOL     OW69143   0.611   1.690   6.577 -0.5338  0.2700 -0.2387
22330SOL    HW169144   0.618   1.707   6.671  0.8525 -2.5516  0.2488
22330SOL    HW269145   0.589   1.776   6.540  0.3740  1.8148  2.4591
22331SOL     OW69146   2.120   0.569   5.073 -0.1248 -0.1508 -0.1392
22331SOL    HW169147   2.070   0.641   5.112 -1.1984 -0.7568 -0.3499
22331SOL    HW269148   2.107   0.496   5.133  0.4412 -0.3523 -0.2569
22332SOL     OW69149   9.510   0.697   1.136 -0.0887 -0.4535 -0.4294
22332SOL    HW169150   9.483   0.606   1.147 -0.7760  0.0014  2.2352
22332SOL    HW269151   9.555   0.719   1.217 -1.3410  2.0247 -0.3113
22333SOL     OW69152   1.772   5.157   2.723 -0.3667  0.6825  0.2838
22333SOL    HW169153   1.836   5.203   2.667 -0.0524  0.9922  0.8926
22333SOL    HW269154   1.740   5.225   2.782 -2.6939  1.0191 -1.2263
22334SOL     OW69155   7.094   5.399   1.761 -0.2959 -0.0452  0.4173
22334SOL    HW169156   7.134   5.468   1.813 -0.3501 -0.1942  0.6586
22334SOL    HW269157   7.000   5.407   1.778 -0.3893  0.3898 -0.2508
22335SOL     OW69158   8.270   0.922   1.674  0.2571 -0.1170 -0.1450
22335SOL    HW169159   8.227   0.985   1.616  1.3826 -0.3846 -1.2918
22335SOL    HW269160   8.357   0.909   1.637  0.3425 -1.7403  0.5249
22336SOL     OW69161   1.726   1.067   5.964  0.2513  0.0871 -0.0151
22336SOL    HW169162   1.818   1.042   5.969 -0.0418 -1.0678 -0.0746
22336SOL    HW269163   1.727   1.162   5.958  1.4074  0.1550  0.9049
22337SOL     OW69164   7.767   9.387   1.698  0.6857 -0.0704  0.6078
22337SOL    HW169165   7.726   9.385   1.785  1.1528 -2.5682  0.8506
22337SOL    HW269166   7.744   9.303   1.659  1.8729  0.3207 -1.0298
22338SOL     OW69167   4.904   8.707   5.519  0.1932 -0.2299 -0.0649
22338SOL    HW169168   4.940   8.785   5.476 -1.0758  0.2071 -0.3696
22338SOL    HW269169   4.811   8.708   5.497 -0.1043 -1.0933  1.0790
22339SOL     OW69170   8.717   7.131   0.542 -0.0069  0.0604  0.5805
22339SOL    HW169171   8.708   7.223   0.565 -0.3464  0.8077 -2.1634
22339SOL    HW269172   8.770   7.094   0.612  1.8783  2.8007  0.7885
22340SOL     OW69173   8.498   5.868   0.109  0.0437  0.7224  0.5425
22340SOL    HW169174   8.578   5.840   0.065 -0.0530  1.1193  0.1058
22340SOL    HW269175   8.435   5.798   0.091  0.3240  0.3482  0.9941
22341SOL     OW69176   5.982   5.458   7.227  0.1062  0.0036  0.1197
22341SOL    HW169177   5.901   5.434   7.183  1.3036  0.1146 -2.3183
22341SOL    HW269178   5.997   5.389   7.291 -1.6492 -0.2531  0.2887
22342SOL     OW69179   0.140   4.608   9.478 -0.6364 -0.0380  0.2299
22342SOL    HW169180   0.117   4.516   9.492 -0.2135 -0.0322  1.0393
22342SOL    HW269181   0.231   4.606   9.449 -1.3751 -0.0158 -2.2948
22343SOL     OW69182   6.063   5.235   7.390 -0.6211 -0.3904  0.7535
22343SOL    HW169183   6.044   5.152   7.348  1.4794 -0.2163 -0.6969
22343SOL    HW269184   6.151   5.225   7.426 -1.8167 -0.0755  4.1215
22344SOL     OW69185   5.426   0.685   1.359 -0.0302 -0.1937  0.2344
22344SOL    HW169186   5.502   0.673   1.416 -0.0268  1.9667  0.7906
22344SOL    HW269187   5.350   0.671   1.417 -0.0272  1.0098  0.5493
22345SOL     OW69188   5.245   0.156   6.663 -0.1554 -0.3570  0.2741
22345SOL    HW169189   5.157   0.123   6.683  0.8298 -2.6240  1.2237
22345SOL    HW269190   5.262   0.128   6.574 -0.6609  0.7878 -0.2031
22346SOL     OW69191   8.390   5.496   0.008 -0.1249 -0.0988  0.2264
22346SOL    HW169192   8.463   5.439   0.032  0.5893  0.2708 -0.9781
22346SOL    HW269193   8.314   5.456   0.051  0.5466 -1.2645  0.3930
22347SOL     OW69194   7.283   7.219   2.794 -0.0350  0.5457  0.3356
22347SOL    HW169195   7.221   7.162   2.840 -0.1132 -0.0822 -0.5250
22347SOL    HW269196   7.361   7.220   2.849 -0.9699  1.7605  1.7065
22348SOL     OW69197   7.875   9.458   8.891 -0.0108 -0.3248  0.5690
22348SOL    HW169198   7.848   9.417   8.809  0.5201 -0.2746  0.3608
22348SOL    HW269199   7.956   9.503   8.869  0.3497 -0.6428  1.2090
22349SOL     OW69200   2.794   8.328   0.551  0.6488 -0.2572 -0.1097
22349SOL    HW169201   2.761   8.240   0.535  1.1601 -0.4694 -0.0266
22349SOL    HW269202   2.882   8.314   0.588  0.3796  0.2630  0.7666
22350SOL     OW69203   1.530   2.728   7.031  0.1898  0.7163 -0.8771
22350SOL    HW169204   1.493   2.813   7.055  1.5819  1.1780 -0.2766
22350SOL    HW269205   1.540   2.681   7.114 -3.9766 -1.6113 -1.3893
22351SOL     OW69206   8.250   6.272   4.354 -0.7063 -0.3895 -0.4155
22351SOL    HW169207   8.334   6.232   4.376 -0.7667 -0.5465 -0.4688
22351SOL    HW269208   8.195   6.198   4.326 -0.9840 -0.3414 -0.0085
22352SOL     OW69209   2.251   7.935   5.296 -0.1597 -0.5025 -0.1104
22352SOL    HW169210   2.226   8.016   5.342  2.1026  1.1238 -1.4893
22352SOL    HW269211   2.208   7.865   5.345  0.5016  1.2456  3.2729
22353SOL     OW69212   1.485   0.889   7.196  0.1656 -0.2137 -0.4144
22353SOL    HW169213   1.524   0.967   7.235  0.7878 -0.2411 -0.9645
22353SOL    HW269214   1.531   0.816   7.237  0.8575 -0.2410 -1.2204
22354SOL     OW69215   5.594   3.324   1.996  0.5143  0.1151  0.1095
22354SOL    HW169216   5.556   3.409   2.019  0.0810  0.0979 -0.5310
22354SOL    HW269217   5.597   3.323   1.901 -2.1604 -1.6978 -0.0809
22355SOL     OW69218   0.840   3.022   2.106 -0.1401 -0.0415 -0.0200
22355SOL    HW169219   0.924   3.034   2.150  0.2689 -1.5564 -0.3493
22355SOL    HW269220   0.777   3.008   2.178  0.5132 -2.4481  0.1752
22356SOL     OW69221   9.264   9.007   6.170 -0.1146  0.1165  0.1422
22356SOL    HW169222   9.246   8.942   6.102  0.5051  0.0866  0.0061
22356SOL    HW269223   9.199   9.076   6.154  0.0643  0.1416 -0.5249
22357SOL     OW69224   9.105   4.382   8.281 -0.3293 -0.0586 -0.0009
22357SOL    HW169225   9.034   4.379   8.346 -0.2515 -1.6678  0.0416
22357SOL    HW269226   9.103   4.473   8.249 -0.4864  0.7448  2.0885
22358SOL     OW69227   8.451   6.728   5.962  0.0114 -0.3726 -0.3682
22358SOL    HW169228   8.538   6.711   5.924 -0.0177  0.9230 -1.0460
22358SOL    HW269229   8.394   6.740   5.886 -0.2322  1.3360  0.0581
22359SOL     OW69230   7.732   3.193   6.478  0.3609  0.4151 -0.1676
22359SOL    HW169231   7.756   3.159   6.564 -0.4639  1.4884  0.5169
22359SOL    HW269232   7.650   3.240   6.492 -0.2684 -0.1289 -1.7260
22360SOL     OW69233   4.883   5.887   7.752 -0.2622 -0.6446  0.0745
22360SOL    HW169234   4.860   5.939   7.674  2.5917  2.7443  1.2578
22360SOL    HW269235   4.809   5.899   7.811 -1.0350 -0.5937 -0.8703
22361SOL     OW69236   4.879   3.830   0.868  0.3388  0.1289 -0.2372
22361SOL    HW169237   4.876   3.925   0.876 -0.7441  0.0145  0.9036
22361SOL    HW269238   4.971   3.810   0.852  0.7664  1.2807  0.6960
22362SOL     OW69239   3.255   8.471   0.233 -0.1191 -0.1646  0.4150
22362SOL    HW169240   3.300   8.415   0.170  2.4058  0.8093  1.2285
22362SOL    HW269241   3.232   8.413   0.305  0.2045 -0.6359  0.1454
22363SOL     OW69242   4.196   4.960   8.921  0.3688  0.0121  0.2682
22363SOL    HW169243   4.263   4.927   8.860 -0.2015  1.0622 -0.9811
22363SOL    HW269244   4.169   4.883   8.971 -1.7458 -1.8398 -3.2829
22364SOL     OW69245   9.229   1.034   2.796 -0.0683 -0.4551 -0.4895
22364SOL    HW169246   9.317   1.007   2.822 -0.3246  0.0717  0.9885
22364SOL    HW269247   9.219   1.121   2.832 -1.4002 -0.7194 -0.1840
22365SOL     OW69248   4.657   6.544   1.768 -0.2557  0.1315  1.1168
22365SOL    HW169249   4.609   6.527   1.849 -0.2746 -0.8400  0.9177
22365SOL    HW269250   4.592   6.585   1.710 -1.4511 -2.8231  0.2092
22366SOL     OW69251   4.621   9.357   1.983  0.0533 -0.0211 -0.1151
22366SOL    HW169252   4.708   9.370   2.022  0.6273 -0.3662 -1.2407
22366SOL    HW269253   4.625   9.269   1.946 -0.8115 -0.0637 -0.1046
22367SOL     OW69254   7.672   2.873   8.926  0.2403 -0.1989 -0.0493
22367SOL    HW169255   7.744   2.874   8.989  1.4563 -0.4558 -1.3800
22367SOL    HW269256   7.680   2.956   8.879 -0.5788 -0.0614  0.0390
22368SOL     OW69257   9.153   3.518   5.638  0.5556  0.1714 -0.0265
22368SOL    HW169258   9.210   3.555   5.570 -0.2962  1.4503 -0.0806
22368SOL    HW269259   9.065   3.529   5.604  0.1353  0.5338  1.1268
22369SOL     OW69260   8.136   8.882   1.903 -0.3039 -0.2238 -0.6421
22369SOL    HW169261   8.158   8.953   1.963  1.5065  2.3859 -4.0569
22369SOL    HW269262   8.215   8.828   1.900  0.4630  0.9300 -2.2282
22370SOL     OW69263   4.272   2.737   8.968  0.4541 -0.1456  0.0280
22370SOL    HW169264   4.338   2.697   9.025  0.6131 -0.9075 -0.6595
22370SOL    HW269265   4.316   2.812   8.930  0.9349 -0.6431 -0.4184
22371SOL     OW69266   1.970   4.982   8.090  0.2727  0.1651 -0.2606
22371SOL    HW169267   2.034   4.915   8.114  0.4594 -0.0619 -1.3338
22371SOL    HW269268   1.938   4.955   8.004 -1.4093  0.1723  0.3213
22372SOL     OW69269   8.846   4.414   6.871 -0.3595  0.5301  0.4368
22372SOL    HW169270   8.865   4.483   6.934  1.8446 -0.2519  0.7187
22372SOL    HW269271   8.825   4.337   6.925 -1.4808  0.6105  0.1436
22373SOL     OW69272   5.631   2.794   2.791 -0.3647  0.7051  0.2114
22373SOL    HW169273   5.635   2.787   2.886 -2.8479 -0.6489  0.3184
22373SOL    HW269274   5.718   2.766   2.761 -0.0928 -0.5976  2.0291
22374SOL     OW69275   2.820   5.510   8.667 -0.0270 -0.2699  0.1705
22374SOL    HW169276   2.752   5.574   8.643  0.4478  0.3425  0.4178
22374SOL    HW269277   2.773   5.427   8.674 -0.7399  0.1236  0.2528
22375SOL     OW69278   1.553   1.554   5.325  0.3117  0.0358 -0.0983
22375SOL    HW169279   1.496   1.560   5.402 -0.3468 -0.7791 -0.5105
22375SOL    HW269280   1.635   1.594   5.353 -0.9551  2.8056 -0.0086
22376SOL     OW69281   2.604   8.564   7.594 -0.1218  0.0001 -0.7448
22376SOL    HW169282   2.554   8.554   7.675 -0.2537  0.8036 -0.7191
22376SOL    HW269283   2.597   8.657   7.573  1.4658  0.1706 -0.6740
22377SOL     OW69284   2.927   8.676   9.624  0.2948  0.4516  0.0368
22377SOL    HW169285   2.874   8.752   9.649 -0.2392 -0.3915  1.5872
22377SOL    HW269286   3.014   8.693   9.659 -0.0603 -0.0410  1.1895
22378SOL     OW69287   5.236   8.542   6.288 -0.1481  0.3017  0.5032
22378SOL    HW169288   5.265   8.549   6.378  2.6640  1.1918 -0.3744
22378SOL    HW269289   5.243   8.631   6.253 -0.9670 -0.0554 -0.6548
22379SOL     OW69290   7.730   0.172   3.165 -0.7917  0.1870 -0.1035
22379SOL    HW169291   7.783   0.164   3.086 -1.4294 -0.1437 -0.5039
22379SOL    HW269292   7.723   0.267   3.179 -1.5059  0.2875 -1.0221
22380SOL     OW69293   7.624   5.537   9.148 -0.1914  0.0403 -0.2762
22380SOL    HW169294   7.690   5.467   9.148 -2.1939 -2.0143 -1.8207
22380SOL    HW269295   7.659   5.602   9.087  0.9159 -0.4403 -0.1986
22381SOL     OW69296   1.232   3.047   7.233 -0.3114  0.3370  0.6244
22381SOL    HW169297   1.236   3.142   7.218 -2.8144  0.4442  0.1470
22381SOL    HW269298   1.225   3.038   7.328  0.3994  0.6058  0.7025
22382SOL     OW69299   3.038   5.063   9.529  0.0071  0.1863 -0.1344
22382SOL    HW169300   3.036   5.040   9.622  0.2307  0.4805 -0.0546
22382SOL    HW269301   3.131   5.058   9.505  0.0649  1.0503 -0.0998
22383SOL     OW69302   0.451   1.473   9.402 -0.1074 -0.2327  0.5053
22383SOL    HW169303   0.525   1.418   9.424  0.6897  0.6751  0.1715
22383SOL    HW269304   0.488   1.562   9.396 -1.3769  0.3724  1.2275
22384SOL     OW69305   0.561   6.356   7.291  0.3198  0.2101  0.9459
22384SOL    HW169306   0.556   6.263   7.315  1.2157 -1.0377 -2.8836
22384SOL    HW269307   0.632   6.360   7.227 -0.5106  3.3411  0.0429
22385SOL     OW69308   1.011   8.898   5.913 -0.1108 -0.1772  0.1822
22385SOL    HW169309   0.963   8.945   5.982  0.6171  1.2726 -0.2498
22385SOL    HW269310   0.975   8.933   5.831  1.7481  1.0865 -0.1565
22386SOL     OW69311   3.841   0.777   6.471  0.1961  0.2624 -0.1547
22386SOL    HW169312   3.789   0.736   6.540  0.2000  0.2830 -0.1392
22386SOL    HW269313   3.853   0.708   6.406  0.9206 -0.0087  0.2579
22387SOL     OW69314   8.304   1.262   0.365 -0.5329  0.4102  0.2626
22387SOL    HW169315   8.345   1.176   0.355  0.3919  0.8357  0.2387
22387SOL    HW269316   8.229   1.247   0.422 -1.0472 -0.6009 -0.6543
22388SOL     OW69317   6.309   5.168   7.465 -0.1943 -0.2274  0.0115
22388SOL    HW169318   6.294   5.206   7.552  0.5555  0.8140 -0.3027
22388SOL    HW269319   6.363   5.232   7.419 -2.2465  0.2299 -1.9518
22389SOL     OW69320   7.881   7.523   3.738 -0.6565  0.2627 -0.1445
22389SOL    HW169321   7.899   7.429   3.738  1.8018  0.6557  1.4408
22389SOL    HW269322   7.925   7.556   3.660 -0.3051  0.2829  0.0604
22390SOL     OW69323   6.833   1.902   1.400 -0.4294  0.2878 -0.1529
22390SOL    HW169324   6.740   1.881   1.407  0.4437 -4.3760  1.4481
22390SOL    HW269325   6.861   1.855   1.321  1.0369 -1.2256  1.1994
22391SOL     OW69326   0.269   2.262   0.211 -0.1551  0.0797 -0.1840
22391SOL    HW169327   0.358   2.242   0.239 -0.6691 -1.2650  0.6093
22391SOL    HW269328   0.245   2.339   0.261  0.3618  0.0991  0.0434
22392SOL     OW69329   8.905   9.568   4.997  0.3765 -0.2996 -0.1251
22392SOL    HW169330   8.872   9.500   4.938 -0.1439 -0.4901  0.3805
22392SOL    HW269331   8.865   9.548   5.081 -0.1057  0.8703 -0.0575
22393SOL     OW69332   2.569   5.754   9.214 -0.4870  0.6984  0.5850
22393SOL    HW169333   2.503   5.728   9.277 -0.2125  0.2574  0.6893
22393SOL    HW269334   2.533   5.728   9.129  0.9546 -2.6353  0.8559
22394SOL     OW69335   0.616   3.294   3.443  0.4707  0.0453 -0.1797
22394SOL    HW169336   0.669   3.215   3.456  0.8133  0.6120  2.4372
22394SOL    HW269337   0.625   3.314   3.349  3.1130 -1.1108 -0.2614
22395SOL     OW69338   2.256   6.513   7.717 -0.0697  0.5065 -0.1003
22395SOL    HW169339   2.229   6.555   7.635 -0.2930 -1.4626 -1.1137
22395SOL    HW269340   2.184   6.453   7.738 -0.9610  2.3925  2.7114
22396SOL     OW69341   4.024   5.434   8.455 -0.5347  0.0926  0.4944
22396SOL    HW169342   4.109   5.409   8.492  0.6478  1.5070 -1.1391
22396SOL    HW269343   3.981   5.483   8.525  0.3953  0.1777  1.0253
22397SOL     OW69344   5.494   5.619   9.563 -0.2009  0.1371 -0.1306
22397SOL    HW169345   5.511   5.545   9.504 -0.3629  0.8902 -1.1613
22397SOL    HW269346   5.421   5.666   9.522 -1.6907 -0.4203  1.7518
22398SOL     OW69347   2.283   5.050   9.177  0.0818 -0.1178  0.1061
22398SOL    HW169348   2.333   5.131   9.173 -1.2143  0.7037 -0.1309
22398SOL    HW269349   2.318   4.996   9.106  2.6559 -0.8433  1.7879
22399SOL     OW69350   7.907   8.115   7.092  0.0196 -0.0656  0.0781
22399SOL    HW169351   7.908   8.048   7.160  0.9477  2.5737  2.8833
22399SOL    HW269352   7.844   8.180   7.123 -0.7492  0.5218 -2.4629
22400SOL     OW69353   2.387   2.189   5.737  0.2497 -0.0830  0.4972
22400SOL    HW169354   2.334   2.111   5.726 -1.3971  1.2755 -2.2725
22400SOL    HW269355   2.465   2.173   5.684 -1.0738  0.8611 -1.8832
22401SOL     OW69356   5.783   2.354   8.585 -0.0732 -0.6093  0.6665
22401SOL    HW169357   5.839   2.282   8.556 -2.4449 -2.7208  0.9704
22401SOL    HW269358   5.844   2.422   8.613  2.2969 -2.2979 -0.0636
22402SOL     OW69359   0.218   9.362   0.545 -0.3462  0.4681 -0.5872
22402SOL    HW169360   0.176   9.378   0.461 -0.9282  0.0181 -0.3903
22402SOL    HW269361   0.201   9.269   0.562  0.6791  0.2903 -0.4766
22403SOL     OW69362   7.652   0.401   7.662  0.1761 -0.4184  0.0337
22403SOL    HW169363   7.744   0.413   7.687  0.1921 -1.3404  0.4533
22403SOL    HW269364   7.604   0.399   7.745 -0.5551  2.2672 -0.2254
22404SOL     OW69365   3.556   1.857   6.705  0.3950 -0.3338 -0.1244
22404SOL    HW169366   3.532   1.950   6.699 -0.3089 -0.6025 -3.1846
22404SOL    HW269367   3.473   1.811   6.698  0.7678 -1.2354  1.1189
22405SOL     OW69368   0.128   5.609   3.573  0.3705  0.3453  0.0134
22405SOL    HW169369   0.066   5.620   3.645 -1.7199 -0.3945 -1.5964
22405SOL    HW269370   0.079   5.635   3.495  2.1735 -0.0754 -1.3131
22406SOL     OW69371   5.968   6.079   2.810 -0.4808 -0.2733 -0.0219
22406SOL    HW169372   5.993   6.009   2.750 -0.6346 -0.6860  0.3815
22406SOL    HW269373   6.036   6.146   2.799  0.7027 -1.2665  0.8778
22407SOL     OW69374   1.985   2.557   8.364 -0.8936 -0.0405  0.4203
22407SOL    HW169375   2.051   2.499   8.403 -0.6798  0.2109  0.4324
22407SOL    HW269376   1.965   2.517   8.279 -0.4092  0.1178  0.2312
22408SOL     OW69377   8.768   1.456   6.835 -0.3121  0.1960 -0.4256
22408SOL    HW169378   8.696   1.468   6.896  0.8410 -0.0239  1.0327
22408SOL    HW269379   8.815   1.540   6.835  0.1627 -0.0649 -0.3855
22409SOL     OW69380   8.947   0.439   4.707 -0.4874  0.0824  0.5508
22409SOL    HW169381   8.902   0.391   4.777 -3.2416  0.0567 -1.1115
22409SOL    HW269382   8.960   0.374   4.638  1.3643  0.3376  0.6039
22410SOL     OW69383   3.085   9.125   8.357 -0.2812 -0.0612  0.3179
22410SOL    HW169384   3.157   9.185   8.377 -0.0840 -0.0783 -0.3323
22410SOL    HW269385   3.022   9.140   8.427  0.5242 -0.3337  1.1365
22411SOL     OW69386   4.248   0.552   3.710  0.5652 -0.2969  0.1146
22411SOL    HW169387   4.162   0.554   3.752 -0.1447 -1.8341 -1.1361
22411SOL    HW269388   4.310   0.550   3.783 -0.4063  1.1737  1.0429
22412SOL     OW69389   0.860   9.189   0.781  0.5872  0.2408 -0.0696
22412SOL    HW169390   0.782   9.148   0.819 -0.5107  2.0302 -0.2947
22412SOL    HW269391   0.898   9.239   0.853  0.8251  0.3547 -0.2743
22413SOL     OW69392   4.853   7.997   7.716 -0.5657  0.1352 -0.5120
22413SOL    HW169393   4.810   8.027   7.636  0.7985 -2.4400 -2.3724
22413SOL    HW269394   4.946   7.995   7.694 -0.2718 -1.9178  0.6118
22414SOL     OW69395   8.518   5.073   6.870 -0.0947 -0.2625  0.0639
22414SOL    HW169396   8.595   5.036   6.827 -0.8800 -1.0668 -0.7228
22414SOL    HW269397   8.533   5.061   6.963  0.3682 -1.1612 -0.1226
22415SOL     OW69398   1.575   2.123   4.935 -0.2655  0.5904 -0.0362
22415SOL    HW169399   1.506   2.060   4.912 -0.3188 -0.4334  2.4871
22415SOL    HW269400   1.649   2.099   4.880 -1.1325  0.0882 -1.0246
22416SOL     OW69401   2.348   4.104   0.130  0.1626  0.0259  0.1535
22416SOL    HW169402   2.304   4.021   0.115  1.7070 -0.4509 -2.3886
22416SOL    HW269403   2.441   4.081   0.134  0.5010  1.4462  1.3246
22417SOL     OW69404   6.439   5.620   8.361 -0.2239  0.3068 -0.1835
22417SOL    HW169405   6.409   5.676   8.433  0.9627  1.7500 -0.7779
22417SOL    HW269406   6.361   5.568   8.339 -1.1055  1.0468  0.9920
22418SOL     OW69407   1.692   1.722   8.264 -0.0390 -0.1867 -0.2555
22418SOL    HW169408   1.749   1.701   8.337  0.3169  0.7398 -0.2557
22418SOL    HW269409   1.748   1.716   8.187 -0.4007 -1.1128 -0.4574
22419SOL     OW69410   3.272   3.049   4.690  0.4857 -0.3812 -1.0269
22419SOL    HW169411   3.324   3.128   4.707 -0.3474 -0.1251  0.4672
22419SOL    HW269412   3.324   2.977   4.727 -0.6811  0.0143  1.6247
22420SOL     OW69413   1.177   1.907   4.978  0.4389 -0.4652 -0.3284
22420SOL    HW169414   1.248   1.958   5.019  1.1284 -3.5688  2.8481
22420SOL    HW269415   1.131   1.867   5.052 -3.2672 -0.4296 -2.4171
22421SOL     OW69416   5.032   6.209   3.709  0.0134  0.3784 -0.0716
22421SOL    HW169417   5.041   6.129   3.761  1.3467  0.2150 -0.5014
22421SOL    HW269418   5.057   6.183   3.621  0.9002  1.3392 -0.1361
22422SOL     OW69419   8.457   3.336   2.903  0.7428 -0.2692 -0.2968
22422SOL    HW169420   8.535   3.390   2.889  0.5770  1.0737  3.1301
22422SOL    HW269421   8.489   3.258   2.948  0.1683  0.3027  1.1557
22423SOL     OW69422   8.196   9.432   9.160  0.7312 -0.2856  0.4769
22423SOL    HW169423   8.165   9.370   9.094  1.3366 -0.8980  0.7554
22423SOL    HW269424   8.168   9.518   9.127  0.6768 -0.6160 -0.3664
22424SOL     OW69425   1.876   4.586   7.101  0.5065  0.0920 -0.1122
22424SOL    HW169426   1.867   4.510   7.043  0.7481 -0.3526  0.4215
22424SOL    HW269427   1.799   4.583   7.157  0.0810  0.7376 -0.6460
22425SOL     OW69428   6.281   6.060   7.361 -0.4558  0.3885  0.3263
22425SOL    HW169429   6.301   6.101   7.277 -0.0410  1.3626  0.8892
22425SOL    HW269430   6.310   6.123   7.426 -2.0629  0.2584  1.2114
22426SOL     OW69431   8.473   0.112   1.124 -0.3447  0.8451 -0.7332
22426SOL    HW169432   8.438   0.132   1.211 -0.0643 -0.9437 -0.1830
22426SOL    HW269433   8.565   0.136   1.129 -0.3309  0.7560 -0.5370
22427SOL     OW69434   3.902   5.956   1.282 -0.0181  0.2925  0.2442
22427SOL    HW169435   3.939   6.015   1.347  0.7154  1.0203 -0.7960
22427SOL    HW269436   3.872   6.014   1.211  1.6659 -0.5992 -1.2741
22428SOL     OW69437   8.769   3.326   7.011  0.4391 -0.0408 -0.3604
22428SOL    HW169438   8.724   3.407   7.036  0.3535 -0.0796 -0.3895
22428SOL    HW269439   8.734   3.305   6.925  1.2692  0.4872 -0.8345
22429SOL     OW69440   4.384   8.606   4.062 -1.0337 -0.6029  0.2550
22429SOL    HW169441   4.399   8.620   4.155  1.0060 -0.8723  0.0199
22429SOL    HW269442   4.443   8.535   4.038 -0.2733  0.5374 -1.5520
22430SOL     OW69443   2.871   1.190   1.296 -0.4302 -0.3865  0.6635
22430SOL    HW169444   2.857   1.284   1.283  2.8913 -0.0347 -1.5855
22430SOL    HW269445   2.966   1.180   1.298 -0.6662 -3.6396  1.9894
22431SOL     OW69446   1.031   1.484   8.429 -0.2135 -0.2818 -0.1773
22431SOL    HW169447   1.009   1.429   8.353 -2.2758  0.8297 -0.4522
22431SOL    HW269448   0.953   1.537   8.444  1.6248  2.5721  0.0845
22432SOL     OW69449   4.910   1.311   5.485 -0.3339 -0.2904 -0.0216
22432SOL    HW169450   4.930   1.236   5.541  0.3695 -0.5653 -0.6297
22432SOL    HW269451   4.849   1.277   5.420 -0.7184 -0.1051  0.2360
22433SOL     OW69452   3.589   3.696   3.555 -0.1043 -0.3500 -0.5699
22433SOL    HW169453   3.661   3.633   3.564  1.6690  1.1304 -3.0682
22433SOL    HW269454   3.516   3.644   3.522 -0.0211 -1.7637  1.3155
22434SOL     OW69455   7.184   8.428   5.323 -0.2757  0.2374 -0.2438
22434SOL    HW169456   7.145   8.348   5.360 -0.7179  0.7806  0.4946
22434SOL    HW269457   7.127   8.499   5.354  0.4574  0.8997 -0.3778
22435SOL     OW69458   0.016   7.340   4.724 -0.0935 -0.2143 -0.1734
22435SOL    HW169459  -0.067   7.375   4.691  0.5932 -0.0340 -1.8393
22435SOL    HW269460   0.072   7.417   4.735  0.5242 -0.5020 -1.1566
22436SOL     OW69461   1.798   5.933   8.408  0.2647  0.2532  0.2135
22436SOL    HW169462   1.801   5.901   8.499  0.6694 -1.6812 -0.4432
22436SOL    HW269463   1.774   6.026   8.417 -1.0165 -0.1997  2.2289
22437SOL     OW69464   0.764   6.140   8.578  0.2396 -0.0681  0.3148
22437SOL    HW169465   0.717   6.167   8.657 -0.9777 -4.4651  1.3681
22437SOL    HW269466   0.696   6.132   8.511  0.6613  0.0675 -0.1361
22438SOL     OW69467   5.591   3.979   3.589 -0.2051 -0.2383 -0.2057
22438SOL    HW169468   5.570   3.886   3.578 -1.2283  0.0066 -0.4508
22438SOL    HW269469   5.570   3.998   3.681 -2.4837  0.3249 -0.7857
22439SOL     OW69470   8.120   5.063   8.203 -0.4749 -0.0613 -0.4668
22439SOL    HW169471   8.156   4.974   8.202  0.3302  0.2374 -1.8910
22439SOL    HW269472   8.092   5.078   8.112 -2.8430  0.2949  0.2656
22440SOL     OW69473   6.479   3.783   7.267  0.5952 -0.0071  0.1281
22440SOL    HW169474   6.513   3.702   7.228 -2.4738 -0.4347 -1.9177
22440SOL    HW269475   6.538   3.851   7.235  0.4783 -0.8741 -2.0875
22441SOL     OW69476   1.794   8.542   8.424  0.3723 -0.2876 -0.4449
22441SOL    HW169477   1.777   8.453   8.394  1.0750 -0.4757 -0.2989
22441SOL    HW269478   1.879   8.565   8.386  0.0515  0.4382 -0.7397
22442SOL     OW69479   3.636   7.558   7.236 -0.0345 -0.3948 -0.5304
22442SOL    HW169480   3.560   7.565   7.294  0.9481 -2.4138  1.1285
22442SOL    HW269481   3.636   7.467   7.207  2.7747 -1.0209  1.1065
22443SOL     OW69482   9.546   8.658   8.353  0.3218  0.1180  0.0168
22443SOL    HW169483   9.622   8.599   8.351  0.8892  0.8417 -0.5017
22443SOL    HW269484   9.495   8.634   8.276  0.3385  0.0341  0.0312
22444SOL     OW69485   0.704   2.837   7.667 -0.0602 -0.0797 -0.1673
22444SOL    HW169486   0.741   2.918   7.630  0.3621  0.0003  0.4225
22444SOL    HW269487   0.731   2.769   7.606  0.0740  0.1442 -0.3627
22445SOL     OW69488   2.097   1.341   7.261  0.6219  0.2646 -0.2800
22445SOL    HW169489   2.071   1.318   7.351  0.4225  1.9198  0.1263
22445SOL    HW269490   2.143   1.425   7.270 -0.2569  0.9573 -1.8278
22446SOL     OW69491   7.286   2.292   4.533  0.3262  0.3212  0.0191
22446SOL    HW169492   7.275   2.205   4.573  0.9920  0.1064 -0.2452
22446SOL    HW269493   7.199   2.314   4.501  0.1211 -0.2038  0.1951
22447SOL     OW69494   1.164   6.860   2.654 -0.1577  0.5654  0.1125
22447SOL    HW169495   1.220   6.910   2.594  0.7948 -1.3477 -0.6933
22447SOL    HW269496   1.224   6.797   2.695 -1.5594 -1.0784 -0.2480
22448SOL     OW69497   6.178   4.233   8.183  0.0161 -0.8659  0.6051
22448SOL    HW169498   6.124   4.185   8.120  0.9677 -1.0983 -0.0574
22448SOL    HW269499   6.268   4.218   8.154  0.5812 -1.8919  2.6393
22449SOL     OW69500   2.181   0.465   4.784 -0.3468 -0.6307  0.6157
22449SOL    HW169501   2.171   0.489   4.692  1.2916 -1.8767  0.0680
22449SOL    HW269502   2.224   0.379   4.783 -0.9185 -1.0021  2.5422
22450SOL     OW69503   5.764   1.729   7.014  0.0214 -0.3782 -0.2551
22450SOL    HW169504   5.773   1.814   7.058 -0.2618  0.6870 -2.1302
22450SOL    HW269505   5.688   1.740   6.957 -0.5474 -2.2169  0.0782
22451SOL     OW69506   4.344   5.448   4.277 -0.4291 -0.6011  0.3405
22451SOL    HW169507   4.262   5.484   4.241  0.8996  0.1268 -2.1873
22451SOL    HW269508   4.379   5.519   4.331  0.4041  0.6394 -1.7348
22452SOL     OW69509   6.195   5.629   7.235  0.2182  0.2849  0.3836
22452SOL    HW169510   6.149   5.696   7.285  1.1386 -0.0328  1.6852
22452SOL    HW269511   6.129   5.562   7.219 -0.5284  1.1514 -0.3400
22453SOL     OW69512   3.495   6.566   7.422  0.1525  0.4597  0.5357
22453SOL    HW169513   3.549   6.615   7.485  0.4814  1.3608 -0.4149
22453SOL    HW269514   3.502   6.475   7.450  2.6925  0.4593  0.0977
22454SOL     OW69515   5.913   6.901   0.820 -0.1621 -0.1512  0.4366
22454SOL    HW169516   5.982   6.952   0.863 -0.9021 -0.1061  1.6151
22454SOL    HW269517   5.840   6.903   0.882 -2.0423  1.5943 -1.6510
22455SOL     OW69518   4.745   9.225   8.917 -0.2195  0.9480  0.2719
22455SOL    HW169519   4.798   9.203   8.840 -1.5240 -0.2772 -0.3036
22455SOL    HW269520   4.718   9.316   8.902 -0.7256  0.6172 -0.8798
22456SOL     OW69521   4.895   6.699   8.952 -0.3597 -0.9136 -0.6313
22456SOL    HW169522   4.815   6.654   8.980 -0.2020 -0.5860  0.3890
22456SOL    HW269523   4.863   6.775   8.902 -0.7710  0.0425  0.9988
22457SOL     OW69524   1.834   8.530   0.116  0.3149  0.0323 -0.4815
22457SOL    HW169525   1.857   8.551   0.026 -0.6011  1.5002 -0.4137
22457SOL    HW269526   1.752   8.578   0.132  0.5153 -0.0893  1.1630
22458SOL     OW69527   4.983   9.489   3.837 -0.3152  0.0025 -0.1437
22458SOL    HW169528   5.026   9.494   3.922  0.1477  1.6617 -0.4402
22458SOL    HW269529   5.008   9.403   3.803 -0.8345 -0.8528  1.5264
22459SOL     OW69530   2.902   3.493   0.373  0.5774 -0.1039  0.2054
22459SOL    HW169531   2.818   3.451   0.356 -0.3059  1.5372  0.3099
22459SOL    HW269532   2.958   3.422   0.405 -0.6230 -1.3107 -0.2405
22460SOL     OW69533   4.441   6.340   8.045 -0.5330 -0.3661  0.0968
22460SOL    HW169534   4.419   6.257   8.002  0.6259 -0.4307 -0.4066
22460SOL    HW269535   4.511   6.316   8.107 -0.1482  0.2427 -0.0988
22461SOL     OW69536   8.089   3.058   7.501 -0.3263 -0.4794  0.4172
22461SOL    HW169537   8.122   3.148   7.496 -0.3905 -0.4765  0.0113
22461SOL    HW269538   8.069   3.045   7.594 -1.1488  0.2309  0.3541
22462SOL     OW69539   8.783   6.359   7.371 -0.0271  0.4547  0.2513
22462SOL    HW169540   8.830   6.441   7.359 -0.2856  1.0936  2.9093
22462SOL    HW269541   8.842   6.292   7.335  1.2595  1.5826  0.1838
22463SOL     OW69542   3.929   2.841   5.628 -0.6993  0.3060  0.2204
22463SOL    HW169543   3.943   2.873   5.539  2.0150 -0.0273  0.4244
22463SOL    HW269544   3.973   2.756   5.630 -1.3507 -0.0273  1.6774
22464SOL     OW69545   8.228   1.710   5.634 -0.1342  0.1506 -0.4291
22464SOL    HW169546   8.146   1.759   5.626  0.3387  0.6615 -2.8465
22464SOL    HW269547   8.213   1.629   5.587  0.3757 -0.3014  0.1611
22465SOL     OW69548   7.655   2.992   9.414  0.5058  0.4218 -0.5670
22465SOL    HW169549   7.732   2.980   9.470  1.6033  1.1370 -1.8364
22465SOL    HW269550   7.631   2.903   9.387  1.6441  0.2535 -1.0880
22466SOL     OW69551   5.554   6.646   3.357 -0.5840  0.3941  0.6390
22466SOL    HW169552   5.505   6.725   3.334  0.4128  0.8352 -0.0357
22466SOL    HW269553   5.545   6.589   3.281  0.9959  1.0061 -0.0416
22467SOL     OW69554   1.002   5.572   4.727  0.0149 -0.2014 -0.3060
22467SOL    HW169555   1.057   5.615   4.792 -1.3168  0.6326  0.3159
22467SOL    HW269556   0.936   5.638   4.704 -0.4079 -0.9849 -1.4181
22468SOL     OW69557   7.419   6.779   7.359 -0.1599 -0.4525 -0.3898
22468SOL    HW169558   7.501   6.829   7.360  0.3501 -1.2130 -1.6602
22468SOL    HW269559   7.400   6.761   7.451  0.3183  0.9787  0.0121
22469SOL     OW69560   9.473   2.444   1.802  0.7181  0.3172 -0.1995
22469SOL    HW169561   9.524   2.382   1.750  0.4102  0.9394 -1.2699
22469SOL    HW269562   9.502   2.531   1.772 -0.2038  0.6837 -0.0725
22470SOL     OW69563   3.624   1.963   5.156 -0.3215  0.1711 -0.7914
22470SOL    HW169564   3.626   2.049   5.199  2.4650 -0.2472  0.0981
22470SOL    HW269565   3.654   1.981   5.066  0.0761  0.1713 -0.6614
22471SOL     OW69566   0.822   0.156   1.836 -0.1827  0.1507 -0.2911
22471SOL    HW169567   0.819   0.102   1.915  2.7179 -0.9020 -0.8004
22471SOL    HW269568   0.829   0.093   1.764 -0.7916  1.1378 -1.2482
22472SOL     OW69569   4.100   3.717   4.705 -0.4177 -0.2202  0.0802
22472SOL    HW169570   4.104   3.809   4.730 -0.3030 -0.0875 -0.4123
22472SOL    HW269571   4.185   3.681   4.732 -0.6387 -0.2965  0.6931
22473SOL     OW69572   6.049   1.438   0.656 -0.7699  0.3600  0.1292
22473SOL    HW169573   6.109   1.509   0.677  0.3472 -0.3893 -0.3987
22473SOL    HW269574   6.009   1.463   0.573 -0.1440  0.2376 -0.2129
22474SOL     OW69575   4.981   2.804   9.125 -0.0070 -0.1242 -0.0190
22474SOL    HW169576   4.888   2.811   9.145  0.0790  1.3542 -0.0319
22474SOL    HW269577   5.020   2.881   9.167  1.0821 -0.2680 -0.7391
22475SOL     OW69578   9.587   5.270   0.732 -0.5489 -0.1997  0.5162
22475SOL    HW169579   9.575   5.319   0.814  1.4597  2.0446 -0.3807
22475SOL    HW269580   9.668   5.220   0.747 -0.5520 -0.3186  0.1245
22476SOL     OW69581   2.563   4.282   6.834  0.3493  0.0772 -0.0321
22476SOL    HW169582   2.654   4.303   6.811  0.9683 -0.1566  1.9668
22476SOL    HW269583   2.565   4.271   6.929 -1.3485 -2.0740 -0.1795
22477SOL     OW69584   2.164   6.829   5.782  0.1495 -0.1241  0.5620
22477SOL    HW169585   2.195   6.818   5.872  0.6046 -0.8872  0.3236
22477SOL    HW269586   2.069   6.827   5.789  0.1821 -0.3302  1.0145
22478SOL     OW69587   1.477   7.459   1.954  0.0466 -0.0714  0.1421
22478SOL    HW169588   1.465   7.553   1.966  1.5323  0.1530  0.0520
22478SOL    HW269589   1.397   7.420   1.989  0.3784  1.0848  2.4006
22479SOL     OW69590   3.524   0.801   2.851 -0.3969 -0.0800  0.0096
22479SOL    HW169591   3.557   0.809   2.761 -0.3467 -1.0608 -0.0739
22479SOL    HW269592   3.428   0.805   2.841 -0.3795  0.2797 -0.0300
22480SOL     OW69593   9.335   4.252   9.408  0.2513  0.1715  0.6728
22480SOL    HW169594   9.362   4.251   9.317  1.1529  1.5445  0.8973
22480SOL    HW269595   9.244   4.221   9.407  0.7750 -1.4297 -0.4655
22481SOL     OW69596   0.923   6.683   6.594  0.0705  0.0377  0.5408
22481SOL    HW169597   0.966   6.734   6.663  1.5562 -2.9954  2.0610
22481SOL    HW269598   0.989   6.620   6.567 -0.4195  1.0831 -3.8718
22482SOL     OW69599   9.610   5.211   9.377 -0.0591  0.3116  0.2076
22482SOL    HW169600   9.587   5.127   9.417  0.4673  0.1363  0.1623
22482SOL    HW269601   9.637   5.187   9.288  1.1423  0.3785  0.5331
22483SOL     OW69602   4.241   8.567   8.329  0.5650  0.2775  0.6071
22483SOL    HW169603   4.166   8.594   8.275  0.5417  1.8324  1.3962
22483SOL    HW269604   4.210   8.488   8.374  0.1679 -0.3472 -0.6940
22484SOL     OW69605   0.136   0.657   7.006 -0.3350 -0.0703  0.3868
22484SOL    HW169606   0.127   0.751   7.019  2.0600  0.4283 -0.8951
22484SOL    HW269607   0.103   0.642   6.917  0.0335 -0.3117  0.2907
22485SOL     OW69608   1.274   2.012   6.562  0.1461  0.1586 -0.2289
22485SOL    HW169609   1.335   1.938   6.559  0.6456  0.4498  1.5343
22485SOL    HW269610   1.219   1.994   6.638 -0.8032  0.7936 -0.7556
22486SOL     OW69611   3.912   0.652   9.554 -0.5835 -0.1861  0.0108
22486SOL    HW169612   3.932   0.745   9.567 -0.1272 -0.3593  0.5723
22486SOL    HW269613   3.816   0.649   9.547 -0.5635  0.4065 -0.7070
22487SOL     OW69614   5.401   7.846   2.556 -0.2053 -0.4736  0.3791
22487SOL    HW169615   5.468   7.780   2.573 -0.8505 -1.3773 -0.5066
22487SOL    HW269616   5.367   7.868   2.643 -1.0279 -2.4526  0.6155
22488SOL     OW69617   8.788   0.205   2.421 -0.3301 -0.1372  0.1034
22488SOL    HW169618   8.793   0.127   2.476 -0.1883 -1.0236 -1.1517
22488SOL    HW269619   8.695   0.229   2.422 -0.0904  1.0138  2.2549
22489SOL     OW69620   0.316   9.471   3.984 -0.3961 -0.2933  0.5226
22489SOL    HW169621   0.300   9.566   3.986  2.5380  0.4019 -1.2169
22489SOL    HW269622   0.309   9.448   3.891  3.0688 -0.7723  0.2445
22490SOL     OW69623   4.879   2.607   8.722  0.0088 -0.1908 -0.5645
22490SOL    HW169624   4.892   2.625   8.629 -1.2052  1.1721 -0.4912
22490SOL    HW269625   4.840   2.519   8.723 -1.3123  0.3518 -1.4567
22491SOL     OW69626   8.819   8.887   7.466  0.7298  0.4582 -0.2852
22491SOL    HW169627   8.731   8.850   7.471  1.2515 -1.5524 -3.3874
22491SOL    HW269628   8.805   8.982   7.467 -1.3425  0.1922  0.4564
22492SOL     OW69629   1.495   0.044   2.078 -0.2003 -0.1583 -0.1905
22492SOL    HW169630   1.459   0.027   2.166  0.3239  0.7301  0.2089
22492SOL    HW269631   1.588   0.060   2.093  0.1564 -1.3421 -1.0879
22493SOL     OW69632   0.292   4.622   8.875  0.3016 -0.5128 -0.3681
22493SOL    HW169633   0.220   4.659   8.824  0.6407 -0.1030 -0.5676
22493SOL    HW269634   0.256   4.543   8.915 -0.0545 -0.6906 -1.0214
22494SOL     OW69635   0.838   0.965   8.090  0.0195  0.3396 -0.6264
22494SOL    HW169636   0.805   0.978   8.001  1.3464  0.2556 -1.1648
22494SOL    HW269637   0.791   0.888   8.123 -1.4168  1.1306 -0.7507
22495SOL     OW69638   4.406   2.141   2.515 -0.4768 -0.6060 -0.8197
22495SOL    HW169639   4.315   2.113   2.507 -0.4260 -1.2678  0.6764
22495SOL    HW269640   4.438   2.099   2.595  0.3586  1.6767  0.1516
22496SOL     OW69641   7.574   9.295   0.160 -0.0456 -0.1230 -0.0537
22496SOL    HW169642   7.550   9.285   0.068 -0.7639 -0.6040  0.1790
22496SOL    HW269643   7.638   9.366   0.160  1.7279 -1.6413 -1.1894
22497SOL     OW69644   6.414   4.392   0.471  0.0694  0.5986  0.6011
22497SOL    HW169645   6.389   4.445   0.395 -0.2764  0.3564  0.5445
22497SOL    HW269646   6.500   4.357   0.448  0.3587  1.2364  0.6945
22498SOL     OW69647   9.398   8.908   7.232  0.1887 -0.2251  0.0842
22498SOL    HW169648   9.419   8.871   7.146 -0.4728 -0.9679  0.2259
22498SOL    HW269649   9.423   8.839   7.294 -0.7028 -0.2967  0.3817
22499SOL     OW69650   5.615   9.600   2.805 -0.2517  0.6498  0.1576
22499SOL    HW169651   5.543   9.626   2.863 -1.5242 -1.1800 -0.5051
22499SOL    HW269652   5.680   9.562   2.864  0.0660  1.9810  0.7228
22500SOL     OW69653   8.547   5.845   9.400  0.0217 -0.1878 -0.1049
22500SOL    HW169654   8.594   5.874   9.322  0.6013 -2.2759 -0.5847
22500SOL    HW269655   8.608   5.858   9.472 -0.7814  2.4745  0.2147
22501SOL     OW69656   7.449   5.878   5.639 -0.3490  0.2250  0.5668
22501SOL    HW169657   7.362   5.869   5.678 -0.2715 -0.1718  0.6584
22501SOL    HW269658   7.495   5.799   5.667 -0.2284  0.0252 -0.1753
22502SOL     OW69659   9.357   7.078   1.669 -0.7188  0.1490  0.3208
22502SOL    HW169660   9.398   7.140   1.729 -1.8319  0.6607  0.5725
22502SOL    HW269661   9.407   6.997   1.681 -0.5777  0.3954  1.5334
22503SOL     OW69662   4.312   1.217   8.761 -0.2910  0.3646  0.1027
22503SOL    HW169663   4.367   1.175   8.828  1.0827  1.8863  0.0033
22503SOL    HW269664   4.229   1.170   8.765  0.3100 -0.6468  1.7491
22504SOL     OW69665   7.475   7.488   0.151 -0.2128 -0.0744 -0.4085
22504SOL    HW169666   7.393   7.501   0.198  0.2013  2.4658 -0.2296
22504SOL    HW269667   7.493   7.394   0.159 -1.5501 -0.2056  2.1304
22505SOL     OW69668   4.417   7.514   7.334 -0.4429  0.4258  0.4642
22505SOL    HW169669   4.479   7.573   7.292 -0.7649  1.4302  1.3612
22505SOL    HW269670   4.342   7.512   7.276  0.8162 -1.7576 -1.2693
22506SOL     OW69671   0.695   0.275   7.864  0.3550 -0.5650  0.4059
22506SOL    HW169672   0.777   0.235   7.835  0.2836 -0.6500  0.3198
22506SOL    HW269673   0.628   0.209   7.845  0.3092 -0.6255  0.7800
22507SOL     OW69674   8.977   2.680   7.392 -0.2437 -0.7508  0.3370
22507SOL    HW169675   8.907   2.616   7.382 -0.3200 -0.8827  1.5576
22507SOL    HW269676   9.046   2.651   7.332 -1.4157 -0.3099 -1.3056
22508SOL     OW69677   1.868   8.115   6.701  0.3343 -0.1438  0.1084
22508SOL    HW169678   1.905   8.028   6.686  0.9911  0.1168  0.1771
22508SOL    HW269679   1.814   8.105   6.780  2.7749  0.1572  1.9246
22509SOL     OW69680   7.409   1.884   3.330  0.4002  0.1303 -0.4227
22509SOL    HW169681   7.387   1.791   3.331  0.2399  0.1689 -0.3747
22509SOL    HW269682   7.474   1.893   3.259  1.5371 -0.2720  0.5366
22510SOL     OW69683   3.516   7.077   5.855 -0.1699 -0.4189 -0.0578
22510SOL    HW169684   3.508   7.060   5.761 -1.6229  1.6199 -0.3719
22510SOL    HW269685   3.598   7.034   5.881 -0.2601 -1.9061 -2.0148
22511SOL     OW69686   8.476   6.840   2.378  0.2510  0.3846 -0.1842
22511SOL    HW169687   8.414   6.824   2.307 -0.8800 -1.0818  1.0463
22511SOL    HW269688   8.518   6.755   2.392  0.5960  0.7025  0.7570
22512SOL     OW69689   0.417   3.618   0.194 -0.1431  0.3334 -0.5178
22512SOL    HW169690   0.353   3.597   0.125 -2.0343  0.8802  0.9708
22512SOL    HW269691   0.419   3.539   0.248  2.2950 -0.5852 -1.7990
22513SOL     OW69692   4.269   2.927   3.104  0.7610 -0.8282 -0.4430
22513SOL    HW169693   4.226   2.861   3.158 -0.3663  1.0481  1.0671
22513SOL    HW269694   4.329   2.972   3.163 -0.2290  1.0432 -0.7716
22514SOL     OW69695   6.940   4.894   3.182 -0.3660 -0.4021 -0.2263
22514SOL    HW169696   7.007   4.880   3.115  1.5915 -2.5141  1.9816
22514SOL    HW269697   6.965   4.835   3.253 -1.5318  2.5881  2.9535
22515SOL     OW69698   2.642   0.729   1.546 -0.2259  0.1717 -0.4832
22515SOL    HW169699   2.633   0.823   1.531  1.7488  0.2950 -1.0827
22515SOL    HW269700   2.561   0.692   1.512 -1.1666  1.6664  0.0282
22516SOL     OW69701   3.068   3.909   3.522 -0.3615 -0.1765 -0.4239
22516SOL    HW169702   3.119   3.980   3.560 -0.3879 -0.2195 -0.3074
22516SOL    HW269703   3.078   3.920   3.427 -1.9525  1.1920 -0.4977
22517SOL     OW69704   6.435   0.283   1.947  0.1734 -0.7788 -0.0779
22517SOL    HW169705   6.500   0.214   1.963  0.1140 -1.1440 -1.3048
22517SOL    HW269706   6.450   0.346   2.017  0.1528 -2.0809  1.1482
22518SOL     OW69707   2.427   7.441   0.349 -0.0499 -0.7321  0.2463
22518SOL    HW169708   2.489   7.424   0.420  1.2056 -1.7886 -1.0435
22518SOL    HW269709   2.407   7.355   0.313 -1.5437 -0.3112  0.0166
22519SOL     OW69710   4.559   6.330   5.210 -0.1336 -0.2720 -0.1483
22519SOL    HW169711   4.516   6.300   5.290  0.6067  1.4851  0.9705
22519SOL    HW269712   4.638   6.275   5.204  1.4736  1.5627  2.1480
22520SOL     OW69713   8.896   8.872   5.848 -0.3026 -0.1389  0.2285
22520SOL    HW169714   8.840   8.892   5.924 -2.6805  0.2698 -1.4992
22520SOL    HW269715   8.968   8.934   5.855 -0.2269 -0.3831  2.3431
22521SOL     OW69716   0.885   7.615   4.441 -0.5312 -0.0007  0.4872
22521SOL    HW169717   0.976   7.587   4.446  0.3031  2.4980  0.4600
22521SOL    HW269718   0.858   7.629   4.532 -0.4258  0.5620  0.4377
22522SOL     OW69719   8.556   8.835   7.605  0.0038  0.1291  0.0767
22522SOL    HW169720   8.528   8.748   7.578 -0.0010  0.0412  0.3687
22522SOL    HW269721   8.627   8.820   7.667  0.0152  0.3330  0.1149
22523SOL     OW69722   3.288   2.760   0.613  0.0659  0.4716  0.0733
22523SOL    HW169723   3.281   2.684   0.672 -2.1247  0.9159  0.4569
22523SOL    HW269724   3.382   2.776   0.606  0.5709 -1.9086  0.4475
22524SOL     OW69725   3.304   9.159   7.796  0.0591  0.1909 -0.3922
22524SOL    HW169726   3.215   9.124   7.789 -0.4017  1.2228 -0.0091
22524SOL    HW269727   3.355   9.108   7.733 -0.7001 -0.7180 -0.3043
22525SOL     OW69728   9.028   4.457   9.030  0.2057 -0.1551  0.1257
22525SOL    HW169729   9.031   4.463   9.125  0.2851  0.2263  0.1005
22525SOL    HW269730   8.957   4.516   9.005 -0.7964 -1.3491  0.0398
22526SOL     OW69731   8.346   9.164   9.319 -0.9681  0.2450  0.2745
22526SOL    HW169732   8.413   9.163   9.250  0.0085 -0.5630  1.1943
22526SOL    HW269733   8.264   9.177   9.272 -0.2826  0.1667 -1.0041
22527SOL     OW69734   9.506   6.963   7.945  0.6295  0.5676  0.1229
22527SOL    HW169735   9.422   6.965   7.901  0.1070  0.4405  1.0839
22527SOL    HW269736   9.513   7.048   7.989  0.6411  0.2881  0.6808
22528SOL     OW69737   4.792   2.811   8.121  0.2202  0.1236  0.2037
22528SOL    HW169738   4.744   2.860   8.188 -0.5127 -0.5494  0.1700
22528SOL    HW269739   4.752   2.838   8.038  1.2910  1.1514 -0.0208
22529SOL     OW69740   3.738   0.575   6.218  0.2614  0.3322 -0.3590
22529SOL    HW169741   3.769   0.663   6.200  0.4141  0.2077 -0.7036
22529SOL    HW269742   3.658   0.566   6.167  0.4208  0.1578 -0.5802
22530SOL     OW69743   3.704   5.165   7.107  0.7629  0.3027 -0.0363
22530SOL    HW169744   3.759   5.088   7.088 -0.6197 -0.9959  0.9388
22530SOL    HW269745   3.615   5.131   7.108  0.3006  1.1516  3.6633
22531SOL     OW69746   3.478   8.602   3.311  0.1032 -0.0924 -0.3800
22531SOL    HW169747   3.397   8.563   3.277  0.2815 -0.3231 -0.5440
22531SOL    HW269748   3.514   8.535   3.369 -1.3943  1.1711  2.1510
22532SOL     OW69749   9.421   3.230   2.008  0.1761 -0.6445 -0.3745
22532SOL    HW169750   9.450   3.294   2.072 -1.1218 -0.7224  0.3291
22532SOL    HW269751   9.501   3.189   1.976  0.9638  0.6656 -0.1586
22533SOL     OW69752   2.690   3.087   2.633 -0.1217  0.7707  0.3333
22533SOL    HW169753   2.643   3.162   2.670  0.8634  1.5533  0.0742
22533SOL    HW269754   2.635   3.011   2.652 -0.1792  1.2788  2.4475
22534SOL     OW69755   4.610   0.424   8.564  0.2175 -0.4610  0.0665
22534SOL    HW169756   4.665   0.349   8.545 -1.5068 -1.5012 -1.1753
22534SOL    HW269757   4.544   0.423   8.495 -0.5502  1.5188  0.6967
22535SOL     OW69758   5.218   2.221   5.741  0.1194  0.4721  0.4325
22535SOL    HW169759   5.204   2.315   5.731  1.6726  1.0716  2.9677
22535SOL    HW269760   5.138   2.189   5.783 -0.2499  0.7008 -0.0777
22536SOL     OW69761   1.309   2.033   7.944  0.0078  0.4347 -0.2800
22536SOL    HW169762   1.312   1.952   7.995  1.1024  0.2465 -0.6230
22536SOL    HW269763   1.252   2.012   7.870 -3.7912  1.4887  2.1029
22537SOL     OW69764   2.498   9.193   1.024  0.1441  0.5346  0.0682
22537SOL    HW169765   2.545   9.239   1.093  2.7160  2.8093 -2.9283
22537SOL    HW269766   2.458   9.262   0.971 -2.2724 -1.1443 -0.5062
22538SOL     OW69767   8.551   2.818   1.246  0.1486  0.3228  0.2415
22538SOL    HW169768   8.512   2.731   1.251 -0.9966  0.6266 -2.0128
22538SOL    HW269769   8.646   2.802   1.242 -0.0975 -1.0633 -2.4017
22539SOL     OW69770   3.468   6.725   5.377 -0.3290 -0.2472  0.4388
22539SOL    HW169771   3.528   6.650   5.371  0.3406  0.2007  1.3543
22539SOL    HW269772   3.523   6.801   5.362 -1.2569  0.0341 -1.9423
22540SOL     OW69773   6.674   4.075   5.285 -0.3409 -0.4271  0.2630
22540SOL    HW169774   6.663   3.980   5.290 -0.3463 -0.3611  2.2743
22540SOL    HW269775   6.599   4.105   5.234 -1.0364 -1.3928  0.6756
22541SOL     OW69776   1.317   6.856   4.290 -0.4536  0.2672  0.5235
22541SOL    HW169777   1.345   6.769   4.263  1.3912  1.0567 -0.3161
22541SOL    HW269778   1.392   6.912   4.272 -1.6718  2.0890  0.7819
22542SOL     OW69779   1.295   8.494   9.079  0.1858 -0.5061 -0.7550
22542SOL    HW169780   1.363   8.495   9.012  0.1606 -2.9124 -0.9052
22542SOL    HW269781   1.309   8.411   9.126 -3.3929 -1.8119 -1.6737
22543SOL     OW69782   1.042   0.443   6.969 -0.1903 -0.0174 -0.0841
22543SOL    HW169783   1.048   0.390   6.890  1.1250  0.4136 -0.3046
22543SOL    HW269784   1.133   0.466   6.989 -0.6850  1.6941  0.3201
22544SOL     OW69785   8.927   7.713   7.416 -0.4611 -0.0790 -0.1871
22544SOL    HW169786   8.902   7.801   7.445  0.4255  0.6440 -1.4990
22544SOL    HW269787   8.947   7.666   7.497 -3.0286  0.2053  0.6978
22545SOL     OW69788   9.383   4.338   4.285 -0.2038 -0.6974 -0.5533
22545SOL    HW169789   9.299   4.381   4.303 -0.9790 -2.4024  0.2352
22545SOL    HW269790   9.400   4.286   4.364  1.0695 -1.2029 -1.1302
22546SOL     OW69791   7.161   2.080   2.767  0.1653  0.1071 -0.3732
22546SOL    HW169792   7.255   2.084   2.786 -0.0715  1.5494  0.6185
22546SOL    HW269793   7.140   1.987   2.773  1.0429  0.0040  1.9109
22547SOL     OW69794   9.603   6.786   7.435  0.0444  0.9811 -0.7467
22547SOL    HW169795   9.543   6.758   7.505  1.1247  0.2066 -0.1063
22547SOL    HW269796   9.684   6.738   7.452  0.3971  0.9222 -2.4332
22548SOL     OW69797   0.186   7.722   8.551 -0.1141 -0.5592  0.3694
22548SOL    HW169798   0.198   7.633   8.518  1.3153 -0.4724  0.6238
22548SOL    HW269799   0.273   7.751   8.576 -0.6500  0.6984  0.8707
22549SOL     OW69800   6.293   3.022   1.935 -0.8466 -0.4950  0.7261
22549SOL    HW169801   6.199   3.027   1.923 -0.9461  0.3741  1.6575
22549SOL    HW269802   6.328   3.097   1.887 -0.5765 -1.0782 -0.0031
22550SOL     OW69803   8.214   6.038   8.464  0.3831  0.2794 -0.2990
22550SOL    HW169804   8.180   6.123   8.436 -0.4664  1.0972  2.7606
22550SOL    HW269805   8.293   6.060   8.515 -0.3569 -0.6232  1.3176
22551SOL     OW69806   4.613   1.059   7.131 -0.9712 -0.5365  0.1867
22551SOL    HW169807   4.625   1.140   7.182 -1.6991 -0.3236  0.0324
22551SOL    HW269808   4.629   1.085   7.041 -3.8617  0.1315 -0.2490
22552SOL     OW69809   0.537   7.551   1.101 -0.6628 -0.5513 -0.5058
22552SOL    HW169810   0.618   7.544   1.152  0.0274  3.7177 -0.7208
22552SOL    HW269811   0.468   7.521   1.161  0.7835 -2.5602  0.2892
22553SOL     OW69812   2.803   5.007   1.158  0.4568  0.6803 -0.2117
22553SOL    HW169813   2.786   5.101   1.154  0.5774  0.6606 -2.0869
22553SOL    HW269814   2.895   5.001   1.183  0.6022  1.0928 -0.6260
22554SOL     OW69815   6.885   5.623   0.022 -0.2390 -0.0175  0.7835
22554SOL    HW169816   6.805   5.673   0.038  0.7639  0.8413  3.8204
22554SOL    HW269817   6.955   5.688   0.024  0.6832 -0.8758 -0.9210
22555SOL     OW69818   2.334   7.015   3.811 -0.3987  0.6666 -0.1828
22555SOL    HW169819   2.321   6.952   3.881  2.4854 -1.6183 -1.5006
22555SOL    HW269820   2.253   7.014   3.761 -0.6193 -1.6708  0.1472
22556SOL     OW69821   6.991   5.462   7.124  0.4939  0.6025  0.0089
22556SOL    HW169822   6.976   5.433   7.034 -0.2056  0.9784 -0.0022
22556SOL    HW269823   7.027   5.550   7.114 -0.8976  1.2108  0.1090
22557SOL     OW69824   7.446   4.632   5.004 -0.4907  0.3611 -0.0369
22557SOL    HW169825   7.356   4.652   5.031 -0.5517 -0.3852  0.3493
22557SOL    HW269826   7.458   4.679   4.921 -1.4290  0.0249 -0.3754
22558SOL     OW69827   6.123   6.768   4.070  0.0365 -0.4148 -0.3573
22558SOL    HW169828   6.103   6.768   3.976 -0.6361  0.5047 -0.2333
22558SOL    HW269829   6.039   6.752   4.112  0.4389 -1.4072  0.0830
22559SOL     OW69830   6.055   2.870   2.086  0.4049 -0.1083  0.2533
22559SOL    HW169831   6.107   2.796   2.118 -1.7071 -1.1467  1.5214
22559SOL    HW269832   6.112   2.946   2.095  2.4441 -1.4705 -0.5331
22560SOL     OW69833   7.839   6.047   8.615 -1.0379  0.1698 -0.0486
22560SOL    HW169834   7.792   6.130   8.605  2.0068  2.0580 -0.0144
22560SOL    HW269835   7.886   6.056   8.698  1.3032 -0.4582 -1.2140
22561SOL     OW69836   9.603   8.571   6.035 -0.0279  0.0760 -0.4559
22561SOL    HW169837   9.563   8.509   6.096  0.0893  0.7956  0.3672
22561SOL    HW269838   9.689   8.534   6.017  0.5859  0.6643  1.1113
22562SOL     OW69839   2.922   4.858   0.748  0.5280 -0.1882  0.1076
22562SOL    HW169840   2.956   4.777   0.711  2.4719 -0.1007  1.5203
22562SOL    HW269841   2.827   4.851   0.739  0.6922 -2.2823 -0.4586
22563SOL     OW69842   4.002   2.128   1.668  0.1663 -0.1809  0.3786
22563SOL    HW169843   3.955   2.057   1.713 -0.9641  0.1055 -0.3122
22563SOL    HW269844   3.938   2.198   1.660  1.4385  1.2025  1.5830
22564SOL     OW69845   5.371   7.401   0.694  0.2227  0.4472  0.0919
22564SOL    HW169846   5.312   7.327   0.711 -0.3743  1.5840  4.0893
22564SOL    HW269847   5.458   7.362   0.695 -0.1766 -0.4976 -0.2217
22565SOL     OW69848   2.686   5.476   5.850 -0.1322  0.5387 -0.1255
22565SOL    HW169849   2.749   5.538   5.813  0.4855  0.6621  1.0699
22565SOL    HW269850   2.616   5.530   5.885  1.3554  0.7840  2.7138
22566SOL     OW69851   6.952   2.737   1.121 -0.1946 -0.8272 -0.1755
22566SOL    HW169852   7.013   2.668   1.095  1.8625  0.1155  1.7886
22566SOL    HW269853   6.931   2.716   1.212 -0.4857  0.4863  0.0724
22567SOL     OW69854   9.155   1.787   6.437 -0.5171 -0.2772  0.0516
22567SOL    HW169855   9.228   1.822   6.487 -1.3012  1.7729 -0.1179
22567SOL    HW269856   9.188   1.781   6.347 -0.7718  1.5431 -0.2060
22568SOL     OW69857   8.378   0.972   0.658  0.6921  0.2067  0.3905
22568SOL    HW169858   8.367   0.900   0.719 -1.9796  0.7736  0.6676
22568SOL    HW269859   8.323   0.949   0.583  0.9360  1.3022 -0.1469
22569SOL     OW69860   7.538   8.106   7.832  0.1535  0.4440 -0.4661
22569SOL    HW169861   7.594   8.158   7.775  3.2077 -1.3277  0.6673
22569SOL    HW269862   7.535   8.155   7.914  2.2172 -0.5648  0.2779
22570SOL     OW69863   6.333   7.469   8.277 -0.2312 -0.1193  0.3954
22570SOL    HW169864   6.407   7.527   8.257 -1.5037  1.6042  0.4570
22570SOL    HW269865   6.373   7.384   8.294  1.5458  0.1073 -2.1111
22571SOL     OW69866   7.903   1.900   2.752 -0.0243 -0.5161  0.7362
22571SOL    HW169867   7.982   1.884   2.803  0.4708  0.5691  0.3305
22571SOL    HW269868   7.862   1.976   2.793 -0.1371 -0.2358  0.1200
22572SOL     OW69869   0.062   5.618   6.230 -0.1290  0.3009  0.1896
22572SOL    HW169870   0.101   5.535   6.257  1.2085  0.1532 -1.9541
22572SOL    HW269871  -0.004   5.594   6.165 -0.5129  0.8758  0.3505
22573SOL     OW69872   0.459   9.342   1.114  0.5837 -0.3947  0.3178
22573SOL    HW169873   0.434   9.302   1.031  1.1765 -1.2406  0.5239
22573SOL    HW269874   0.380   9.386   1.146  0.1761 -0.6183 -0.3781
22574SOL     OW69875   4.896   2.514   3.685 -0.3553  0.3062  0.2473
22574SOL    HW169876   4.860   2.601   3.671 -0.2770  0.5323  1.3821
22574SOL    HW269877   4.991   2.528   3.694  0.0109 -0.1995 -1.9903
22575SOL     OW69878   6.247   4.562   1.809 -0.3921 -0.2417 -0.2655
22575SOL    HW169879   6.326   4.617   1.809 -0.5935  0.0635 -0.9008
22575SOL    HW269880   6.201   4.586   1.889 -0.4756  0.5276 -0.5346
22576SOL     OW69881   8.899   7.836   6.989 -0.1180 -0.1147  0.0215
22576SOL    HW169882   8.826   7.807   6.933 -0.7296  1.0046  0.2216
22576SOL    HW269883   8.960   7.762   6.988 -0.3327 -0.3165 -1.7391
22577SOL     OW69884   4.115   2.527   7.760 -0.2666 -0.3639 -0.2083
22577SOL    HW169885   4.075   2.482   7.834  0.3244 -1.0957 -0.3216
22577SOL    HW269886   4.109   2.465   7.687  2.0068 -0.9623  0.0334
22578SOL     OW69887   6.667   7.324   0.203  0.1823 -0.1785  0.2745
22578SOL    HW169888   6.581   7.305   0.166 -0.3153  1.4580  0.5076
22578SOL    HW269889   6.676   7.262   0.276 -1.0775  0.0177  0.6254
22579SOL     OW69890   5.145   3.954   2.786 -0.5645 -0.1368 -0.4268
22579SOL    HW169891   5.181   3.981   2.871  0.5021  1.7283 -1.4182
22579SOL    HW269892   5.165   3.861   2.780  2.5033  0.4013 -0.0832
22580SOL     OW69893   1.153   8.339   7.822  0.1215 -0.0116  0.0205
22580SOL    HW169894   1.062   8.352   7.850 -0.0903 -1.0726 -0.1358
22580SOL    HW269895   1.146   8.311   7.731  0.7109  1.5893 -0.5515
22581SOL     OW69896   8.897   4.754   6.961  0.3455  0.0942 -0.5211
22581SOL    HW169897   8.957   4.680   6.979 -0.4418  0.0443  2.3783
22581SOL    HW269898   8.952   4.832   6.972  0.3434  0.0083  0.1223
22582SOL     OW69899   1.091   2.549   9.147  0.0017 -0.2914  0.1371
22582SOL    HW169900   1.060   2.493   9.075  0.4937 -0.6225  0.1795
22582SOL    HW269901   1.033   2.528   9.220 -1.4648  1.0956 -0.5352
22583SOL     OW69902   1.822   4.621   8.791 -0.0004  0.0292  0.0735
22583SOL    HW169903   1.731   4.598   8.810  0.3133 -1.2694  0.0981
22583SOL    HW269904   1.827   4.622   8.696  0.2359 -1.1615  0.0555
22584SOL     OW69905   5.923   5.852   8.799 -0.0746  0.5316 -0.4840
22584SOL    HW169906   5.951   5.936   8.835 -0.3332  0.3086  0.2541
22584SOL    HW269907   5.996   5.824   8.744  0.7404  0.4325  0.6238
22585SOL     OW69908   0.101   6.074   5.826 -0.0172  0.2957  0.5145
22585SOL    HW169909   0.008   6.095   5.817  0.8573  4.1077 -2.5659
22585SOL    HW269910   0.111   5.988   5.784 -1.8277  1.1596 -1.9014
22586SOL     OW69911   8.272   6.790   2.202 -0.0033  0.1490 -0.4632
22586SOL    HW169912   8.222   6.854   2.149 -2.3359  1.3862  2.8789
22586SOL    HW269913   8.256   6.706   2.159  0.0972  1.2934 -2.9258
22587SOL     OW69914   7.660   3.745   6.822  0.0615 -0.0946  0.0370
22587SOL    HW169915   7.618   3.823   6.787 -1.3981 -0.4523  0.9235
22587SOL    HW269916   7.645   3.677   6.756 -0.8998 -0.2491  0.3959
22588SOL     OW69917   1.174   0.830   0.050 -0.1515 -0.0192  0.6079
22588SOL    HW169918   1.217   0.894  -0.007 -1.7005 -1.8543 -2.9563
22588SOL    HW269919   1.084   0.860   0.056 -0.2092 -0.3322  1.4239
22589SOL     OW69920   3.848   9.338   0.583 -0.3120  0.6587 -0.1630
22589SOL    HW169921   3.881   9.314   0.670 -1.3024 -0.1305  0.0251
22589SOL    HW269922   3.923   9.375   0.538  0.4077  0.4024  0.7825
22590SOL     OW69923   1.442   7.729   1.944  0.4994  0.1395  0.6906
22590SOL    HW169924   1.506   7.799   1.957  0.0646  0.5281  0.7906
22590SOL    HW269925   1.369   7.753   2.001  0.0768 -0.0499  0.2392
22591SOL     OW69926   8.772   7.975   4.516  0.8119 -0.0264  0.3326
22591SOL    HW169927   8.764   8.066   4.543  0.5970 -0.6310  2.4278
22591SOL    HW269928   8.780   7.979   4.420  2.1108  2.2533  0.4772
22592SOL     OW69929   7.662   6.974   7.409 -0.2220 -0.4732 -0.0107
22592SOL    HW169930   7.707   7.011   7.334 -1.5981  3.1157  0.7007
22592SOL    HW269931   7.727   6.974   7.479  0.0733 -0.3342 -0.2826
22593SOL     OW69932   0.461   9.374   2.935 -0.3441  0.1198  0.3583
22593SOL    HW169933   0.477   9.323   2.856 -2.3657 -0.7932  0.4656
22593SOL    HW269934   0.465   9.309   3.006  0.1310  0.6875  0.8585
22594SOL     OW69935   7.182   4.005   6.963  0.5453 -0.5083 -0.2311
22594SOL    HW169936   7.168   3.992   6.869  0.1981 -0.5201 -0.1799
22594SOL    HW269937   7.229   4.088   6.969  1.3612 -0.9339 -0.4643
22595SOL     OW69938   5.233   0.043   0.795 -0.7859  0.3931  0.7566
22595SOL    HW169939   5.226   0.134   0.766 -4.3814  0.3030  0.9339
22595SOL    HW269940   5.222   0.048   0.890 -2.0382 -0.2470  0.6649
22596SOL     OW69941   6.091   8.242   9.179 -0.3832  0.2263 -0.4053
22596SOL    HW169942   6.149   8.233   9.104 -0.2531  0.3143 -0.3167
22596SOL    HW269943   6.115   8.169   9.237  1.1530  1.4793  0.6327
22597SOL     OW69944   1.419   7.719   6.308 -0.0981 -0.0670  0.6543
22597SOL    HW169945   1.469   7.796   6.280 -0.3148 -0.2099 -0.1344
22597SOL    HW269946   1.459   7.694   6.391  0.9414  0.0095  0.1898
22598SOL     OW69947   7.474   5.564   7.768 -0.4131 -0.0043  0.0045
22598SOL    HW169948   7.504   5.629   7.705 -1.7510  1.8976  1.2271
22598SOL    HW269949   7.407   5.515   7.722  0.6979 -0.6449 -0.9746
22599SOL     OW69950   7.354   8.100   5.627 -0.9139 -0.6406 -0.0030
22599SOL    HW169951   7.410   8.086   5.551 -1.6908  0.5691 -0.8363
22599SOL    HW269952   7.277   8.146   5.592 -1.5530 -0.5842  1.4130
22600SOL     OW69953   0.477   0.699   0.966  0.0700  0.1607  0.6077
22600SOL    HW169954   0.409   0.655   1.017 -1.0218  0.1238 -0.8368
22600SOL    HW269955   0.491   0.782   1.011  0.9054 -0.8677  2.3626
22601SOL     OW69956   1.763   5.868   6.995  0.2040  0.7523  0.0534
22601SOL    HW169957   1.808   5.858   7.079 -0.3910  0.8345  0.3924
22601SOL    HW269958   1.816   5.931   6.946  0.9346  0.1855  0.0911
22602SOL     OW69959   8.147   4.672   0.569  0.4198  0.3995  0.0053
22602SOL    HW169960   8.177   4.701   0.656  0.7507  3.5400 -1.0416
22602SOL    HW269961   8.053   4.657   0.580  0.5157  0.4420  0.9987
22603SOL     OW69962   7.457   3.769   9.530  0.1034  0.4930  0.7294
22603SOL    HW169963   7.453   3.830   9.456  2.3171  0.0607  0.1684
22603SOL    HW269964   7.465   3.683   9.489  1.7039  0.2751  1.4361
22604SOL     OW69965   4.275   8.447   5.999 -0.2528  0.1556 -0.3557
22604SOL    HW169966   4.278   8.355   6.028  0.5633  0.0210 -0.8173
22604SOL    HW269967   4.193   8.455   5.952 -0.1845 -0.4277 -0.5818
22605SOL     OW69968   4.944   1.819   1.877  0.2474  0.0803 -0.4201
22605SOL    HW169969   4.996   1.739   1.886 -2.1611 -1.5678 -0.0963
22605SOL    HW269970   5.001   1.889   1.909  1.2194 -1.9918  2.8812
22606SOL     OW69971   9.524   7.908   8.090 -0.1664  0.7726 -0.7595
22606SOL    HW169972   9.558   7.900   8.179  0.8630  2.2341 -0.9781
22606SOL    HW269973   9.533   8.001   8.069  0.0628  0.3919 -2.5509
22607SOL     OW69974   5.986   8.002   6.082  0.1752  0.1205  0.5288
22607SOL    HW169975   6.052   7.936   6.101  0.4469  0.3572  0.4238
22607SOL    HW269976   6.021   8.083   6.120  0.6421  0.5626 -0.7746
22608SOL     OW69977   3.114   0.492   7.572 -0.6027 -0.2668 -0.3058
22608SOL    HW169978   3.181   0.434   7.539  2.3446  3.1256 -0.8927
22608SOL    HW269979   3.120   0.485   7.667 -0.6284 -1.1923 -0.3678
22609SOL     OW69980   5.438   8.171   7.847 -0.1160  0.0029  0.2162
22609SOL    HW169981   5.435   8.265   7.865 -0.6028  0.7196 -2.9669
22609SOL    HW269982   5.502   8.161   7.777 -1.8970 -1.6244 -1.3258
22610SOL     OW69983   8.954   4.529   2.836  0.1838 -0.4684  0.4027
22610SOL    HW169984   8.962   4.434   2.833  1.5936 -0.3564 -1.3625
22610SOL    HW269985   9.006   4.560   2.762  0.2877  1.7197  1.2977
22611SOL     OW69986   0.612   2.896   0.761  0.0727 -0.1447  0.6411
22611SOL    HW169987   0.600   2.932   0.849  0.1592  0.3263  0.4609
22611SOL    HW269988   0.655   2.965   0.712  1.6814 -1.0597  0.7053
22612SOL     OW69989   5.604   8.924   3.258  0.4308 -0.1104  0.1826
22612SOL    HW169990   5.626   8.897   3.347 -0.0729 -0.4860  0.1960
22612SOL    HW269991   5.600   8.842   3.209 -0.7733 -0.0329  0.1426
22613SOL     OW69992   8.542   6.952   2.623 -0.2216  0.5992 -0.4929
22613SOL    HW169993   8.459   6.965   2.669 -0.5949  1.4095 -1.3514
22613SOL    HW269994   8.516   6.910   2.541  0.6134 -2.5850  0.7371
22614SOL     OW69995   7.798   6.777   2.781 -0.5411 -0.3636 -0.0749
22614SOL    HW169996   7.706   6.748   2.775 -0.8418  0.7082 -0.7738
22614SOL    HW269997   7.795   6.857   2.834 -0.1165  0.1308 -0.7869
22615SOL     OW69998   7.072   3.635   8.288 -0.1133  0.1954  0.4843
22615SOL    HW169999   7.023   3.707   8.328  1.9440  1.5325  0.7509
22615SOL    HW270000   7.122   3.676   8.218  0.9929 -1.0131  0.5272
22616SOL     OW70001   2.440   9.060   2.170 -0.0880  0.0915  0.4787
22616SOL    HW170002   2.506   9.102   2.226 -1.1995  0.1783  1.7614
22616SOL    HW270003   2.456   9.097   2.083  0.2674  1.6427  1.1678
22617SOL     OW70004   3.396   6.750   1.033  0.1056 -0.4819 -0.0664
22617SOL    HW170005   3.349   6.774   1.113 -2.1067  0.1374 -1.4480
22617SOL    HW270006   3.338   6.779   0.962  2.3475 -0.2931 -1.9140
22618SOL     OW70007   8.299   5.577   5.795  0.2040  0.1180  0.5921
22618SOL    HW170008   8.384   5.555   5.832 -0.0974 -0.5359  0.9261
22618SOL    HW270009   8.314   5.657   5.745  0.9332  0.2051  0.9363
22619SOL     OW70010   3.216   6.158   0.259  0.2549 -0.2539 -0.4717
22619SOL    HW170011   3.150   6.089   0.248  0.4607 -0.5153 -0.0902
22619SOL    HW270012   3.247   6.176   0.170 -0.3318 -0.1239 -0.6584
22620SOL     OW70013   4.141   5.320   7.580  0.2534 -0.4703 -0.4608
22620SOL    HW170014   4.121   5.298   7.671  0.1902  0.3162 -0.2742
22620SOL    HW270015   4.207   5.389   7.586  1.4171 -1.4826 -1.0427
22621SOL     OW70016   5.715   6.336   0.367  0.4064 -0.0261  0.1484
22621SOL    HW170017   5.713   6.347   0.462  1.7055 -0.5442  0.2603
22621SOL    HW270018   5.761   6.253   0.353 -0.8722 -0.5954 -0.9178
22622SOL     OW70019   5.710   4.843   2.773  0.3993 -0.0479  0.1778
22622SOL    HW170020   5.669   4.899   2.706  1.4755 -0.2430 -0.6645
22622SOL    HW270021   5.763   4.904   2.825  0.8581 -0.1426 -0.1761
22623SOL     OW70022   2.939   4.185   2.429  0.0056 -0.0899  0.0264
22623SOL    HW170023   2.878   4.148   2.492 -1.4159  0.4612 -0.9765
22623SOL    HW270024   2.947   4.118   2.361 -0.3375  0.2687 -0.3738
22624SOL     OW70025   7.506   8.356   4.949  0.1361 -0.0750 -0.1957
22624SOL    HW170026   7.562   8.291   4.991 -0.3463  0.1254  0.7962
22624SOL    HW270027   7.561   8.434   4.940  0.2297 -0.0987  0.1428
22625SOL     OW70028   0.243   4.412   4.202  0.1857  0.1733  0.1365
22625SOL    HW170029   0.175   4.457   4.252  0.5358 -0.3931  1.1361
22625SOL    HW270030   0.312   4.393   4.265 -0.3645 -2.6601  0.0384
22626SOL     OW70031   1.446   7.772   7.869  0.6973 -0.1003  0.1317
22626SOL    HW170032   1.361   7.728   7.872  0.5521  0.1850  0.2134
22626SOL    HW270033   1.425   7.864   7.851  0.9835 -0.0113  0.2442
22627SOL     OW70034   4.786   0.142   9.036  0.4445  0.3679 -0.2340
22627SOL    HW170035   4.781   0.212   9.102  1.4865  0.7265 -0.5139
22627SOL    HW270036   4.717   0.164   8.973  0.3300  0.7729  0.0228
22628SOL     OW70037   5.435   4.793   9.193  0.0550  0.2546  0.1185
22628SOL    HW170038   5.346   4.785   9.226 -0.1690 -0.1950 -0.5864
22628SOL    HW270039   5.479   4.850   9.257 -0.0673 -1.4166  1.7511
22629SOL     OW70040   6.710   1.442   0.479 -0.0029  0.4993  0.3589
22629SOL    HW170041   6.708   1.349   0.458  0.7471  1.0874 -2.7464
22629SOL    HW270042   6.683   1.486   0.398 -1.0368  3.0020  1.9266
22630SOL     OW70043   5.026   2.903   7.716 -0.0221 -0.0827 -0.0678
22630SOL    HW170044   5.031   2.867   7.805 -0.6229 -0.1630 -0.0616
22630SOL    HW270045   5.072   2.839   7.662 -1.8188 -1.3423 -0.1891
22631SOL     OW70046   2.912   2.272   5.048  0.2403 -0.6241  0.1330
22631SOL    HW170047   2.857   2.205   5.088  0.1733 -1.5149 -1.3848
22631SOL    HW270048   2.975   2.223   4.995  0.0432  0.5028 -1.1911
22632SOL     OW70049   2.143   2.363   1.297  0.0929 -0.0629 -0.0589
22632SOL    HW170050   2.182   2.378   1.211  0.8795 -0.5905  0.1876
22632SOL    HW270051   2.110   2.273   1.293 -3.4964  1.1623 -1.1306
22633SOL     OW70052   0.698   4.897   1.439 -0.6615  0.9640 -0.1152
22633SOL    HW170053   0.697   4.824   1.377 -0.3775  1.3756 -0.6097
22633SOL    HW270054   0.626   4.878   1.499  0.5671 -0.7070  0.9066
22634SOL     OW70055   1.878   2.480   8.668  0.6635  0.2141  0.0137
22634SOL    HW170056   1.819   2.407   8.684  1.1048 -0.2158 -0.2844
22634SOL    HW270057   1.838   2.555   8.712  0.9122 -0.5165  1.5186
22635SOL     OW70058   6.588   4.432   7.009  0.1665  0.0825 -0.0540
22635SOL    HW170059   6.494   4.450   7.009  0.2288  0.4246 -0.5846
22635SOL    HW270060   6.620   4.475   7.089 -0.1726 -0.3114  0.3012
22636SOL     OW70061   9.466   8.527   0.795 -0.2248 -0.2903 -0.2876
22636SOL    HW170062   9.518   8.496   0.869  0.3847  0.4171 -0.4031
22636SOL    HW270063   9.381   8.484   0.806 -1.2634  2.0835  2.6007
22637SOL     OW70064   8.529   5.506   2.001  0.3857  1.1909  0.1432
22637SOL    HW170065   8.519   5.570   2.072 -1.8293  1.2470 -0.1316
22637SOL    HW270066   8.549   5.424   2.046  1.2577  1.6667  0.6500
22638SOL     OW70067   2.577   1.923   7.598  0.5556  0.1670 -0.2422
22638SOL    HW170068   2.531   2.003   7.622 -0.0361  0.0423 -0.9387
22638SOL    HW270069   2.668   1.940   7.622  0.3693  0.9068 -0.0371
22639SOL     OW70070   8.357   7.734   8.964  0.3129  0.4676 -0.5257
22639SOL    HW170071   8.341   7.641   8.979 -1.7568  0.7596 -0.6178
22639SOL    HW270072   8.436   7.735   8.910  0.4811 -1.2193 -0.3916
22640SOL     OW70073   8.781   9.222   9.025  0.4052  0.2491  0.6285
22640SOL    HW170074   8.875   9.224   9.047  0.1865  0.6211  1.6096
22640SOL    HW270075   8.763   9.308   8.988  0.1680  0.7243  1.7913
22641SOL     OW70076   5.483   7.350   4.684 -0.0365 -0.3289  0.2372
22641SOL    HW170077   5.466   7.419   4.621  1.5211 -0.2519 -0.1341
22641SOL    HW270078   5.400   7.339   4.731 -1.3543 -0.6144 -2.0103
22642SOL     OW70079   0.767   6.866   2.575  0.5888 -0.3598  0.4134
22642SOL    HW170080   0.822   6.794   2.606 -1.2522 -1.1922  1.9233
22642SOL    HW270081   0.786   6.938   2.637  1.5826  0.1225 -0.4152
22643SOL     OW70082   4.813   8.549   8.172 -0.3875 -0.5764 -0.2543
22643SOL    HW170083   4.789   8.494   8.246  0.8623 -1.1842 -0.2780
22643SOL    HW270084   4.736   8.548   8.115 -1.6830  0.5546  1.3724
22644SOL     OW70085   1.158   9.525   7.080  0.6633  0.2836 -0.0993
22644SOL    HW170086   1.220   9.484   7.019 -2.4782 -0.9011 -2.8161
22644SOL    HW270087   1.174   9.619   7.071  1.5379  0.0425 -1.3755
22645SOL     OW70088   2.745   8.939   6.800 -0.1005  0.0330 -0.0108
22645SOL    HW170089   2.793   9.014   6.835 -0.1274 -0.0784  0.2593
22645SOL    HW270090   2.654   8.954   6.826 -0.0476 -0.2789  0.3501
22646SOL     OW70091   3.430   5.960   5.615 -0.3089  0.5584 -0.2691
22646SOL    HW170092   3.507   5.905   5.605 -1.3938 -0.6876 -2.5359
22646SOL    HW270093   3.360   5.911   5.572 -2.1164  2.1899  0.6618
22647SOL     OW70094   6.800   8.348   4.499  0.2395 -0.3808 -0.6922
22647SOL    HW170095   6.722   8.305   4.464  0.3483  0.2923 -1.8190
22647SOL    HW270096   6.770   8.390   4.580 -0.3632 -0.8107 -0.6839
22648SOL     OW70097   8.569   5.471   1.107  0.1965  0.0233  0.0503
22648SOL    HW170098   8.503   5.492   1.041 -0.3218 -2.7034 -0.4244
22648SOL    HW270099   8.520   5.459   1.188  0.5620  1.1783  0.4635
22649SOL     OW70100   2.399   7.150   9.097  0.1009  0.5861  0.1012
22649SOL    HW170101   2.415   7.243   9.109  0.8711  0.5757 -0.7517
22649SOL    HW270102   2.408   7.135   9.003 -0.1574 -0.3214  0.2048
22650SOL     OW70103   7.651   7.242   2.050  0.0744  0.1948  0.5725
22650SOL    HW170104   7.716   7.173   2.063  0.7814  0.7270 -0.0320
22650SOL    HW270105   7.700   7.323   2.060 -0.9319  0.6482  2.2123
22651SOL     OW70106   7.651   1.605   1.155 -0.2524 -0.1269  0.7531
22651SOL    HW170107   7.698   1.674   1.202  0.5290  0.7048 -1.1038
22651SOL    HW270108   7.559   1.618   1.178 -0.1007  1.4756  0.5833
22652SOL     OW70109   5.282   1.826   5.612  0.0731  0.3081  0.7064
22652SOL    HW170110   5.300   1.733   5.622 -0.5939  0.0573 -0.3101
22652SOL    HW270111   5.215   1.844   5.678 -0.1152 -0.0338  0.6117
22653SOL     OW70112   6.973   5.042   5.125  0.2726 -0.4391  0.3082
22653SOL    HW170113   7.010   5.069   5.041  0.4258 -0.3907  0.3920
22653SOL    HW270114   6.878   5.047   5.111  0.2774 -1.3631 -0.1700
22654SOL     OW70115   5.438   8.352   1.943  0.7239 -0.4412 -0.5486
22654SOL    HW170116   5.353   8.326   1.980  0.7981 -0.4849 -0.4098
22654SOL    HW270117   5.425   8.348   1.848  0.6754 -0.7844 -0.5270
22655SOL     OW70118   9.335   5.426   8.233 -0.3985 -0.3534  0.6516
22655SOL    HW170119   9.270   5.356   8.237 -0.1038 -0.8906 -2.3016
22655SOL    HW270120   9.353   5.438   8.140  1.5823  1.8097  1.2129
22656SOL     OW70121   0.396   7.353   9.296  0.1203 -0.0968  0.0023
22656SOL    HW170122   0.328   7.315   9.352 -0.2859  0.8403  0.1638
22656SOL    HW270123   0.472   7.362   9.354 -0.3808  1.1228  0.5071
22657SOL     OW70124   2.392   9.134   7.463 -0.4378  0.1804  0.7539
22657SOL    HW170125   2.429   9.157   7.377  1.7577 -0.9980  1.2979
22657SOL    HW270126   2.347   9.213   7.492  2.1977  1.9968  0.2301
22658SOL     OW70127   7.842   0.436   5.121  0.3170 -0.1954  0.3407
22658SOL    HW170128   7.793   0.396   5.193  1.8197 -0.8222  1.0448
22658SOL    HW270129   7.795   0.408   5.042 -0.0769 -1.3306  0.9547
22659SOL     OW70130   8.330   4.462   3.578 -0.3964  0.2673 -0.0477
22659SOL    HW170131   8.279   4.541   3.595  0.1570  0.4688  0.7458
22659SOL    HW270132   8.281   4.392   3.619 -0.2634  0.3934  0.3309
22660SOL     OW70133   2.756   8.025   9.276  0.0210 -0.1050 -0.6623
22660SOL    HW170134   2.663   8.004   9.274  0.0788 -0.3078 -2.0552
22660SOL    HW270135   2.759   8.118   9.299 -0.5107 -0.1795 -0.2819
22661SOL     OW70136   0.500   1.835   2.579  0.0903  0.3421  0.5526
22661SOL    HW170137   0.546   1.902   2.528  0.0367  1.3995  1.8557
22661SOL    HW270138   0.488   1.763   2.517 -0.7849  1.8990 -1.2206
22662SOL     OW70139   6.275   0.626   3.805 -0.4376  0.1163  0.1358
22662SOL    HW170140   6.345   0.616   3.870 -0.2309  0.7585  0.0240
22662SOL    HW270141   6.198   0.589   3.846 -0.8815  2.5824  1.7253
22663SOL     OW70142   8.939   7.637   3.520  0.4271 -0.3883 -0.6723
22663SOL    HW170143   8.876   7.709   3.517  1.9889  1.1489  0.4459
22663SOL    HW270144   8.912   7.585   3.596 -0.8665 -1.1652 -1.6408
22664SOL     OW70145   0.847   1.781   7.104 -0.6961 -1.0534 -0.2457
22664SOL    HW170146   0.905   1.718   7.061  0.6249 -0.7666  1.0289
22664SOL    HW270147   0.818   1.737   7.184 -3.4692 -1.7459 -1.5131
22665SOL     OW70148   0.693   4.318   6.284  0.1962 -0.1234 -0.0611
22665SOL    HW170149   0.630   4.247   6.299 -0.4186  0.3971 -0.1795
22665SOL    HW270150   0.742   4.291   6.207 -1.3148  0.4576 -1.2662
22666SOL     OW70151   6.965   7.613   7.558  0.1503  0.4052  0.2441
22666SOL    HW170152   6.988   7.697   7.517  1.0578  0.7240  1.3562
22666SOL    HW270153   6.902   7.574   7.498  0.7229  1.2778 -0.9725
22667SOL     OW70154   4.997   8.537   4.970  0.0935  0.2937 -0.6185
22667SOL    HW170155   4.974   8.502   5.056  0.3281  1.5486 -0.0244
22667SOL    HW270156   4.915   8.531   4.920 -0.5578  1.2447  0.2840
22668SOL     OW70157   3.291   3.093   7.772 -0.3088 -0.0030  0.1333
22668SOL    HW170158   3.298   3.101   7.677  0.0026 -1.0970  0.0482
22668SOL    HW270159   3.199   3.073   7.788 -0.9472  2.7344  0.2977
22669SOL     OW70160   5.766   8.847   3.831  0.9350 -0.2842 -0.0756
22669SOL    HW170161   5.769   8.909   3.904 -2.6163  0.5729 -0.4583
22669SOL    HW270162   5.711   8.775   3.862  2.8147 -2.0509 -0.5753
22670SOL     OW70163   2.338   0.257   6.654  0.1013  0.0634 -0.1200
22670SOL    HW170164   2.329   0.209   6.737 -0.1784  0.0325 -0.1688
22670SOL    HW270165   2.275   0.329   6.661  1.4470  1.2403  0.5223
22671SOL     OW70166   9.594   4.369   6.428 -0.0248  0.1206 -0.4029
22671SOL    HW170167   9.618   4.327   6.345  0.3218  0.6021 -0.5480
22671SOL    HW270168   9.614   4.461   6.415  1.0156  0.0461  0.5808
22672SOL     OW70169   2.645   3.875   6.756 -0.6305  0.8365  0.2449
22672SOL    HW170170   2.711   3.826   6.707 -1.4511 -0.3661  0.2795
22672SOL    HW270171   2.670   3.967   6.746  0.4262  0.4769 -0.6240
22673SOL     OW70172   3.336   2.467   1.043 -0.1384  0.0624  0.3756
22673SOL    HW170173   3.378   2.512   1.117 -0.0296  0.9902 -0.2319
22673SOL    HW270174   3.404   2.408   1.010  1.0558  2.0966 -1.0728
22674SOL     OW70175   6.574   4.820   0.441  0.5286 -0.6358 -0.1152
22674SOL    HW170176   6.541   4.803   0.529 -1.0263  0.0399 -0.5340
22674SOL    HW270177   6.507   4.785   0.383  1.1585 -0.3693 -1.0234
22675SOL     OW70178   6.448   5.147   1.557  0.1595 -0.2533 -0.5604
22675SOL    HW170179   6.409   5.215   1.611  0.0445  1.2052 -2.4039
22675SOL    HW270180   6.446   5.069   1.613 -3.3763  0.2458  0.2492
22676SOL     OW70181   6.333   7.399   4.372 -0.0168 -0.1241  0.4632
22676SOL    HW170182   6.261   7.370   4.316 -1.0371 -0.2946  1.8049
22676SOL    HW270183   6.400   7.332   4.362 -0.0014  0.0819 -0.8811
22677SOL     OW70184   2.025   2.615   1.941 -0.3205 -0.6287 -0.2703
22677SOL    HW170185   1.942   2.622   1.895 -0.8361 -0.8672  0.6078
22677SOL    HW270186   2.002   2.621   2.034  0.6264 -0.8056 -0.0144
22678SOL     OW70187   9.506   3.988   7.620 -0.7469  0.0889 -0.0104
22678SOL    HW170188   9.559   3.910   7.637  0.3887  0.9155  0.3244
22678SOL    HW270189   9.502   3.993   7.525  0.3731  0.3995 -0.0526
22679SOL     OW70190   4.301   0.679   6.957  0.2955 -0.4312 -0.2039
22679SOL    HW170191   4.221   0.703   6.911  0.9554 -0.9565 -1.6640
22679SOL    HW270192   4.351   0.760   6.962  0.4869 -0.4947 -0.9781
22680SOL     OW70193   4.805   7.690   3.018  0.2181 -0.1271 -0.1493
22680SOL    HW170194   4.793   7.743   3.097  0.8198 -0.1409 -0.0465
22680SOL    HW270195   4.899   7.678   3.011  0.2174  0.4617 -1.2629
22681SOL     OW70196   2.036   8.273   6.517  0.5377 -0.7526  0.1003
22681SOL    HW170197   1.955   8.292   6.469  1.1714  0.6248 -0.4925
22681SOL    HW270198   2.008   8.221   6.591 -0.6572 -1.8183 -1.0414
22682SOL     OW70199   4.265   6.352   6.341 -0.5548 -0.4127  0.1377
22682SOL    HW170200   4.216   6.402   6.277 -0.7695 -1.4875 -0.5698
22682SOL    HW270201   4.272   6.264   6.303 -0.0593 -0.8840  1.2532
22683SOL     OW70202   5.422   4.419   3.012 -0.2969 -0.4452  0.4103
22683SOL    HW170203   5.476   4.498   3.006  0.3272 -0.7423  1.7781
22683SOL    HW270204   5.484   4.350   3.037 -0.9662 -1.2349 -0.0615
22684SOL     OW70205   7.502   3.685   7.511  0.7759  0.1008 -0.0429
22684SOL    HW170206   7.414   3.700   7.476  0.2995  2.4683  1.9518
22684SOL    HW270207   7.510   3.589   7.513 -0.8355 -0.1807 -2.3153
22685SOL     OW70208   6.997   3.035   6.553 -0.4887  0.1530 -0.4382
22685SOL    HW170209   7.078   3.035   6.502  0.3454 -0.5346  0.8188
22685SOL    HW270210   6.998   3.118   6.600 -1.2879  0.8144 -1.5463
22686SOL     OW70211   7.085   9.486   0.954  0.4698 -0.1059  0.4452
22686SOL    HW170212   7.069   9.501   1.047  1.2699  0.0102  0.5748
22686SOL    HW270213   6.999   9.466   0.917  0.2544 -0.9289  1.3541
22687SOL     OW70214   0.311   8.944   4.418 -0.0660  0.8140 -0.1692
22687SOL    HW170215   0.386   8.996   4.448 -0.0457  0.2594  0.7852
22687SOL    HW270216   0.252   9.009   4.379  0.3198  1.4401  0.2623
22688SOL     OW70217   9.061   5.632   1.037 -0.7436  0.0108  0.0373
22688SOL    HW170218   8.976   5.623   1.081 -0.6288 -0.8352  0.0932
22688SOL    HW270219   9.108   5.552   1.058  0.2282  0.6287  0.3131
22689SOL     OW70220   5.866   8.252   0.411  0.0734  0.1800  0.1149
22689SOL    HW170221   5.828   8.308   0.479  0.0319  1.1897 -0.7158
22689SOL    HW270222   5.957   8.240   0.437  0.4449  1.7517 -0.3660
22690SOL     OW70223   8.355   0.947   3.800  0.2702  0.0072 -0.2287
22690SOL    HW170224   8.280   0.919   3.748  0.6866  0.8391 -1.3354
22690SOL    HW270225   8.402   0.866   3.821 -0.3130 -0.4125 -0.5178
22691SOL     OW70226   5.819   0.087   4.924  0.0367 -0.4219 -0.1596
22691SOL    HW170227   5.839   0.127   4.839  0.5317  0.7728  0.5029
22691SOL    HW270228   5.730   0.115   4.944  0.4761  0.6049  0.4259
22692SOL     OW70229   2.054   2.795   6.031  0.1284  0.3999 -0.3135
22692SOL    HW170230   2.049   2.871   6.089 -0.9884 -1.9840  3.0714
22692SOL    HW270231   2.147   2.771   6.032  0.1850  0.6222  0.1985
22693SOL     OW70232   2.899   4.998   2.486 -0.0651  0.3669  0.0227
22693SOL    HW170233   2.918   5.081   2.443 -1.5703 -0.3180 -2.0870
22693SOL    HW270234   2.887   5.021   2.578 -0.6149  2.5046 -0.5491
22694SOL     OW70235   2.280   9.122   4.180  0.4891  0.5886 -0.4925
22694SOL    HW170236   2.188   9.111   4.205  0.6891 -0.4696 -0.2052
22694SOL    HW270237   2.321   9.162   4.258  0.4371  0.3299 -0.3320
22695SOL     OW70238   2.207   6.311   7.360 -0.5671 -0.4478  0.7828
22695SOL    HW170239   2.131   6.363   7.336  0.7235  1.3206  0.2566
22695SOL    HW270240   2.227   6.259   7.283  0.4193  1.2700 -0.1963
22696SOL     OW70241   1.361   3.760   8.576 -0.2699  0.6966  0.1561
22696SOL    HW170242   1.410   3.685   8.610 -1.5444 -0.8220 -1.2237
22696SOL    HW270243   1.380   3.831   8.638  0.8102 -0.7964  1.6118
22697SOL     OW70244   4.187   3.147   7.391 -0.1018 -0.3367  0.5531
22697SOL    HW170245   4.258   3.186   7.442  0.5375 -1.7576  0.8118
22697SOL    HW270246   4.125   3.114   7.457 -0.3294 -0.2991  0.3610
22698SOL     OW70247   6.601   6.318   8.884 -0.3040 -0.4236  0.3537
22698SOL    HW170248   6.520   6.367   8.877 -0.7711 -0.7845  2.4594
22698SOL    HW270249   6.602   6.261   8.808 -2.5744 -1.1729  0.8257
22699SOL     OW70250   8.714   2.982   3.833 -0.3430 -0.2874 -0.3232
22699SOL    HW170251   8.663   2.901   3.835  0.9514 -1.3038 -3.5555
22699SOL    HW270252   8.654   3.047   3.795 -0.7837 -0.1463  0.5773
22700SOL     OW70253   9.077   6.061   7.944  0.1324  0.2711  0.0998
22700SOL    HW170254   9.144   6.116   7.985 -0.4546  0.2132  1.1602
22700SOL    HW270255   8.999   6.116   7.941 -0.0771 -0.0373 -0.1127
22701SOL     OW70256   6.367   1.825   9.522 -0.8738  0.6411 -0.1234
22701SOL    HW170257   6.297   1.762   9.507 -0.6798  0.6315 -1.0554
22701SOL    HW270258   6.365   1.842   9.616 -1.1500 -0.4896  0.0819
22702SOL     OW70259   7.456   8.880   8.556 -0.1562  0.2239  0.1416
22702SOL    HW170260   7.550   8.867   8.566 -0.3445 -1.1878  0.2558
22702SOL    HW270261   7.420   8.792   8.551 -1.5192  0.7382  0.4724
22703SOL     OW70262   7.109   6.383   5.699 -0.2304  0.0131  0.0507
22703SOL    HW170263   7.019   6.359   5.724  0.2075 -0.0062  1.7510
22703SOL    HW270264   7.157   6.301   5.700 -0.2151 -0.0039 -1.0578
22704SOL     OW70265   0.927   9.351   7.117 -0.0792  0.2837  0.1066
22704SOL    HW170266   1.004   9.401   7.092  0.7217  0.1013  2.0328
22704SOL    HW270267   0.924   9.278   7.055 -0.1089  1.5843 -1.4713
22705SOL     OW70268   0.787   2.096   0.356  0.3942 -0.5376  0.0656
22705SOL    HW170269   0.729   2.052   0.294 -0.0058 -0.1439  0.1535
22705SOL    HW270270   0.866   2.042   0.358  0.5497 -0.3760 -1.0419
22706SOL     OW70271   2.446   5.415   0.317  0.3956  0.5524  0.3768
22706SOL    HW170272   2.379   5.398   0.383 -1.9414 -0.0631 -1.9797
22706SOL    HW270273   2.448   5.510   0.309 -1.7411  0.5642 -0.8618
22707SOL     OW70274   1.845   1.068   7.495 -0.4360  0.3787  0.1447
22707SOL    HW170275   1.883   1.004   7.436 -0.3752  0.4576  0.0984
22707SOL    HW270276   1.752   1.047   7.498 -0.3015 -0.1773  0.7026
22708SOL     OW70277   8.979   8.691   2.238 -0.3291  0.3385  0.3716
22708SOL    HW170278   8.977   8.778   2.278 -0.6005  1.4927 -2.0331
22708SOL    HW270279   9.006   8.706   2.148 -2.6602 -1.7837 -0.7932
22709SOL     OW70280   0.752   0.212   0.106 -0.3079 -0.5264 -0.3828
22709SOL    HW170281   0.793   0.177   0.026 -0.2393  1.1525 -1.1227
22709SOL    HW270282   0.825   0.244   0.158 -0.5118  0.6243 -0.7849
22710SOL     OW70283   5.919   0.015   4.437  0.5088 -0.2112 -0.0961
22710SOL    HW170284   5.860   0.076   4.392  0.7419  0.0278 -0.0787
22710SOL    HW270285   5.906   0.035   4.530 -0.6517 -1.3199  0.0120
22711SOL     OW70286   0.980   6.777   7.360  0.4716 -0.0837 -0.2514
22711SOL    HW170287   0.974   6.696   7.309  1.2216 -0.2478 -0.0941
22711SOL    HW270288   0.929   6.841   7.310 -0.2643 -0.6897 -0.2934
22712SOL     OW70289   0.266   8.549   6.338  0.4205  0.2822  0.3392
22712SOL    HW170290   0.356   8.517   6.342 -0.0083 -0.8705  1.3026
22712SOL    HW270291   0.265   8.623   6.399  0.5701 -0.1271  0.8521
22713SOL     OW70292   1.384   1.353   6.575  0.0936  0.2325  0.1862
22713SOL    HW170293   1.353   1.348   6.484  0.1748 -3.8471  0.1748
22713SOL    HW270294   1.466   1.401   6.570  0.0152  0.2387 -1.8769
22714SOL     OW70295   6.180   1.529   6.709 -0.7300 -0.3805  0.3929
22714SOL    HW170296   6.158   1.513   6.618 -0.1470 -2.0972  0.5029
22714SOL    HW270297   6.095   1.534   6.754 -1.0009 -1.0023 -0.0348
22715SOL     OW70298   1.593   6.984   4.298 -0.5827 -0.0405  0.0173
22715SOL    HW170299   1.609   6.980   4.204  0.0302 -1.1410  0.1522
22715SOL    HW270300   1.652   7.053   4.330 -1.0133  0.5447 -0.4384
22716SOL     OW70301   5.154   2.477   7.757 -0.7252 -0.7221  0.4765
22716SOL    HW170302   5.217   2.469   7.829  0.0449 -1.7066 -0.2649
22716SOL    HW270303   5.106   2.394   7.758 -1.3973 -0.3405  0.4694
22717SOL     OW70304   3.741   0.026   5.871 -0.3271  0.0389  0.0136
22717SOL    HW170305   3.711   0.001   5.959  0.9259 -1.9811 -0.0537
22717SOL    HW270306   3.768   0.117   5.880 -3.3759  0.9753  0.8218
22718SOL     OW70307   8.712   3.796   3.359  0.2632  0.7158 -1.0335
22718SOL    HW170308   8.660   3.779   3.437 -1.3644 -1.7876 -2.5001
22718SOL    HW270309   8.802   3.776   3.385  0.2976  3.1719  1.0056
22719SOL     OW70310   1.840   9.411   4.027  0.2990 -0.4885  0.2986
22719SOL    HW170311   1.789   9.491   4.036  0.1413 -0.5390 -0.1096
22719SOL    HW270312   1.922   9.440   3.987 -0.5474 -0.7847 -1.7870
22720SOL     OW70313   3.106   0.299   1.753 -0.0651  0.0342 -0.0883
22720SOL    HW170314   3.099   0.286   1.848  0.9026  0.0588  0.0025
22720SOL    HW270315   3.195   0.270   1.732  0.9663  3.1481 -0.4497
22721SOL     OW70316   9.362   2.980   3.358 -0.2242  0.3841  0.3029
22721SOL    HW170317   9.450   2.943   3.354  0.1562  1.0335  1.7405
22721SOL    HW270318   9.375   3.075   3.352 -0.2307  0.9369  4.9676
22722SOL     OW70319   9.257   2.619   2.487 -0.4467 -0.2242 -0.1866
22722SOL    HW170320   9.224   2.698   2.444 -1.2164  0.9843  2.3665
22722SOL    HW270321   9.181   2.561   2.492 -0.2638 -0.5191 -0.7379
22723SOL     OW70322   4.193   7.576   5.943  0.4575  0.2053 -1.1015
22723SOL    HW170323   4.223   7.485   5.956  0.7302  0.5944  1.8264
22723SOL    HW270324   4.097   7.569   5.942  0.3252  0.0296  2.0300
22724SOL     OW70325   7.174   3.142   5.166 -0.0512  0.5620 -0.0188
22724SOL    HW170326   7.260   3.179   5.185 -0.5408  3.1268 -2.1831
22724SOL    HW270327   7.181   3.112   5.075 -0.4943 -2.4920  0.8491
22725SOL     OW70328   5.387   4.058   5.448 -0.9013 -0.3151 -0.5784
22725SOL    HW170329   5.354   3.970   5.430 -1.3256  0.0178 -1.4567
22725SOL    HW270330   5.482   4.050   5.442 -0.8892 -0.8975  0.2210
22726SOL     OW70331   6.783   9.053   1.207  0.2328 -0.4172 -0.2453
22726SOL    HW170332   6.824   9.136   1.230 -1.9178  0.1145  2.1280
22726SOL    HW270333   6.731   9.073   1.129 -1.1215  0.8277  0.9283
22727SOL     OW70334   4.203   0.921   7.749 -0.2448 -0.1614  0.3902
22727SOL    HW170335   4.265   0.933   7.821  0.0802 -1.7306  0.4001
22727SOL    HW270336   4.246   0.961   7.673  0.0082  0.2913  0.7698
22728SOL     OW70337   3.488   5.483   4.505 -0.1840  0.0124 -0.4219
22728SOL    HW170338   3.529   5.537   4.438 -1.3764  1.8489  0.2532
22728SOL    HW270339   3.486   5.539   4.583 -0.3226 -1.4812  0.7026
22729SOL     OW70340   8.789   1.074   6.315 -0.3692 -0.1735 -0.0467
22729SOL    HW170341   8.862   1.059   6.255 -0.5101  0.0960 -0.2908
22729SOL    HW270342   8.749   0.987   6.326 -0.4130 -0.2056 -0.4374
22730SOL     OW70343   3.114   6.976   8.417  0.1047 -0.4769 -0.5414
22730SOL    HW170344   3.071   6.961   8.333  0.3522 -0.2151 -0.7156
22730SOL    HW270345   3.199   7.015   8.395 -0.0560  0.1156 -0.1513
22731SOL     OW70346   5.875   2.648   2.097 -0.0836 -0.7079  0.2400
22731SOL    HW170347   5.836   2.636   2.010 -3.2674  0.6063  1.3502
22731SOL    HW270348   5.932   2.724   2.088 -1.0605 -0.0468 -0.5462
22732SOL     OW70349   3.835   7.547   6.866  0.0567  0.0996  0.3772
22732SOL    HW170350   3.778   7.473   6.888  0.9672 -0.3854  1.2073
22732SOL    HW270351   3.923   7.510   6.870  0.4190  0.6406 -1.6344
22733SOL     OW70352   7.748   2.086   5.974 -0.1205  0.1134 -0.0060
22733SOL    HW170353   7.742   2.023   5.903  0.6993 -0.5724  0.5165
22733SOL    HW270354   7.842   2.094   5.992 -0.3647 -1.3407  2.3686
22734SOL     OW70355   3.580   3.070   8.118  0.1377  0.5373  0.0986
22734SOL    HW170356   3.573   3.108   8.206 -1.2849  0.0985  0.1996
22734SOL    HW270357   3.509   3.006   8.115  0.3809  0.3236 -1.2629
22735SOL     OW70358   1.328   1.374   1.815  0.0126 -0.1401 -0.9214
22735SOL    HW170359   1.351   1.406   1.902 -1.6208  1.1698 -0.9108
22735SOL    HW270360   1.409   1.337   1.781  0.6916 -0.6952  1.1399
22736SOL     OW70361   5.541   8.372   3.051 -0.0591  0.2779 -0.4477
22736SOL    HW170362   5.489   8.404   3.124  0.3179  0.5427 -0.2929
22736SOL    HW270363   5.491   8.299   3.016 -0.5995  0.6103 -0.3823
22737SOL     OW70364   5.429   7.937   3.118 -0.1927  0.3711 -0.2365
22737SOL    HW170365   5.494   7.907   3.181 -2.2941 -1.1246  1.3378
22737SOL    HW270366   5.391   8.015   3.158 -2.5691 -1.4039  1.2395
22738SOL     OW70367   4.012   7.043   7.692 -0.6168  0.0841 -0.0012
22738SOL    HW170368   4.052   7.098   7.759 -0.2242  1.7198 -1.5135
22738SOL    HW270369   3.923   7.026   7.725 -1.0962  2.4540  0.0869
22739SOL     OW70370   0.539   3.731   9.327 -0.4323 -0.3888  0.3221
22739SOL    HW170371   0.570   3.748   9.238  0.0064  1.7730  0.8368
22739SOL    HW270372   0.467   3.793   9.339  1.4659  1.5460  2.4753
22740SOL     OW70373   7.408   3.500   2.837  0.0376 -0.4501 -0.2862
22740SOL    HW170374   7.465   3.555   2.891  0.1193 -0.2571 -0.5648
22740SOL    HW270375   7.397   3.549   2.756  0.9613 -1.2966 -0.9563
22741SOL     OW70376   7.607   3.868   8.856 -0.5187  0.9353  0.2101
22741SOL    HW170377   7.520   3.864   8.895 -0.2946  0.9679  0.7243
22741SOL    HW270378   7.639   3.777   8.860 -0.5360  0.9215  0.0140
22742SOL     OW70379   8.533   6.404   3.048 -0.3639 -0.4622  0.5618
22742SOL    HW170380   8.470   6.444   2.987  2.6294  1.9891 -1.2660
22742SOL    HW270381   8.558   6.322   3.006  0.7596  0.6209 -1.0067
22743SOL     OW70382   4.098   3.739   7.983  0.4099  0.4117  0.5002
22743SOL    HW170383   4.109   3.821   8.031  2.5525 -0.3150  1.3846
22743SOL    HW270384   4.077   3.674   8.050 -2.6172  0.3675 -0.3393
22744SOL     OW70385   4.234   9.189   5.557 -0.0975 -0.4910  0.6898
22744SOL    HW170386   4.190   9.165   5.476 -0.5963  0.4401  0.6739
22744SOL    HW270387   4.305   9.247   5.528 -0.8989  0.6614  0.9935
22745SOL     OW70388   9.217   5.478   7.709  0.1134 -0.2038  0.3133
22745SOL    HW170389   9.235   5.549   7.647  0.8086 -0.9607 -0.3697
22745SOL    HW270390   9.213   5.399   7.655 -0.9099 -0.6654  1.0354
22746SOL     OW70391   3.335   8.457   5.065 -0.2619  0.0179  0.0470
22746SOL    HW170392   3.316   8.547   5.091  1.0370  0.6380 -1.0200
22746SOL    HW270393   3.430   8.455   5.051 -0.0278 -1.9171  1.4435
22747SOL     OW70394   0.068   7.388   0.370 -0.6448 -0.2727  0.8355
22747SOL    HW170395   0.057   7.299   0.404 -2.4100 -0.6951 -0.6855
22747SOL    HW270396   0.146   7.382   0.314 -0.0947 -0.5507  1.6049
22748SOL     OW70397   2.668   8.872   7.593 -0.5258  0.3425  0.8371
22748SOL    HW170398   2.741   8.811   7.581 -0.7001  0.0784  1.1033
22748SOL    HW270399   2.691   8.948   7.540  0.5731  0.8033  1.9125
22749SOL     OW70400   9.254   3.479   8.114  0.1216 -0.1313 -0.4308
22749SOL    HW170401   9.255   3.467   8.209  3.2641 -0.2508 -0.3725
22749SOL    HW270402   9.229   3.394   8.079 -0.0677 -0.3731  0.2806
22750SOL     OW70403   5.452   5.035   6.864  0.1350  0.4057  0.2968
22750SOL    HW170404   5.369   5.065   6.827 -0.2084 -1.0029 -0.1286
22750SOL    HW270405   5.500   5.116   6.885 -2.1077  1.3178  2.3817
22751SOL     OW70406   0.776   4.970   0.278 -0.1083 -0.2537 -0.0625
22751SOL    HW170407   0.803   4.938   0.192 -1.6188 -1.4481 -0.1352
22751SOL    HW270408   0.697   5.021   0.261  0.4564  0.8291  0.4567
22752SOL     OW70409   3.311   2.747   1.732 -0.0878 -0.1688 -0.3024
22752SOL    HW170410   3.301   2.807   1.658 -1.3954 -0.6430 -0.5390
22752SOL    HW270411   3.271   2.665   1.703 -1.7388 -0.0119  1.3343
22753SOL     OW70412   5.511   1.233   2.609  0.2386  0.3091 -0.0670
22753SOL    HW170413   5.420   1.225   2.637 -0.5474  1.5602 -2.0385
22753SOL    HW270414   5.559   1.252   2.689 -0.9331 -2.0200  1.2884
22754SOL     OW70415   6.635   7.256   8.573  0.3489  0.1558 -0.2213
22754SOL    HW170416   6.608   7.334   8.623 -0.1451  0.3230 -0.7375
22754SOL    HW270417   6.687   7.205   8.635  0.2970  0.6789  0.2645
22755SOL     OW70418   8.398   8.533   2.297 -0.1630 -0.6731  0.5796
22755SOL    HW170419   8.439   8.598   2.241  0.3400 -1.9758 -0.6003
22755SOL    HW270420   8.450   8.534   2.378  0.3471 -0.2122  0.2471
22756SOL     OW70421   0.807   0.906   2.568 -0.2675 -0.8488  0.0722
22756SOL    HW170422   0.737   0.854   2.606 -1.0171 -0.8732 -1.2888
22756SOL    HW270423   0.878   0.844   2.554  0.1051 -0.7996  1.5633
22757SOL     OW70424   6.768   8.203   7.856  0.3396 -0.9389  0.1483
22757SOL    HW170425   6.760   8.174   7.765 -0.2184 -2.2749  0.5943
22757SOL    HW270426   6.689   8.170   7.899  0.4839 -0.1362  1.0792
22758SOL     OW70427   6.510   5.369   6.477 -0.3068 -0.4693 -0.1203
22758SOL    HW170428   6.597   5.409   6.482 -2.1610  4.2048  0.0359
22758SOL    HW270429   6.485   5.353   6.568 -0.8242  1.5081  0.1329
22759SOL     OW70430   8.630   2.617   7.622 -0.2376 -0.4150 -0.1335
22759SOL    HW170431   8.638   2.631   7.528 -1.9137  1.3920 -0.0659
22759SOL    HW270432   8.628   2.705   7.660  1.6607 -1.0965  1.7603
22760SOL     OW70433   2.826   6.293   8.949 -0.0118  0.6059  0.4181
22760SOL    HW170434   2.892   6.273   8.884  1.4209  0.6607  1.8020
22760SOL    HW270435   2.784   6.374   8.918  0.8361  0.7791 -0.2875
22761SOL     OW70436   4.685   3.820   3.016  0.2483  0.7903  0.1002
22761SOL    HW170437   4.777   3.794   3.017  0.3158  0.9846 -0.6080
22761SOL    HW270438   4.646   3.766   2.947 -0.6202 -0.7757  1.7147
22762SOL     OW70439   4.203   2.609   4.828 -0.2420 -0.4809 -0.5049
22762SOL    HW170440   4.294   2.638   4.837 -0.5555  0.8105 -1.2382
22762SOL    HW270441   4.195   2.587   4.735 -1.2439  1.5705 -0.9677
22763SOL     OW70442   1.814   7.524   0.258 -0.1824  0.3032 -0.0655
22763SOL    HW170443   1.878   7.591   0.232  1.8458 -1.4575  0.0855
22763SOL    HW270444   1.741   7.535   0.198  0.5214  2.0204 -0.6702
22764SOL     OW70445   4.146   4.733   9.040  0.3087  0.1469 -0.3696
22764SOL    HW170446   4.161   4.665   8.975  1.9722  0.6241 -0.5131
22764SOL    HW270447   4.136   4.685   9.123  0.3676 -0.3306 -0.6379
22765SOL     OW70448   6.513   9.096   0.709  0.2940  0.0294 -0.0442
22765SOL    HW170449   6.483   9.098   0.618  0.2689 -0.9482 -0.0679
22765SOL    HW270450   6.462   9.026   0.750  0.0707  0.6802  0.8120
22766SOL     OW70451   5.844   4.875   9.252 -0.1403  0.2044 -0.2400
22766SOL    HW170452   5.837   4.964   9.287  0.0074 -0.4813  1.6203
22766SOL    HW270453   5.938   4.863   9.234  0.0871 -0.1377  1.1080
22767SOL     OW70454   8.541   0.167   4.593 -0.7198  0.4825 -0.6499
22767SOL    HW170455   8.446   0.181   4.587 -1.0342 -0.3322  1.4192
22767SOL    HW270456   8.563   0.197   4.682  0.8982  0.3004 -0.9740
22768SOL     OW70457   9.152   2.113   2.090  0.1367 -0.1599 -0.0369
22768SOL    HW170458   9.096   2.171   2.039 -0.4371  1.0192  1.8529
22768SOL    HW270459   9.108   2.028   2.085 -0.0856 -0.0046 -1.1725
22769SOL     OW70460   4.406   9.174   3.797 -0.0444  0.2340 -0.1992
22769SOL    HW170461   4.469   9.107   3.769 -0.3237 -0.9641  1.8024
22769SOL    HW270462   4.458   9.238   3.844 -0.2152 -0.5178  1.0563
22770SOL     OW70463   2.109   6.544   4.387 -0.0859 -0.2795  0.4462
22770SOL    HW170464   2.175   6.614   4.387 -1.7261  1.3560 -0.5674
22770SOL    HW270465   2.063   6.554   4.470  1.1391 -1.6952  1.3481
22771SOL     OW70466   3.874   5.967   8.093 -0.2451  0.1133  0.2738
22771SOL    HW170467   3.956   5.918   8.087 -0.8120 -1.4935  3.3420
22771SOL    HW270468   3.808   5.908   8.057 -0.3515  0.5128 -0.1921
22772SOL     OW70469   2.603   5.821   4.384 -0.8328 -0.3536 -0.5625
22772SOL    HW170470   2.559   5.814   4.299 -1.0271  0.1751 -0.5041
22772SOL    HW270471   2.620   5.914   4.395  0.0665 -0.5166 -0.4627
22773SOL     OW70472   0.057   0.692   5.182 -0.1581 -0.1547  0.3153
22773SOL    HW170473   0.085   0.784   5.185 -2.7523  0.7185  0.0962
22773SOL    HW270474   0.006   0.680   5.261 -3.4531 -0.0469 -1.6242
22774SOL     OW70475   4.581   2.548   3.491 -0.9747 -0.0824  0.4789
22774SOL    HW170476   4.587   2.484   3.561 -0.5640 -0.8430 -0.2334
22774SOL    HW270477   4.558   2.497   3.413  0.1989  0.4887 -0.2762
22775SOL     OW70478   2.471   3.211   7.876 -0.1997  0.3774 -0.2651
22775SOL    HW170479   2.387   3.248   7.903 -0.9739 -0.9521 -0.7191
22775SOL    HW270480   2.482   3.240   7.785 -0.2631  0.4134 -0.2606
22776SOL     OW70481   2.546   3.263   4.811 -0.0437 -0.0214  0.1028
22776SOL    HW170482   2.482   3.280   4.742 -0.3224  0.0479  0.3763
22776SOL    HW270483   2.605   3.198   4.773  0.5119  0.8786 -0.6326
22777SOL     OW70484   4.544   5.338   8.557  0.1131 -0.1440  0.5972
22777SOL    HW170485   4.608   5.385   8.609  1.0980 -1.1987  0.3735
22777SOL    HW270486   4.594   5.305   8.482 -0.7710 -0.6836  0.2313
22778SOL     OW70487   8.612   6.248   6.325  0.0198  0.4133 -0.1062
22778SOL    HW170488   8.583   6.327   6.280 -0.7863  0.0192 -0.2842
22778SOL    HW270489   8.532   6.198   6.342  0.5989 -0.8374 -0.8829
22779SOL     OW70490   8.266   8.905   6.647  0.1686 -0.6573 -0.0256
22779SOL    HW170491   8.302   8.915   6.735  1.8684  1.5122 -0.8646
22779SOL    HW270492   8.272   8.993   6.609 -0.8955 -1.4416 -2.1859
22780SOL     OW70493   3.065   1.197   8.158  0.8393 -0.7038 -0.2608
22780SOL    HW170494   3.077   1.113   8.113  0.3237 -0.9472  0.0384
22780SOL    HW270495   2.972   1.197   8.182  0.3653  0.8101 -1.9505
22781SOL     OW70496   5.594   2.380   0.969 -0.2372 -0.2456 -0.6478
22781SOL    HW170497   5.560   2.458   0.924  1.1931 -0.1715 -1.6811
22781SOL    HW270498   5.597   2.313   0.901 -2.2825 -1.5100  0.4352
22782SOL     OW70499   3.455   8.924   8.169  0.1720  0.6061  0.2098
22782SOL    HW170500   3.427   8.904   8.259 -1.0797  1.2262 -0.0211
22782SOL    HW270501   3.376   8.915   8.116  1.1151 -0.8074 -1.0387
22783SOL     OW70502   5.854   0.812   7.151  0.0515  0.1118  0.4755
22783SOL    HW170503   5.852   0.906   7.132 -0.5304 -0.1675 -0.9296
22783SOL    HW270504   5.769   0.793   7.190 -0.5993 -0.1834 -1.0602
22784SOL     OW70505   5.366   2.094   8.604 -0.3167  0.2023 -0.0916
22784SOL    HW170506   5.419   2.017   8.584  1.6263  1.3795  0.2213
22784SOL    HW270507   5.400   2.163   8.547 -0.5969  1.3491  1.0532
22785SOL     OW70508   7.002   3.456   1.517  0.1763  0.3897  0.5887
22785SOL    HW170509   6.972   3.366   1.531 -0.3745  0.5084  0.2067
22785SOL    HW270510   6.941   3.509   1.567 -0.5514  0.6645 -0.5401
22786SOL     OW70511   1.378   3.487   6.103  0.2487 -0.6621  0.1689
22786SOL    HW170512   1.373   3.569   6.152  0.2012 -0.9335  0.6194
22786SOL    HW270513   1.374   3.514   6.011 -2.7354 -0.3095  0.2891
22787SOL     OW70514   7.120   3.467   7.080 -0.1037  0.7995 -0.1766
22787SOL    HW170515   7.213   3.479   7.098 -0.4303  3.5244  0.0453
22787SOL    HW270516   7.087   3.555   7.064 -2.6423 -0.1099 -0.3647
22788SOL     OW70517   7.972   0.254   8.429 -1.0348  0.3302  0.2539
22788SOL    HW170518   8.032   0.259   8.354 -0.0311  1.3173  1.0824
22788SOL    HW270519   7.885   0.259   8.390 -0.5488  0.2128 -0.8935
22789SOL     OW70520   0.709   5.931   6.473 -0.2564 -0.4908 -0.1360
22789SOL    HW170521   0.774   5.985   6.427 -0.7949  0.1229 -0.2023
22789SOL    HW270522   0.751   5.846   6.484  1.7725  0.7017  2.5160
22790SOL     OW70523   5.418   0.241   5.582 -0.0678  0.1408 -0.6025
22790SOL    HW170524   5.429   0.308   5.650  1.0686 -0.1739 -0.4567
22790SOL    HW270525   5.426   0.158   5.629 -2.1526 -0.1638 -0.6620
22791SOL     OW70526   2.891   6.451   4.751 -0.0954 -0.0854  0.0420
22791SOL    HW170527   2.951   6.425   4.681  1.3861 -0.2396  1.3005
22791SOL    HW270528   2.928   6.410   4.830 -1.4401  0.4719  0.9953
22792SOL     OW70529   9.125   8.101   4.876  0.0133  0.6625  0.2549
22792SOL    HW170530   9.220   8.098   4.872  0.0115 -0.6153  0.6474
22792SOL    HW270531   9.098   8.136   4.791  0.8056  0.0250 -0.2814
22793SOL     OW70532   5.012   7.950   5.393  0.2430  0.0772 -0.0046
22793SOL    HW170533   5.046   7.880   5.448 -0.7032 -0.9522 -0.6995
22793SOL    HW270534   4.975   7.906   5.317  0.1264  1.3686 -0.7397
22794SOL     OW70535   1.230   2.290   7.105 -0.3684  0.2830 -0.3772
22794SOL    HW170536   1.280   2.248   7.036  0.7241  1.4965 -0.3633
22794SOL    HW270537   1.200   2.372   7.067  0.9278  1.3456  0.7930
22795SOL     OW70538   8.426   4.541   2.143  0.2044 -0.1259  0.5217
22795SOL    HW170539   8.377   4.466   2.176 -0.8608  0.5276  0.4569
22795SOL    HW270540   8.377   4.617   2.173  0.0295  0.5199 -1.2727
22796SOL     OW70541   2.473   7.850   9.126 -0.6662 -0.5307 -0.1444
22796SOL    HW170542   2.410   7.779   9.127 -0.1499 -0.9984  0.6224
22796SOL    HW270543   2.477   7.880   9.218  0.0339 -0.3470 -0.2288
22797SOL     OW70544   0.869   8.838   0.382  0.1269  0.3972  0.1494
22797SOL    HW170545   0.836   8.755   0.417  0.0556  0.0319 -0.7441
22797SOL    HW270546   0.956   8.847   0.420  0.9550 -1.1032 -1.2586
22798SOL     OW70547   5.036   9.517   0.330 -0.2571 -0.2547 -0.0690
22798SOL    HW170548   5.095   9.585   0.363 -0.0044  0.2149 -1.4244
22798SOL    HW270549   4.958   9.524   0.384 -0.4723  1.5286 -0.5669
22799SOL     OW70550   0.382   7.539   5.372 -0.0953  0.0507  0.2801
22799SOL    HW170551   0.421   7.505   5.452 -0.7936  2.0575  1.5385
22799SOL    HW270552   0.453   7.590   5.331 -0.2077  0.3875  0.4967
22800SOL     OW70553   7.781   7.141   7.197  0.5253 -0.1513  0.4062
22800SOL    HW170554   7.741   7.126   7.111  0.1804 -0.7806  0.6749
22800SOL    HW270555   7.742   7.223   7.227  2.2586  1.2757 -0.9705
22801SOL     OW70556   7.546   3.235   3.594  0.1726  0.3136 -0.1527
22801SOL    HW170557   7.543   3.250   3.688  1.9882 -0.2193  0.0252
22801SOL    HW270558   7.467   3.279   3.560 -1.3418 -0.8082  1.7410
22802SOL     OW70559   3.195   8.349   3.691 -0.0047 -0.1322  0.4583
22802SOL    HW170560   3.220   8.289   3.761  1.5876  0.1893  0.2071
22802SOL    HW270561   3.264   8.415   3.691  1.1295 -1.1368 -2.6046
22803SOL     OW70562   0.909   3.975   6.429 -0.2954 -0.5728 -0.1511
22803SOL    HW170563   0.845   3.924   6.478 -2.3653  1.4517 -0.6203
22803SOL    HW270564   0.862   4.007   6.352  1.0280  1.5769 -0.1603
22804SOL     OW70565   7.226   3.289   2.465  0.6213  0.3291 -1.0111
22804SOL    HW170566   7.312   3.329   2.480 -0.2082  1.5379  0.7780
22804SOL    HW270567   7.171   3.322   2.536 -0.8046 -2.0341 -0.9191
22805SOL     OW70568   7.152   7.985   7.965  0.3801 -0.1508  0.3611
22805SOL    HW170569   7.077   7.989   8.024 -0.8434  0.2339 -1.1538
22805SOL    HW270570   7.130   7.916   7.902  1.5422 -0.4132  0.2223
22806SOL     OW70571   3.229   5.982   2.958  0.1363 -0.3907  0.0550
22806SOL    HW170572   3.283   5.905   2.947 -1.1108 -1.5580  1.5950
22806SOL    HW270573   3.292   6.055   2.964  1.3796 -1.3911 -0.4185
22807SOL     OW70574   8.029   6.451   2.246 -0.1587  0.2280  0.2073
22807SOL    HW170575   7.978   6.528   2.270  1.3506  1.3158  0.0494
22807SOL    HW270576   8.113   6.485   2.216  0.4849 -1.4707 -0.0761
22808SOL     OW70577   8.385   2.983   7.498 -0.5159  0.4023 -0.2290
22808SOL    HW170578   8.398   3.062   7.445 -0.2110 -1.0712 -2.4579
22808SOL    HW270579   8.293   2.961   7.486 -0.3328 -0.2101 -0.5503
22809SOL     OW70580   8.925   1.069   2.497 -0.0511 -0.1444 -0.3332
22809SOL    HW170581   8.898   1.054   2.406  2.2714 -0.4207 -1.0587
22809SOL    HW270582   8.955   1.160   2.498  0.3888 -0.2904  0.0250
22810SOL     OW70583   3.360   6.211   2.957 -0.0988 -0.1573  0.0687
22810SOL    HW170584   3.455   6.204   2.950 -0.1417 -0.2110 -0.4932
22810SOL    HW270585   3.335   6.269   2.885 -0.4636  0.0919  0.3899
22811SOL     OW70586   7.871   0.711   5.187 -0.0279  1.2573 -0.4936
22811SOL    HW170587   7.867   0.620   5.160 -0.7144  1.8776 -2.6485
22811SOL    HW270588   7.963   0.725   5.211  0.1188  0.0598 -0.3301
22812SOL     OW70589   9.042   1.015   3.334 -0.2236 -0.5365  0.3995
22812SOL    HW170590   9.063   0.985   3.422 -0.7509 -1.9121  0.0781
22812SOL    HW270591   8.980   0.951   3.301  0.2177 -0.2228 -1.0997
22813SOL     OW70592   6.985   5.244   3.846  0.0150 -0.4938  0.1426
22813SOL    HW170593   7.034   5.312   3.801 -1.7189 -0.0741 -1.2134
22813SOL    HW270594   7.028   5.235   3.931  1.9088  0.3759 -0.6806
22814SOL     OW70595   4.993   8.997   5.056  0.0338  0.0991 -0.1547
22814SOL    HW170596   4.936   8.978   5.130 -0.3531  1.5077 -0.0624
22814SOL    HW270597   5.061   9.053   5.092 -0.4794  1.2770 -0.9608
22815SOL     OW70598   7.376   2.817   8.005 -0.1755  0.6230 -0.0568
22815SOL    HW170599   7.415   2.745   8.055 -2.6359 -0.2769  0.6858
22815SOL    HW270600   7.399   2.896   8.054  0.6720  0.1416  0.3450
22816SOL     OW70601   6.782   5.258   6.679  0.2877  0.0226  0.0776
22816SOL    HW170602   6.774   5.243   6.584 -0.8094  1.0383 -0.0221
22816SOL    HW270603   6.737   5.184   6.719 -0.4173  0.2669 -0.2444
22817SOL     OW70604   3.232   7.157   6.395  0.0719 -0.3530  0.4030
22817SOL    HW170605   3.197   7.227   6.340  0.5367  0.0219  0.5714
22817SOL    HW270606   3.308   7.197   6.437  0.9150 -1.2426 -0.2285
22818SOL     OW70607   2.821   7.251   1.832 -0.0176  0.0360 -0.1507
22818SOL    HW170608   2.863   7.236   1.917 -0.9341  0.8957  0.4762
22818SOL    HW270609   2.816   7.164   1.792  0.4609 -0.3735  0.6490
22819SOL     OW70610   0.542   9.509   1.764 -0.1576 -0.2710 -0.4266
22819SOL    HW170611   0.580   9.480   1.681 -0.1832 -0.8225 -0.2492
22819SOL    HW270612   0.486   9.583   1.740  0.4577  0.0925 -0.7882
22820SOL     OW70613   3.285   5.786   2.328  0.6019  0.1551  0.3417
22820SOL    HW170614   3.308   5.725   2.398  0.8328 -0.2776 -0.1077
22820SOL    HW270615   3.343   5.762   2.256 -1.6193 -1.3642 -1.0486
22821SOL     OW70616   1.250   8.299   8.088 -0.0647 -0.7183  0.0817
22821SOL    HW170617   1.231   8.301   7.994 -2.3328 -0.1692  0.4892
22821SOL    HW270618   1.305   8.376   8.104 -2.3251  1.0985 -0.3537
22822SOL     OW70619   0.973   1.044   1.427 -0.1989  0.0428  0.5732
22822SOL    HW170620   1.063   1.014   1.445  0.5886 -0.1100 -2.9461
22822SOL    HW270621   0.927   0.965   1.401  0.0313  0.7156 -2.1805
22823SOL     OW70622   9.345   8.515   3.855 -0.5754 -0.1328  0.3727
22823SOL    HW170623   9.374   8.468   3.777 -0.7006 -1.7502  1.2535
22823SOL    HW270624   9.251   8.529   3.842 -0.7582 -1.1058  0.5571
22824SOL     OW70625   1.446   4.905   7.486  0.4071 -0.1098 -0.2651
22824SOL    HW170626   1.514   4.967   7.459  0.9985  0.0819  1.5080
22824SOL    HW270627   1.434   4.922   7.580  0.1606 -2.2655  0.1551
22825SOL     OW70628   6.567   8.878   2.749  0.3628 -0.2613  0.1326
22825SOL    HW170629   6.544   8.926   2.829 -0.2120  3.2305 -1.9323
22825SOL    HW270630   6.490   8.823   2.732  0.3262 -0.7638  1.6996
22826SOL     OW70631   2.045   8.564   8.326 -0.2756 -0.2554  0.3384
22826SOL    HW170632   2.065   8.658   8.321  0.0272 -0.3460 -0.2575
22826SOL    HW270633   2.106   8.524   8.264  0.4503 -0.9856  1.5154
22827SOL     OW70634   1.633   1.501   6.558  0.2843  0.3359  0.2702
22827SOL    HW170635   1.688   1.559   6.610 -0.0767 -0.5512  1.6853
22827SOL    HW270636   1.642   1.533   6.468  2.6674  0.5509  0.5396
22828SOL     OW70637   4.481   0.681   6.659  0.3507 -0.0484  0.1794
22828SOL    HW170638   4.425   0.611   6.693  0.0629 -1.1170 -2.2936
22828SOL    HW270639   4.541   0.637   6.599  2.5067  1.3820  1.1734
22829SOL     OW70640   0.341   2.720   1.335  0.1964  0.0813  0.2916
22829SOL    HW170641   0.391   2.640   1.319 -0.0920 -0.0673  0.1388
22829SOL    HW270642   0.302   2.707   1.422 -0.2292 -0.1440  0.0718
22830SOL     OW70643   6.544   8.457   7.373 -0.2302  0.4735 -0.0845
22830SOL    HW170644   6.515   8.366   7.373  2.8229 -0.6368  0.9786
22830SOL    HW270645   6.493   8.499   7.442  1.2463 -1.6231  2.4620
22831SOL     OW70646   8.273   4.991   5.279  0.6454 -0.0951 -0.2189
22831SOL    HW170647   8.304   5.020   5.364  1.0278  1.1195 -0.7358
22831SOL    HW270648   8.328   4.916   5.256  1.3808  0.3482  0.0678
22832SOL     OW70649   4.644   6.531   2.456 -0.4137 -0.0149 -0.1777
22832SOL    HW170650   4.599   6.595   2.511  1.4073  2.2078 -1.1014
22832SOL    HW270651   4.704   6.583   2.403  1.4156 -2.5402 -0.7816
22833SOL     OW70652   8.562   6.795   4.755  0.5300 -0.5134 -0.3389
22833SOL    HW170653   8.473   6.802   4.791  0.5098 -0.1660 -0.4535
22833SOL    HW270654   8.587   6.885   4.735  0.4616 -0.7167 -1.3858
22834SOL     OW70655   8.046   3.596   9.298 -0.3840 -0.0822  0.1415
22834SOL    HW170656   7.994   3.519   9.322  1.5849 -1.8732 -1.0030
22834SOL    HW270657   8.041   3.600   9.203  0.1584  0.7429  0.1350
22835SOL     OW70658   8.769   7.125   8.656 -0.0009  0.7144  0.0378
22835SOL    HW170659   8.810   7.046   8.691  0.8853  0.2870 -1.8104
22835SOL    HW270660   8.684   7.095   8.623  0.4782  0.4248 -0.9769
22836SOL     OW70661   6.279   0.376   1.268 -0.6969  0.0492 -0.7003
22836SOL    HW170662   6.341   0.307   1.246 -1.4144 -0.6039 -0.6922
22836SOL    HW270663   6.235   0.345   1.347  0.1789  1.2970  0.3230
22837SOL     OW70664   2.468   3.178   2.391  0.3790  0.3879  0.2858
22837SOL    HW170665   2.411   3.184   2.468 -1.3483 -0.9853 -0.8066
22837SOL    HW270666   2.466   3.267   2.353  1.5109  1.1646  1.9451
22838SOL     OW70667   2.586   2.899   7.254 -0.1058  0.1869 -0.0474
22838SOL    HW170668   2.592   2.858   7.168 -2.5782  1.4258 -0.9141
22838SOL    HW270669   2.557   2.830   7.313  0.0325 -0.2972 -0.5465
22839SOL     OW70670   4.784   9.184   4.966 -0.2356  0.3680  0.5048
22839SOL    HW170671   4.844   9.256   4.985 -0.2232 -0.1640  2.6688
22839SOL    HW270672   4.832   9.105   4.990 -0.2532 -0.4243 -1.8505
22840SOL     OW70673   6.850   6.946   1.221  0.0146  0.7379 -0.2314
22840SOL    HW170674   6.922   6.887   1.198 -0.3618  0.8765 -1.8102
22840SOL    HW270675   6.775   6.888   1.236  0.0545  0.7081 -0.1450
22841SOL     OW70676   4.744   6.963   7.305  0.0831 -0.1210 -0.3524
22841SOL    HW170677   4.714   6.953   7.395  1.2876 -2.5847 -0.1195
22841SOL    HW270678   4.666   6.947   7.252 -0.0826 -1.6692  0.2769
22842SOL     OW70679   4.146   6.957   4.475  0.3763 -0.3658 -0.3392
22842SOL    HW170680   4.147   6.874   4.427 -0.5690  0.1782 -1.3594
22842SOL    HW270681   4.054   6.985   4.472  0.5920  0.4736  0.4182
22843SOL     OW70682   4.400   2.865   9.525  0.5581 -0.8315  0.0746
22843SOL    HW170683   4.369   2.866   9.615 -1.9767 -1.9183 -0.7066
22843SOL    HW270684   4.427   2.956   9.508  2.3513 -0.8740  2.2545
22844SOL     OW70685   9.576   9.285   1.369 -0.0596 -0.0902 -0.8999
22844SOL    HW170686   9.487   9.260   1.393 -0.0002  0.1810 -0.3808
22844SOL    HW270687   9.570   9.310   1.277 -0.2597 -1.2990 -1.2410
22845SOL     OW70688   2.916   7.110   4.178  1.0068  0.3257  0.5411
22845SOL    HW170689   2.865   7.115   4.097  1.8051 -0.3775 -0.0263
22845SOL    HW270690   2.878   7.036   4.226  1.8840 -0.6452 -0.1961
22846SOL     OW70691   5.087   2.206   0.639  0.7584  0.8779 -0.4009
22846SOL    HW170692   5.167   2.157   0.660  0.5096  0.7102  0.1644
22846SOL    HW270693   5.080   2.272   0.708 -0.8753 -0.6427  0.9946
22847SOL     OW70694   8.580   4.128   6.273  0.2641 -0.3532 -0.2058
22847SOL    HW170695   8.645   4.085   6.216 -1.7217 -1.7524 -1.5451
22847SOL    HW270696   8.531   4.185   6.214 -0.1138  0.2370  0.6711
22848SOL     OW70697   6.882   3.814   8.420  0.0215  0.8448  0.6652
22848SOL    HW170698   6.851   3.736   8.465  0.9567 -0.4132 -0.7412
22848SOL    HW270699   6.803   3.858   8.388 -0.4800 -0.2325  0.3891
22849SOL     OW70700   4.669   8.099   8.670 -0.1363  0.3215  0.3178
22849SOL    HW170701   4.645   8.179   8.717  3.5315  0.6375  2.0254
22849SOL    HW270702   4.662   8.030   8.736  1.2555  0.1003  0.2689
22850SOL     OW70703   6.522   5.457   2.084  0.5707  0.1120 -0.1802
22850SOL    HW170704   6.552   5.416   2.003  2.8726  0.7168  0.2944
22850SOL    HW270705   6.435   5.421   2.098  0.7074 -1.1445 -2.1251
22851SOL     OW70706   8.545   4.408   4.333  0.2603  0.5737  0.6208
22851SOL    HW170707   8.542   4.491   4.380 -0.4696  1.7633 -1.4425
22851SOL    HW270708   8.610   4.422   4.264  0.5241 -0.7795  0.5611
22852SOL     OW70709   3.387   8.070   5.262 -0.2208  0.4456 -0.0211
22852SOL    HW170710   3.459   8.131   5.277  0.0679  0.1388 -0.1355
22852SOL    HW270711   3.313   8.125   5.236 -0.1260  0.7961  0.4292
22853SOL     OW70712   9.598   8.001   7.544 -0.8674  0.1566 -0.0292
22853SOL    HW170713   9.635   7.939   7.482  1.2254 -0.3666  1.6031
22853SOL    HW270714   9.514   8.028   7.506 -0.4977 -1.4842 -2.1381
22854SOL     OW70715   4.374   6.859   5.073 -0.1391 -0.3425 -0.0911
22854SOL    HW170716   4.401   6.943   5.109 -0.4589 -0.3450  0.1621
22854SOL    HW270717   4.384   6.798   5.146 -0.2665 -0.4537 -0.1665
22855SOL     OW70718   8.823   6.971   8.139 -0.3829  0.2440 -0.0608
22855SOL    HW170719   8.795   6.885   8.170  0.7464 -0.1215 -0.0054
22855SOL    HW270720   8.771   7.033   8.190 -0.5096 -0.3948  0.5995
22856SOL     OW70721   9.224   2.761   5.798 -0.0915 -0.4694 -0.5194
22856SOL    HW170722   9.308   2.732   5.833  0.8472  3.1677  0.6293
22856SOL    HW270723   9.159   2.708   5.845  1.4192 -0.2323  2.0569
22857SOL     OW70724   2.785   3.082   1.232  0.0037  0.0585 -0.4386
22857SOL    HW170725   2.828   3.004   1.265  1.1485  0.6840 -0.4082
22857SOL    HW270726   2.692   3.059   1.228  0.3210 -1.2794 -0.4004
22858SOL     OW70727   9.092   9.567   4.747 -0.3481 -0.3281 -0.0387
22858SOL    HW170728   9.119   9.542   4.659 -1.0609  0.9977 -0.6575
22858SOL    HW270729   9.000   9.540   4.752 -0.1032 -1.0906  0.5872
22859SOL     OW70730   3.833   7.753   2.871  0.1490 -0.0126  0.2269
22859SOL    HW170731   3.740   7.731   2.878  0.5405 -2.0449 -0.4403
22859SOL    HW270732   3.873   7.708   2.945  0.3555  2.8657  2.0224
22860SOL     OW70733   7.062   2.905   5.629  0.4575  0.3813 -0.5471
22860SOL    HW170734   6.981   2.916   5.580  0.4867  3.3347 -0.1371
22860SOL    HW270735   7.034   2.894   5.720  0.4063  2.8690 -0.1787
22861SOL     OW70736   1.159   1.509   3.174  0.4352 -0.2980 -0.1286
22861SOL    HW170737   1.246   1.525   3.136  0.5785 -1.1455 -0.1905
22861SOL    HW270738   1.098   1.543   3.109  0.6103 -3.1741 -2.0055
22862SOL     OW70739   2.100   1.483   7.821  0.0622 -0.2369 -0.2856
22862SOL    HW170740   2.030   1.507   7.882 -0.8162 -1.9854 -0.5459
22862SOL    HW270741   2.054   1.462   7.739  1.1808  1.6444 -1.4806
22863SOL     OW70742   1.351   4.180   7.823  0.3906 -0.1122 -0.1693
22863SOL    HW170743   1.417   4.124   7.783  0.7587  0.2944 -0.1370
22863SOL    HW270744   1.400   4.237   7.882 -0.1722 -0.9082  1.1258
22864SOL     OW70745   8.437   8.408   6.624  0.2932 -0.2785  0.6467
22864SOL    HW170746   8.411   8.478   6.564 -1.5504 -2.4958 -1.3347
22864SOL    HW270747   8.514   8.368   6.582  0.8509  0.0417  1.3516
22865SOL     OW70748   1.099   6.128   7.473  0.6171 -0.3562  0.6405
22865SOL    HW170749   1.028   6.068   7.453  0.4711 -0.6072  1.8444
22865SOL    HW270750   1.133   6.098   7.557  2.0584 -0.1457  0.1583
22866SOL     OW70751   0.006   5.650   0.029  0.4444 -0.0268 -0.5272
22866SOL    HW170752   0.033   5.564  -0.002 -0.5782 -0.6428  0.2321
22866SOL    HW270753   0.088   5.698   0.041  1.1097 -1.2397  0.0098
22867SOL     OW70754   1.677   2.428   1.704  0.1894  0.1489 -0.0469
22867SOL    HW170755   1.585   2.403   1.710  0.5093 -0.9971  0.3170
22867SOL    HW270756   1.675   2.517   1.670 -1.1861  1.3316  2.7535
22868SOL     OW70757   9.489   8.253   1.459  0.2350 -0.4322  0.7862
22868SOL    HW170758   9.494   8.321   1.526  0.3913 -0.6410  0.9911
22868SOL    HW270759   9.502   8.171   1.508  0.5134 -0.5740  0.4779
22869SOL     OW70760   3.722   1.924   3.651 -0.5519 -0.7214 -0.2256
22869SOL    HW170761   3.644   1.868   3.661 -1.5263  0.3091 -1.6629
22869SOL    HW270762   3.748   1.944   3.741 -0.6224 -2.8413  0.3195
22870SOL     OW70763   2.209   5.008   6.567  0.3115 -0.1415  0.6035
22870SOL    HW170764   2.160   4.991   6.647 -0.9558  0.7321  0.0436
22870SOL    HW270765   2.180   5.095   6.539  1.1014 -0.2193 -0.5365
22871SOL     OW70766   6.763   8.729   1.405 -0.4506 -0.0132  0.7865
22871SOL    HW170767   6.783   8.745   1.313 -0.7928  0.6931  0.8234
22871SOL    HW270768   6.747   8.635   1.411 -1.1565  0.0521 -0.0195
22872SOL     OW70769   3.659   1.228   7.840  0.0288  0.5504  0.1889
22872SOL    HW170770   3.587   1.167   7.855  0.1177  0.2850 -0.4047
22872SOL    HW270771   3.738   1.176   7.857  0.1299  0.2489 -1.0876
22873SOL     OW70772   6.106   7.098   5.966 -0.7761 -0.0653  0.3434
22873SOL    HW170773   6.147   7.170   5.919 -0.4754 -0.8440 -0.6260
22873SOL    HW270774   6.143   7.019   5.927 -2.3482 -0.7797  0.2050
22874SOL     OW70775   2.199   8.481   8.874  0.2364  0.2633 -0.4221
22874SOL    HW170776   2.177   8.464   8.783  0.0613  0.9631 -0.5166
22874SOL    HW270777   2.262   8.413   8.897  0.3558  0.1430 -1.0905
22875SOL     OW70778   7.943   1.482   4.005  0.1364 -0.0573  0.1286
22875SOL    HW170779   7.959   1.556   4.063 -1.0032  1.1595 -1.0250
22875SOL    HW270780   7.849   1.464   4.014  0.1739 -0.5941 -0.4596
22876SOL     OW70781   8.028   3.094   8.234  0.2855 -0.1644 -0.5872
22876SOL    HW170782   7.983   3.025   8.185  2.3874 -1.2774 -1.0803
22876SOL    HW270783   8.078   3.141   8.168  1.1969 -0.0674  0.1584
22877SOL     OW70784   5.504   5.753   7.954 -0.3818 -0.1909 -0.6416
22877SOL    HW170785   5.444   5.681   7.974 -0.1813 -0.2176 -0.1302
22877SOL    HW270786   5.464   5.829   7.995  0.2900 -0.3431  0.3241
22878SOL     OW70787   6.347   0.066   7.141  0.0259 -0.1383 -0.5029
22878SOL    HW170788   6.284   0.073   7.213  0.4935  0.7727 -0.1643
22878SOL    HW270789   6.423   0.116   7.171  0.1505  0.4336 -1.7080
22879SOL     OW70790   7.646   7.700   6.174  0.3233 -0.0007 -0.4200
22879SOL    HW170791   7.559   7.738   6.159  0.2406 -0.2322 -0.5294
22879SOL    HW270792   7.706   7.761   6.132  0.3016  0.7050  0.5351
22880SOL     OW70793   4.868   8.213   9.190 -0.3464  0.1437 -0.2348
22880SOL    HW170794   4.908   8.249   9.269 -0.3903  0.9403 -0.5625
22880SOL    HW270795   4.782   8.255   9.185  0.5755  1.9764 -1.9760
22881SOL     OW70796   3.120   5.529   3.730 -0.5396  0.5929 -0.1817
22881SOL    HW170797   3.160   5.446   3.757  1.1348  1.0127 -1.1749
22881SOL    HW270798   3.103   5.575   3.812 -1.7815 -0.8325  0.3980
22882SOL     OW70799   0.906   1.780   2.071  0.8708  0.1798  0.0442
22882SOL    HW170800   0.924   1.694   2.033 -1.9157  0.3373 -1.9260
22882SOL    HW270801   0.899   1.839   1.996 -4.3130  0.6245  0.4889
22883SOL     OW70802   8.720   9.061   3.637 -0.1925 -0.4624 -0.1764
22883SOL    HW170803   8.706   9.088   3.728  0.3064 -1.8334  0.3294
22883SOL    HW270804   8.812   9.033   3.635  0.2797  1.0447 -1.5074
22884SOL     OW70805   6.806   4.324   4.300  0.1642  0.1722  0.2200
22884SOL    HW170806   6.824   4.393   4.363  0.7226 -0.9008  1.2832
22884SOL    HW270807   6.754   4.260   4.349 -0.4488 -0.1117 -0.7743
22885SOL     OW70808   6.275   2.222   4.518 -0.1218 -0.3599  0.0405
22885SOL    HW170809   6.352   2.266   4.481  1.7277 -2.2450  1.4026
22885SOL    HW270810   6.250   2.276   4.593  0.3625 -0.1336  0.0427
22886SOL     OW70811   1.185   0.651   4.062 -0.3458  0.5031 -0.5426
22886SOL    HW170812   1.209   0.649   4.155  0.5451  0.9184 -0.7525
22886SOL    HW270813   1.249   0.593   4.020 -1.6662 -0.8805 -0.7163
22887SOL     OW70814   4.638   3.903   7.045  0.1700 -0.1840  0.4415
22887SOL    HW170815   4.658   3.811   7.029  1.9354  0.2258  0.1164
22887SOL    HW270816   4.597   3.932   6.964  1.4119 -0.2212 -0.2296
22888SOL     OW70817   3.376   1.801   5.260  0.5686  0.2385 -0.1616
22888SOL    HW170818   3.378   1.737   5.188 -4.1203  0.5542 -0.9572
22888SOL    HW270819   3.429   1.874   5.228 -0.9603  0.1801 -3.2763
22889SOL     OW70820   9.550   4.728   9.532  0.0532 -0.1683  0.1178
22889SOL    HW170821   9.492   4.697   9.463  0.5858  0.9695 -0.8816
22889SOL    HW270822   9.638   4.707   9.501  0.4218  1.9339 -0.4622
22890SOL     OW70823   9.326   0.765   1.784  0.9050 -0.4941  0.1430
22890SOL    HW170824   9.370   0.850   1.781 -2.4597  1.3784 -0.5844
22890SOL    HW270825   9.287   0.761   1.872 -3.3782  1.3832 -1.4040
22891SOL     OW70826   1.354   8.532   1.528  0.4721  0.3853 -0.0131
22891SOL    HW170827   1.361   8.626   1.512 -1.2147  0.2443 -1.9754
22891SOL    HW270828   1.267   8.519   1.563  0.1024 -0.5649 -1.1921
22892SOL     OW70829   2.498   7.223   7.820  0.0501  0.0746 -0.3956
22892SOL    HW170830   2.483   7.298   7.877  1.6697  0.7024 -0.7317
22892SOL    HW270831   2.591   7.228   7.799 -0.2924 -0.7419 -2.2535
22893SOL     OW70832   2.124   1.942   1.679  0.2467  0.0377 -0.4835
22893SOL    HW170833   2.101   2.035   1.675  0.2645  0.0614 -0.0569
22893SOL    HW270834   2.177   1.927   1.601  0.0698  0.3382 -0.6635
22894SOL     OW70835   2.548   1.307   3.266 -0.0380  0.1896  0.5768
22894SOL    HW170836   2.589   1.221   3.266 -1.1332 -0.3567 -0.0520
22894SOL    HW270837   2.542   1.330   3.359  1.1952  0.0664  0.7051
22895SOL     OW70838   1.294   7.163   4.542  0.4982 -0.4639  0.3169
22895SOL    HW170839   1.387   7.180   4.525  0.2339  0.4750 -0.2536
22895SOL    HW270840   1.271   7.225   4.612 -0.2222  0.8997 -1.0668
22896SOL     OW70841   6.117   1.610   5.348  0.4624 -0.5931  0.7720
22896SOL    HW170842   6.024   1.601   5.368 -0.3001  1.3513 -1.4187
22896SOL    HW270843   6.153   1.659   5.422 -1.3148  2.5964 -0.2679
22897SOL     OW70844   1.961   2.083   2.777 -0.2663  0.0098  0.4329
22897SOL    HW170845   1.875   2.121   2.756 -0.0326 -0.6290 -1.9726
22897SOL    HW270846   1.945   2.027   2.852 -2.0443 -0.3650 -0.1789
22898SOL     OW70847   7.174   8.110   3.796 -0.2151  0.0765  0.3504
22898SOL    HW170848   7.238   8.159   3.745  0.6953 -1.2149  0.1993
22898SOL    HW270849   7.123   8.061   3.731 -0.3135 -0.1062  0.5617
22899SOL     OW70850   3.921   7.036   0.298 -0.1357 -0.1048 -0.1632
22899SOL    HW170851   3.934   6.942   0.290 -1.2304 -0.3769  0.9835
22899SOL    HW270852   3.997   7.066   0.349  0.4020 -0.2874 -0.8361
22900SOL     OW70853   4.779   3.252   1.035 -0.1183  0.3612  0.2863
22900SOL    HW170854   4.844   3.183   1.022  0.4843  0.9426  0.1079
22900SOL    HW270855   4.814   3.304   1.108 -0.9411  0.0490  0.9153
22901SOL     OW70856   9.361   3.945   8.339  0.2193  0.2813 -0.1978
22901SOL    HW170857   9.353   3.849   8.337 -0.4124  0.2874  1.0913
22901SOL    HW270858   9.303   3.976   8.269 -0.3061 -0.2486 -0.0065
22902SOL     OW70859   3.306   5.019   4.610 -0.0595 -0.5021  0.4026
22902SOL    HW170860   3.362   5.095   4.625 -2.4734  1.1250  1.9936
22902SOL    HW270861   3.305   4.973   4.693 -0.1339 -1.1811  0.0306
22903SOL     OW70862   5.086   5.864   3.477 -0.3329 -0.2909  0.3320
22903SOL    HW170863   5.109   5.807   3.551 -2.7974 -1.4487  0.3065
22903SOL    HW270864   5.040   5.806   3.416 -1.7629  1.4503 -0.3157
22904SOL     OW70865   2.385   5.630   5.658 -0.2886 -0.1260  0.0138
22904SOL    HW170866   2.358   5.539   5.649  0.4405 -0.6504  2.3670
22904SOL    HW270867   2.307   5.676   5.690 -0.8277  0.2384 -1.7463
22905SOL     OW70868   7.124   8.190   4.155 -0.2658 -0.5153  0.1632
22905SOL    HW170869   7.049   8.170   4.098 -0.4889 -1.0334  0.6252
22905SOL    HW270870   7.200   8.175   4.100 -0.4927 -0.3666 -0.1977
22906SOL     OW70871   6.021   2.821   7.036 -0.2256  0.0831  0.5300
22906SOL    HW170872   6.066   2.876   7.100  1.9909 -1.2533  0.2167
22906SOL    HW270873   6.021   2.734   7.075 -0.8006 -0.3361 -0.3666
22907SOL     OW70874   5.171   1.315   1.157  0.2878 -0.4761 -0.0345
22907SOL    HW170875   5.142   1.380   1.221  1.1359 -0.3497  0.2252
22907SOL    HW270876   5.181   1.364   1.075 -3.0721 -1.0431 -0.9448
22908SOL     OW70877   6.754   7.115   6.013 -0.3031  0.7088  0.6268
22908SOL    HW170878   6.658   7.117   6.014 -0.3558  0.5294  3.0623
22908SOL    HW270879   6.778   7.130   5.922 -2.6940 -2.2173 -0.6494
22909SOL     OW70880   8.949   8.142   6.727  0.0174  0.2689  0.3867
22909SOL    HW170881   9.021   8.081   6.715 -0.2546  0.2269 -1.3701
22909SOL    HW270882   8.889   8.123   6.654  0.2449  3.0477 -0.6324
22910SOL     OW70883   0.731   0.165   2.945 -0.0209 -0.9365  0.1029
22910SOL    HW170884   0.746   0.090   3.001  0.7353  1.6849  3.7353
22910SOL    HW270885   0.815   0.211   2.941 -1.0668  1.1411  0.3405
22911SOL     OW70886   4.631   3.589   2.504 -0.2806  0.1215 -0.2429
22911SOL    HW170887   4.609   3.653   2.572  0.2643  0.2706 -0.2001
22911SOL    HW270888   4.629   3.505   2.550 -0.1997  0.1925 -0.1051
22912SOL     OW70889   3.425   0.282   2.330  0.4109  0.0173  0.3492
22912SOL    HW170890   3.422   0.370   2.291 -0.3258  0.5995  1.6739
22912SOL    HW270891   3.508   0.280   2.378  2.0175 -1.1983 -2.2569
22913SOL     OW70892   7.214   7.017   7.914  0.6937  1.0046  0.5852
22913SOL    HW170893   7.213   7.113   7.907  0.4741  1.2573  3.2605
22913SOL    HW270894   7.297   6.996   7.957  1.5595 -0.2183 -1.5215
22914SOL     OW70895   9.468   3.409   5.224  0.0234  0.1743  0.6555
22914SOL    HW170896   9.550   3.447   5.255 -0.9442  2.8584  0.1809
22914SOL    HW270897   9.470   3.422   5.129 -0.3485 -1.1217  0.4427
22915SOL     OW70898   1.102   5.055   2.872 -0.2771 -0.5868 -0.2349
22915SOL    HW170899   1.119   5.033   2.963 -1.8668  0.8556  0.4729
22915SOL    HW270900   1.038   4.990   2.843 -2.8465  1.2142  0.9960
22916SOL     OW70901   1.153   6.348   4.884  0.4556 -0.1386 -0.2824
22916SOL    HW170902   1.102   6.406   4.827  0.6445 -0.5982 -0.9389
22916SOL    HW270903   1.090   6.282   4.913 -0.2546  1.4403  2.0614
22917SOL     OW70904   5.409   3.967   6.960 -0.2144  0.2194 -0.1374
22917SOL    HW170905   5.386   4.006   6.875 -1.6045 -0.8092 -0.2691
22917SOL    HW270906   5.325   3.949   7.001  0.4459  0.5336  1.4046
22918SOL     OW70907   7.114   4.246   9.242 -0.0710 -0.0496  0.0722
22918SOL    HW170908   7.096   4.248   9.147 -0.7305 -0.7725  0.1676
22918SOL    HW270909   7.190   4.303   9.253 -1.7215  2.4507 -0.4951
22919SOL     OW70910   7.783   3.971   5.717 -0.1875  0.5859 -0.3549
22919SOL    HW170911   7.819   4.040   5.661  0.6274  0.3758 -0.1050
22919SOL    HW270912   7.788   4.008   5.806  0.5795  0.0796 -0.1790
22920SOL     OW70913   0.806   5.927   1.531 -0.4946  0.5929  0.5002
22920SOL    HW170914   0.863   5.943   1.456  1.2341 -0.6378  1.4736
22920SOL    HW270915   0.764   5.843   1.512  1.3323 -0.6484  1.6289
22921SOL     OW70916   9.062   6.151   0.442 -0.1794  0.4172 -0.0523
22921SOL    HW170917   8.981   6.117   0.480 -0.6675 -0.7247 -1.9829
22921SOL    HW270918   9.098   6.077   0.393  1.0078  1.4974 -0.8651
22922SOL     OW70919   8.985   2.036   3.378 -0.1155 -0.0748  0.3517
22922SOL    HW170920   9.024   2.085   3.451  0.9130 -2.0379  1.2107
22922SOL    HW270921   9.002   2.090   3.301  1.8461  0.4814  1.1024
22923SOL     OW70922   3.145   6.436   7.070  0.1230 -0.1640  0.4843
22923SOL    HW170923   3.103   6.364   7.118 -1.5272  0.3277 -0.1541
22923SOL    HW270924   3.239   6.424   7.086 -0.2221 -1.4874  1.7338
22924SOL     OW70925   5.476   3.148   6.087  0.0268 -0.1235  0.0817
22924SOL    HW170926   5.553   3.096   6.108  0.6348  0.6036 -0.2970
22924SOL    HW270927   5.507   3.212   6.023 -1.3019 -0.9467 -1.4378
22925SOL     OW70928   3.431   6.362   0.983  0.5173  0.0504 -0.4331
22925SOL    HW170929   3.461   6.426   0.918  2.1073 -0.8643 -0.6371
22925SOL    HW270930   3.358   6.317   0.939 -0.0683  1.1131 -0.6008
22926SOL     OW70931   7.421   7.782   4.708 -0.6906  0.1354  0.1101
22926SOL    HW170932   7.349   7.825   4.753 -0.9398  0.8448 -0.9328
22926SOL    HW270933   7.472   7.854   4.670 -1.2017 -0.4655 -1.8124
22927SOL     OW70934   1.155   0.298   4.906  0.2085 -0.3889 -0.3832
22927SOL    HW170935   1.130   0.333   4.991  1.9814  0.9061 -0.3454
22927SOL    HW270936   1.205   0.368   4.865  0.3814 -1.4243 -2.0244
22928SOL     OW70937   2.208   6.528   8.854 -0.5928  0.3871  0.2118
22928SOL    HW170938   2.169   6.608   8.818  0.6519  0.8535 -0.1574
22928SOL    HW270939   2.252   6.487   8.779 -0.4802 -0.1827  0.5858
22929SOL     OW70940   6.839   6.778   2.741 -0.1557  0.0280 -0.2573
22929SOL    HW170941   6.856   6.872   2.733 -0.5104 -0.0083 -1.5496
22929SOL    HW270942   6.769   6.771   2.806 -0.3586  0.6834 -0.4029
22930SOL     OW70943   8.644   2.572   0.010  0.2736  0.4542 -0.1588
22930SOL    HW170944   8.560   2.543  -0.026  0.0336  0.7277  0.1836
22930SOL    HW270945   8.706   2.504  -0.018 -0.1653 -0.0570  0.0822
22931SOL     OW70946   3.754   1.903   5.408  0.5749  0.5192 -0.2429
22931SOL    HW170947   3.749   1.899   5.313 -0.5772  1.5998 -0.2581
22931SOL    HW270948   3.684   1.845   5.439  1.0542  0.0399 -0.0430
22932SOL     OW70949   2.678   3.962   2.887 -0.0731  0.1199 -0.1517
22932SOL    HW170950   2.635   3.989   2.806  1.0116 -2.2610 -1.6344
22932SOL    HW270951   2.770   3.985   2.875 -0.0725  0.7459  0.9039
22933SOL     OW70952   4.417   8.173   1.075 -0.0417  0.2419  0.0972
22933SOL    HW170953   4.398   8.112   1.005 -1.0624  0.2648  0.3455
22933SOL    HW270954   4.477   8.237   1.036 -0.6430  0.2859 -0.7622
22934SOL     OW70955   9.314   9.355   3.185  0.0723 -0.6339 -0.4402
22934SOL    HW170956   9.334   9.269   3.223  0.3845  0.2477  1.4778
22934SOL    HW270957   9.295   9.411   3.260 -0.7554  0.8429 -1.6911
22935SOL     OW70958   0.735   2.440   7.633 -0.1165  0.3802 -0.0192
22935SOL    HW170959   0.710   2.402   7.549  0.9262  1.7968 -1.0065
22935SOL    HW270960   0.747   2.533   7.615  0.6486  0.6265  1.5909
22936SOL     OW70961   4.388   0.712   0.486  0.9787  0.4679  0.6248
22936SOL    HW170962   4.480   0.692   0.467  0.8651 -0.6258  1.1166
22936SOL    HW270963   4.345   0.626   0.484 -0.2755  1.0955 -0.8092
22937SOL     OW70964   8.799   7.348   8.813  0.1298  0.1017  0.1215
22937SOL    HW170965   8.861   7.411   8.776 -0.7275  1.3440  0.7518
22937SOL    HW270966   8.814   7.268   8.763  1.3756  0.7398 -0.5703
22938SOL     OW70967   2.432   4.512   0.129  0.4850  0.1234 -0.2385
22938SOL    HW170968   2.481   4.593   0.144 -0.5888  0.6235  0.7104
22938SOL    HW270969   2.491   4.458   0.076  2.4757  0.2935  1.6547
22939SOL     OW70970   4.772   6.157   6.025 -0.0056  0.3316  0.1027
22939SOL    HW170971   4.712   6.198   6.088  0.0041 -0.7327  0.8287
22939SOL    HW270972   4.859   6.178   6.058  0.0547  1.7960 -0.8992
22940SOL     OW70973   7.312   3.777   6.730 -0.4612  0.5331 -0.3335
22940SOL    HW170974   7.254   3.852   6.716 -0.2354  0.7489 -0.1178
22940SOL    HW270975   7.272   3.706   6.679 -0.1799  1.0415 -1.2818
22941SOL     OW70976   7.141   5.543   3.196 -0.4429 -0.0444 -0.5348
22941SOL    HW170977   7.219   5.564   3.145 -1.0818  0.4004 -1.3645
22941SOL    HW270978   7.170   5.547   3.287  0.6360 -0.4732 -0.8383
22942SOL     OW70979   8.287   0.852   4.885  0.7009 -0.0428  0.0732
22942SOL    HW170980   8.361   0.903   4.918  0.0067  0.6518  0.5966
22942SOL    HW270981   8.266   0.792   4.956 -0.5354  1.1769  0.7968
22943SOL     OW70982   5.258   8.951   8.554  0.4106  0.7952 -0.1064
22943SOL    HW170983   5.249   9.014   8.483 -0.5099  2.7246  1.6366
22943SOL    HW270984   5.172   8.911   8.561  0.8006 -0.2018 -0.7380
22944SOL     OW70985   2.456   9.091   5.479  0.2006  0.1773 -0.4137
22944SOL    HW170986   2.501   9.165   5.439  0.5800 -0.2269 -0.7404
22944SOL    HW270987   2.508   9.014   5.455 -0.7928 -0.3335 -1.0209
22945SOL     OW70988   6.233   8.155   4.951  0.5788  0.7162  0.2042
22945SOL    HW170989   6.239   8.085   4.886 -0.2476  0.6605  0.1694
22945SOL    HW270990   6.279   8.121   5.027  1.8306  0.9077 -0.4450
22946SOL     OW70991   7.537   3.234   1.884  0.2348  0.6943  0.1042
22946SOL    HW170992   7.544   3.280   1.800 -0.1606 -0.6279 -0.6719
22946SOL    HW270993   7.446   3.205   1.888  0.3780  0.3190  0.7680
22947SOL     OW70994   2.247   0.972   0.976 -0.3234  0.0656 -0.5055
22947SOL    HW170995   2.228   1.040   0.911  0.0440  0.0562 -0.6268
22947SOL    HW270996   2.316   0.919   0.935 -0.7582 -0.5061 -0.5013
22948SOL     OW70997   5.056   8.578   1.717  0.0462  0.1465 -0.0948
22948SOL    HW170998   5.148   8.587   1.739  1.0746 -1.2423 -3.2492
22948SOL    HW270999   5.047   8.487   1.688 -1.7450  0.8582 -2.0009
22949SOL     OW71000   4.133   5.271   7.267  0.2330  0.0549  0.0239
22949SOL    HW171001   4.210   5.218   7.248  0.3140  0.2585 -0.2154
22949SOL    HW271002   4.142   5.292   7.360  0.3985 -0.0323  0.0284
22950SOL     OW71003   5.402   0.919   7.082  0.0921  0.2005 -0.5570
22950SOL    HW171004   5.355   0.915   6.999 -3.4297 -5.2496  1.1417
22950SOL    HW271005   5.477   0.860   7.070 -0.8734 -1.2448  0.1745
22951SOL     OW71006   4.783   3.871   5.921 -0.6326 -0.0422 -0.0280
22951SOL    HW171007   4.861   3.818   5.933 -0.4717  0.3912  0.9918
22951SOL    HW271008   4.737   3.831   5.847  0.5120 -0.3410 -0.5968
22952SOL     OW71009   2.389   7.440   5.546  0.0199 -0.1860  1.4588
22952SOL    HW171010   2.401   7.366   5.606 -1.7017  0.1136  2.2549
22952SOL    HW271011   2.395   7.402   5.459  0.4244 -1.0374  1.8476
22953SOL     OW71012   7.847   4.778   1.643 -0.2682 -0.4607 -0.5792
22953SOL    HW171013   7.878   4.779   1.734  0.6433  2.5247 -0.8319
22953SOL    HW271014   7.777   4.843   1.640 -0.5722 -0.8116 -1.9568
22954SOL     OW71015   1.921   5.233   9.393 -0.1312 -0.0942  0.4023
22954SOL    HW171016   1.961   5.284   9.323 -1.1168 -0.1105 -0.1957
22954SOL    HW271017   1.850   5.184   9.350 -0.7003 -0.1685  1.3865
22955SOL     OW71018   3.284   2.271   3.563 -0.3348 -0.0113  0.2993
22955SOL    HW171019   3.270   2.179   3.585  1.8217 -0.2748  0.7824
22955SOL    HW271020   3.292   2.315   3.648  0.6211  0.2533  0.0936
22956SOL     OW71021   6.095   0.154   7.792 -0.1845 -0.0346  0.5796
22956SOL    HW171022   6.082   0.205   7.713 -0.9519  0.0796  0.7758
22956SOL    HW271023   6.106   0.064   7.761  0.7118  0.1658  0.2699
22957SOL     OW71024   7.263   6.279   0.990 -0.1536  0.1691 -0.3816
22957SOL    HW171025   7.234   6.244   0.906 -1.3308  1.3588 -0.5078
22957SOL    HW271026   7.358   6.285   0.982 -0.1676 -0.6418 -1.2625
22958SOL     OW71027   6.396   2.357   0.926  0.3249 -0.3128  0.2948
22958SOL    HW171028   6.478   2.306   0.929  1.1497  0.8822 -0.7896
22958SOL    HW271029   6.425   2.448   0.916 -1.1241  0.3924  1.9901
22959SOL     OW71030   6.296   6.270   6.292  0.2629  0.2035  0.4111
22959SOL    HW171031   6.275   6.344   6.235 -0.6287  0.5436  1.1489
22959SOL    HW271032   6.377   6.234   6.256  0.8612  1.6880  0.1741
22960SOL     OW71033   8.544   5.147   4.205 -0.1557 -0.0783 -0.3146
22960SOL    HW171034   8.603   5.159   4.131  0.3018 -3.1567 -0.5681
22960SOL    HW271035   8.597   5.167   4.282  0.2607  0.2348 -0.6751
22961SOL     OW71036   3.893   7.927   3.364  0.0977 -0.3911  0.0597
22961SOL    HW171037   3.799   7.934   3.347  0.2483 -0.4453 -0.8491
22961SOL    HW271038   3.899   7.910   3.458 -0.9011 -2.4363 -0.2021
22962SOL     OW71039   6.501   7.942   0.564  0.4942  0.3383  0.8106
22962SOL    HW171040   6.544   8.027   0.558  1.4127 -0.1920 -0.5088
22962SOL    HW271041   6.558   7.891   0.622 -0.1080  0.6389  1.6808
22963SOL     OW71042   9.051   1.016   3.905  0.3264  0.0984 -0.0706
22963SOL    HW171043   9.054   0.939   3.961 -2.7753 -1.2811 -1.5738
22963SOL    HW271044   9.085   1.087   3.960  0.0415 -1.6840  2.5804
22964SOL     OW71045   0.596   6.698   1.832 -0.2001  0.1093 -0.4202
22964SOL    HW171046   0.528   6.765   1.839  0.1114  0.4288 -0.4279
22964SOL    HW271047   0.678   6.746   1.841  0.0058 -0.3956  0.5037
22965SOL     OW71048   3.393   5.646   4.702  0.5319  0.0370  0.5856
22965SOL    HW171049   3.481   5.678   4.724  0.2900  2.0362 -1.0329
22965SOL    HW271050   3.356   5.619   4.786  1.8383  1.4880  1.6939
22966SOL     OW71051   7.611   6.329   0.287 -0.2664 -0.0959 -0.1382
22966SOL    HW171052   7.638   6.237   0.299  0.2833 -0.0653 -1.0328
22966SOL    HW271053   7.522   6.332   0.323 -0.0119 -0.7958  0.6029
22967SOL     OW71054   3.611   8.458   5.091  0.5560  0.0163  0.3532
22967SOL    HW171055   3.632   8.485   5.002 -0.1128  0.3689  0.2973
22967SOL    HW271056   3.678   8.499   5.145  1.0572 -0.3236  0.0009
22968SOL     OW71057   8.028   5.042   5.164  0.4545  0.4686 -0.9100
22968SOL    HW171058   8.113   5.028   5.207 -0.7477 -0.1970  1.3896
22968SOL    HW271059   7.987   5.113   5.213 -0.7761  0.0414 -1.2924
22969SOL     OW71060   7.694   3.909   0.937 -0.8522 -0.1275 -0.1107
22969SOL    HW171061   7.788   3.922   0.951 -0.3953 -1.9221 -1.1511
22969SOL    HW271062   7.677   3.945   0.850 -1.3304  0.9180  0.3942
22970SOL     OW71063   1.698   7.182   6.099  0.6549 -0.4142 -0.5818
22970SOL    HW171064   1.660   7.104   6.139  0.6765 -0.2941 -0.3206
22970SOL    HW271065   1.632   7.212   6.037  0.1630 -0.0125  0.1129
22971SOL     OW71066   4.031   2.032   0.614 -0.0486  0.2713 -0.0430
22971SOL    HW171067   3.966   1.984   0.666 -0.5451  1.9796  1.0293
22971SOL    HW271068   4.103   2.047   0.675  1.7459 -2.1562 -1.4032
22972SOL     OW71069   5.794   6.303   3.462 -0.0845  0.4763 -0.1761
22972SOL    HW171070   5.756   6.381   3.503  2.1310  1.3513  0.3569
22972SOL    HW271071   5.733   6.281   3.393 -1.9448  1.3121  1.1049
22973SOL     OW71072   8.411   6.278   0.194 -0.3420 -0.5821 -0.1261
22973SOL    HW171073   8.391   6.219   0.122 -0.8314  0.0303 -0.4945
22973SOL    HW271074   8.484   6.236   0.240 -0.5372 -1.3530 -0.5205
22974SOL     OW71075   1.458   5.088   7.707  0.2885  0.3372  0.5532
22974SOL    HW171076   1.494   5.176   7.717 -0.3403  0.5620  0.8521
22974SOL    HW271077   1.369   5.102   7.677  1.0287 -0.2458 -2.1640
22975SOL     OW71078   4.800   8.434   4.353 -0.3754  0.3290  0.2267
22975SOL    HW171079   4.762   8.399   4.273 -2.3211  0.9365  0.8154
22975SOL    HW271080   4.827   8.358   4.403  0.1782 -0.0826 -0.6859
22976SOL     OW71081   9.203   8.676   5.136  0.3855  0.3280  0.0340
22976SOL    HW171082   9.156   8.602   5.175  3.1669 -1.0064  1.0938
22976SOL    HW271083   9.246   8.718   5.210  0.1217  2.1006 -0.7710
22977SOL     OW71084   8.783   0.352   2.833  0.4566 -0.6904 -0.1972
22977SOL    HW171085   8.849   0.285   2.815  1.3853 -0.0214  0.6093
22977SOL    HW271086   8.829   0.418   2.884 -0.7226  0.0415 -0.0369
22978SOL     OW71087   1.352   9.151   3.476 -0.3567  0.1684  0.4074
22978SOL    HW171088   1.436   9.132   3.518 -0.0419  2.1340  0.7569
22978SOL    HW271089   1.362   9.120   3.386  0.2504 -0.8343  0.8064
22979SOL     OW71090   0.417   4.655   2.292  0.1746  0.2100  0.4139
22979SOL    HW171091   0.448   4.728   2.346 -1.4614  1.1471  0.1492
22979SOL    HW271092   0.333   4.685   2.257 -1.3311 -2.3728  1.5102
22980SOL     OW71093   5.287   2.823   8.349 -0.3365  0.0475 -0.0180
22980SOL    HW171094   5.339   2.900   8.374 -0.9000  0.0463  1.2539
22980SOL    HW271095   5.343   2.749   8.373  0.4129  0.0375 -1.7030
22981SOL     OW71096   4.408   2.671   3.698  0.7234 -0.3834  1.0177
22981SOL    HW171097   4.473   2.727   3.741 -0.8669  2.2955  0.1494
22981SOL    HW271098   4.451   2.641   3.618  0.5860  2.4613 -0.2423
22982SOL     OW71099   5.501   8.886   1.312 -0.0324 -0.1919  0.2696
22982SOL    HW171100   5.552   8.807   1.328  0.1941 -0.1908 -0.4048
22982SOL    HW271101   5.524   8.912   1.223 -1.5569 -0.4530 -0.2310
22983SOL     OW71102   8.953   3.584   0.044 -0.0372 -0.4986  0.0129
22983SOL    HW171103   8.948   3.492   0.070 -0.4975 -0.8443 -1.2147
22983SOL    HW271104   8.978   3.581  -0.049 -0.4115  0.5986 -0.1392
22984SOL     OW71105   8.287   1.719   0.713  0.0788  0.5115  0.2610
22984SOL    HW171106   8.206   1.669   0.705 -1.0720  2.5735 -2.0993
22984SOL    HW271107   8.295   1.737   0.807 -1.5796 -0.6572  0.6750
22985SOL     OW71108   4.155   0.849   3.364 -0.9628  0.0935 -0.1859
22985SOL    HW171109   4.215   0.820   3.295  0.0974 -0.5441  0.9780
22985SOL    HW271110   4.206   0.844   3.444 -1.6236  2.4808  0.4633
22986SOL     OW71111   0.276   5.540   8.828 -0.0509 -0.0272 -0.0962
22986SOL    HW171112   0.316   5.517   8.912  0.7674 -0.4799 -0.5972
22986SOL    HW271113   0.198   5.590   8.851 -0.7681 -1.5667  0.9972
22987SOL     OW71114   3.740   9.119   3.585 -0.2272  0.0849  0.3714
22987SOL    HW171115   3.663   9.171   3.608  0.6915  1.8125 -0.3336
22987SOL    HW271116   3.778   9.093   3.670 -1.8345 -1.2814  0.7393
22988SOL     OW71117   8.892   8.494   2.781 -0.2253 -0.3509  0.1616
22988SOL    HW171118   8.800   8.478   2.759 -0.1696  2.0291 -2.3356
22988SOL    HW271119   8.939   8.420   2.742 -0.9549 -0.6426 -0.1875
22989SOL     OW71120   5.887   2.917   7.335 -0.6680  0.2846 -0.1471
22989SOL    HW171121   5.982   2.913   7.334 -0.5318  2.3385 -0.1275
22989SOL    HW271122   5.859   2.826   7.344  1.3126 -0.2153  1.8376
22990SOL     OW71123   9.080   6.016   4.652  0.1748  0.8455  0.7078
22990SOL    HW171124   9.134   6.012   4.732  1.1372  0.0788  0.0384
22990SOL    HW271125   9.062   5.925   4.631  0.8717  0.9835 -0.5639
22991SOL     OW71126   6.322   7.758   0.466  0.1896 -0.2482  0.2957
22991SOL    HW171127   6.284   7.806   0.393  0.5369  1.2929  1.0888
22991SOL    HW271128   6.395   7.812   0.495  0.9631 -1.5495  0.8730
22992SOL     OW71129   0.360   5.772   4.097 -0.4792 -0.6149 -0.1004
22992SOL    HW171130   0.334   5.714   4.025 -1.0373 -1.1041  0.4926
22992SOL    HW271131   0.435   5.728   4.137 -0.3210 -0.4633 -0.2287
22993SOL     OW71132   1.484   2.699   3.507 -0.2461 -0.0997 -0.3378
22993SOL    HW171133   1.431   2.777   3.491 -1.1664 -0.6099  0.1240
22993SOL    HW271134   1.470   2.679   3.600 -0.2658 -0.9730 -0.5160
22994SOL     OW71135   7.348   5.967   5.023 -0.0529 -0.6103 -0.0741
22994SOL    HW171136   7.388   5.892   5.067  0.4056 -1.4427 -1.8079
22994SOL    HW271137   7.255   5.960   5.043  0.0083 -1.5654 -0.0920
22995SOL     OW71138   1.723   9.106   9.027  0.2230 -0.3049  0.4252
22995SOL    HW171139   1.651   9.154   8.985  1.1427  0.7068 -0.0624
22995SOL    HW271140   1.764   9.058   8.956  1.4103  0.9282  0.2437
22996SOL     OW71141   1.437   6.856   8.408 -0.4965 -0.1995  0.2760
22996SOL    HW171142   1.524   6.893   8.424 -0.0978 -1.3089  0.7985
22996SOL    HW271143   1.378   6.932   8.406  0.5352  0.6088 -0.5281
22997SOL     OW71144   7.371   0.816   4.850 -0.3243 -0.1942  0.2841
22997SOL    HW171145   7.312   0.787   4.781 -0.9780 -0.2558  0.8552
22997SOL    HW271146   7.406   0.899   4.818  0.6335 -0.9820 -0.8238
22998SOL     OW71147   0.439   1.047   2.555 -0.1199  0.1278  0.2251
22998SOL    HW171148   0.442   1.117   2.489 -0.1264  1.1669  1.3055
22998SOL    HW271149   0.353   1.007   2.542 -0.2870  0.5851 -0.1255
22999SOL     OW71150   0.750   3.158   1.878 -0.0093 -0.8514 -0.2921
22999SOL    HW171151   0.778   3.111   1.957  0.0305  0.0153  0.2240
22999SOL    HW271152   0.662   3.189   1.899 -0.1283 -0.9035 -0.7154
23000SOL     OW71153   2.391   7.995   8.577 -0.3163 -0.1661 -0.5190
23000SOL    HW171154   2.326   7.927   8.595  1.0338 -1.0188  1.5747
23000SOL    HW271155   2.471   7.963   8.620  0.5073  2.5097  0.1113
23001SOL     OW71156   1.381   7.810   7.385  0.5796  0.0150  0.7271
23001SOL    HW171157   1.457   7.862   7.359  0.0274  0.5096  0.0409
23001SOL    HW271158   1.411   7.719   7.379  1.6580  0.2390  2.2865
23002SOL     OW71159   0.080   5.383   3.820 -0.0821 -0.7960  0.1138
23002SOL    HW171160   0.072   5.314   3.886  0.1885  0.2839  1.3195
23002SOL    HW271161  -0.006   5.388   3.779 -0.8095 -0.2519  1.6654
23003SOL     OW71162   2.753   0.828   9.026 -0.0274 -0.4851  0.4873
23003SOL    HW171163   2.801   0.750   8.998 -0.2569  0.1669 -1.9462
23003SOL    HW271164   2.688   0.842   8.957  0.1774  1.9815  0.7114
23004SOL     OW71165   8.022   1.802   8.490 -0.3086 -0.0648  0.0037
23004SOL    HW171166   7.961   1.805   8.417 -0.6205  0.1858  0.2719
23004SOL    HW271167   7.969   1.826   8.567  0.2352  0.6531  0.1671
23005SOL     OW71168   2.181   6.480   3.713 -0.2031 -0.2886  0.4063
23005SOL    HW171169   2.134   6.563   3.724 -0.5401 -0.6227  1.6472
23005SOL    HW271170   2.126   6.415   3.756  0.9942 -0.8339  1.1746
23006SOL     OW71171   4.864   5.059   3.910 -0.1599  0.3658  0.1273
23006SOL    HW171172   4.892   5.057   3.818  2.8711 -0.5094  0.9650
23006SOL    HW271173   4.855   5.153   3.929  0.4015  0.6109 -0.7310
23007SOL     OW71174   2.322   0.381   8.109  0.8433  0.4290 -0.0103
23007SOL    HW171175   2.235   0.378   8.067  1.3328 -0.8495 -0.9959
23007SOL    HW271176   2.381   0.406   8.038  1.4200  0.2821  0.4168
23008SOL     OW71177   1.882   9.121   8.501  0.0541  0.4189  0.4389
23008SOL    HW171178   1.881   9.204   8.547  2.1429  2.4647 -2.7598
23008SOL    HW271179   1.975   9.106   8.480 -0.3334 -2.3949  0.2886
23009SOL     OW71180   6.634   8.454   4.689 -0.4934 -0.0905 -0.6568
23009SOL    HW171181   6.592   8.540   4.696 -0.2018  0.2060 -2.1866
23009SOL    HW271182   6.585   8.398   4.750 -1.7732  0.7519 -0.8686
23010SOL     OW71183   0.168   9.589   7.315  0.4586  0.4020  0.0825
23010SOL    HW171184   0.251   9.551   7.345  0.8594  0.6032 -0.7342
23010SOL    HW271185   0.193   9.649   7.245 -0.5495 -1.1042 -1.6496
23011SOL     OW71186   0.632   5.003   7.010  0.6320  0.0417  0.5109
23011SOL    HW171187   0.718   5.030   7.042  0.7390 -1.4403  1.5439
23011SOL    HW271188   0.618   4.917   7.048 -1.3323  0.2562  0.3635
23012SOL     OW71189   1.409   0.446   3.937 -0.0208 -0.3365 -0.6190
23012SOL    HW171190   1.423   0.538   3.917 -0.5673 -0.1852 -0.3087
23012SOL    HW271191   1.325   0.424   3.897 -0.7309 -0.2415  0.7520
23013SOL     OW71192   2.854   9.268   3.373 -0.6877  0.2785  0.2790
23013SOL    HW171193   2.818   9.265   3.284  0.7430  0.1832 -0.3366
23013SOL    HW271194   2.949   9.272   3.359 -0.3985 -0.5903  1.8197
23014SOL     OW71195   7.776   0.545   3.399  0.2356  0.5746  0.1873
23014SOL    HW171196   7.794   0.594   3.479  0.6427  0.8130 -0.0509
23014SOL    HW271197   7.767   0.454   3.429 -0.9472  0.8248  0.6962
23015SOL     OW71198   8.400   3.491   0.128 -0.5133 -0.5808  0.1387
23015SOL    HW171199   8.405   3.529   0.216 -1.0648  0.2014 -0.1538
23015SOL    HW271200   8.321   3.437   0.131  0.0428 -1.3857  0.4313
23016SOL     OW71201   7.650   8.143   6.306  0.2149 -0.3079  0.6179
23016SOL    HW171202   7.645   8.211   6.240  0.4464  0.3584  1.2803
23016SOL    HW271203   7.558   8.121   6.325  0.1465 -0.3653  0.2265
23017SOL     OW71204   7.805   7.387   7.382 -0.0810  0.0592 -0.2129
23017SOL    HW171205   7.773   7.464   7.429  0.9419  0.9435 -0.9059
23017SOL    HW271206   7.819   7.418   7.293  1.7823 -0.4942 -0.1664
23018SOL     OW71207   7.438   8.645   6.523 -0.3913 -0.0951  0.0278
23018SOL    HW171208   7.360   8.637   6.577  0.1170  0.5044  0.8817
23018SOL    HW271209   7.508   8.605   6.575  0.2556  1.1803  0.1862
23019SOL     OW71210   8.868   9.461   6.380 -0.7606 -0.3855  0.0832
23019SOL    HW171211   8.882   9.367   6.395  2.4532 -0.6607 -3.2544
23019SOL    HW271212   8.944   9.503   6.422 -0.8882  0.4648 -0.5310
23020SOL     OW71213   4.972   1.930   7.690 -0.2151 -0.0006  0.0602
23020SOL    HW171214   4.945   1.840   7.709 -0.4118 -0.1562 -0.8766
23020SOL    HW271215   4.974   1.934   7.594  0.3294  0.8376  0.1011
23021SOL     OW71216   5.741   4.727   8.599  0.1370 -0.2194 -0.0360
23021SOL    HW171217   5.796   4.654   8.571  0.4363 -0.1639  0.3887
23021SOL    HW271218   5.803   4.799   8.613  0.1682 -0.5659  1.8580
23022SOL     OW71219   5.704   0.996   0.119 -0.0177 -0.0895  0.1685
23022SOL    HW171220   5.635   0.939   0.152 -1.0650  0.0826 -1.6206
23022SOL    HW271221   5.659   1.075   0.090  0.7772 -0.3142 -1.8485
23023SOL     OW71222   5.530   3.828   2.797  0.6047 -0.1081  0.6499
23023SOL    HW171223   5.498   3.738   2.797 -0.7205  0.3010 -1.6396
23023SOL    HW271224   5.474   3.873   2.861 -1.3340 -0.1414 -0.9204
23024SOL     OW71225   5.780   1.700   2.599 -0.2542  0.0211 -0.2373
23024SOL    HW171226   5.729   1.779   2.579 -0.7263 -0.2866 -0.2641
23024SOL    HW271227   5.843   1.729   2.665 -0.0647  0.5461 -0.6356
23025SOL     OW71228   7.903   3.911   7.461  0.0296 -0.6878  0.6368
23025SOL    HW171229   7.982   3.896   7.410  0.9541 -1.1813  2.1501
23025SOL    HW271230   7.877   4.001   7.441  1.0477 -0.4812  0.2277
23026SOL     OW71231   8.180   9.464   5.218 -0.8283 -0.1535  0.5486
23026SOL    HW171232   8.187   9.398   5.149 -0.1364  0.3413  0.1216
23026SOL    HW271233   8.171   9.547   5.170  1.8337  0.4810  0.9295
23027SOL     OW71234   8.912   1.887   6.454 -0.1447  0.0270 -0.0451
23027SOL    HW171235   9.001   1.852   6.456  0.0407  0.5218  0.4967
23027SOL    HW271236   8.910   1.943   6.376 -0.5411 -1.3768 -1.1140
23028SOL     OW71237   1.215   6.157   9.036 -0.4745 -0.3733  0.0320
23028SOL    HW171238   1.164   6.216   8.980  1.1165 -0.9803 -2.2081
23028SOL    HW271239   1.296   6.142   8.987  1.9190  0.4969  3.3376
23029SOL     OW71240   5.399   9.041   2.080 -0.8946 -0.1692  0.0990
23029SOL    HW171241   5.328   9.019   2.019 -1.1599  2.0591 -0.4870
23029SOL    HW271242   5.477   9.048   2.025 -0.4622 -1.3002  0.5410
23030SOL     OW71243   3.978   5.412   9.446 -0.0138 -0.2520  0.1786
23030SOL    HW171244   3.944   5.374   9.527  0.2297 -0.2467  0.2852
23030SOL    HW271245   3.908   5.471   9.415 -0.2462 -0.5146  0.2013
23031SOL     OW71246   9.036   3.394   8.697 -0.5160  0.2089 -0.0313
23031SOL    HW171247   9.012   3.351   8.615 -1.6941  0.6228  0.0785
23031SOL    HW271248   8.954   3.402   8.745  0.0605  0.5222  0.9312
23032SOL     OW71249   4.209   3.621   0.853  0.7642 -0.0228  0.7173
23032SOL    HW171250   4.298   3.597   0.881  0.7008 -0.1398  0.8186
23032SOL    HW271251   4.199   3.712   0.881  0.6516 -0.1789  1.1970
23033SOL     OW71252   1.680   5.847   0.983  0.7649 -0.2215 -0.0546
23033SOL    HW171253   1.728   5.930   0.982  0.1835  0.1172 -0.2640
23033SOL    HW271254   1.659   5.830   0.891 -0.7612  0.3736  0.1624
23034SOL     OW71255   5.120   8.940   5.404  0.2440 -0.0600 -0.1282
23034SOL    HW171256   5.154   8.947   5.314 -0.5668  1.3366 -0.3591
23034SOL    HW271257   5.025   8.937   5.393  0.1672 -0.7719  0.6572
23035SOL     OW71258   3.779   4.345   0.578  0.1991 -0.6017  0.1290
23035SOL    HW171259   3.868   4.313   0.570  0.7289  1.0691 -1.4538
23035SOL    HW271260   3.777   4.423   0.522 -1.1078  1.7774  3.2034
23036SOL     OW71261   0.205   6.792   6.622  0.3643 -0.3576 -0.2559
23036SOL    HW171262   0.300   6.789   6.607  0.5644 -0.7210  1.0054
23036SOL    HW271263   0.193   6.862   6.686 -0.3262  0.2158 -0.9793
23037SOL     OW71264   0.019   4.537   3.117  0.1788 -0.1033 -0.4603
23037SOL    HW171265   0.051   4.561   3.030  0.7236 -0.6026 -0.4059
23037SOL    HW271266  -0.003   4.444   3.109 -1.7934  0.3371 -0.6455
23038SOL     OW71267   5.819   7.859   2.714  0.4327 -0.0496 -1.0338
23038SOL    HW171268   5.822   7.939   2.767  1.7630 -0.7746  0.0584
23038SOL    HW271269   5.738   7.816   2.741  1.1668 -0.4901  0.6365
23039SOL     OW71270   9.204   4.321   0.222  0.1022 -0.6730  0.0202
23039SOL    HW171271   9.204   4.242   0.168  0.2535  0.7414 -2.1365
23039SOL    HW271272   9.295   4.350   0.223 -0.1502  0.1613 -0.2685
23040SOL     OW71273   2.894   6.052   6.855  0.2008  0.7285 -0.0647
23040SOL    HW171274   2.842   6.043   6.775  0.6749 -0.4701 -0.2572
23040SOL    HW271275   2.878   6.141   6.884  1.0941  1.6732 -2.2567
23041SOL     OW71276   5.378   0.242   0.986 -0.3171 -0.2812  0.0372
23041SOL    HW171277   5.471   0.218   0.991 -0.4051 -0.5135  0.5844
23041SOL    HW271278   5.370   0.320   1.041 -0.5823 -0.6850  0.5788
23042SOL     OW71279   7.957   0.265   3.913  0.2696 -0.0546  0.5810
23042SOL    HW171280   8.001   0.340   3.873  0.2928  0.1365  0.9654
23042SOL    HW271281   7.878   0.301   3.953  0.7640 -0.0658  1.5990
23043SOL     OW71282   0.197   2.623   8.601  0.0527 -0.1165 -0.0745
23043SOL    HW171283   0.275   2.636   8.547  0.6408 -1.2284  0.4723
23043SOL    HW271284   0.169   2.534   8.581 -0.3617 -0.1522  0.6318
23044SOL     OW71285   7.915   8.063   4.506  0.3744 -0.2126  0.0103
23044SOL    HW171286   7.892   8.151   4.535  2.6359  0.5016 -0.1531
23044SOL    HW271287   7.878   8.005   4.573  0.5709  1.0027  1.2069
23045SOL     OW71288   6.613   3.453   4.086 -0.5833 -0.0894  0.1982
23045SOL    HW171289   6.648   3.370   4.119  1.9296  0.5555 -0.6525
23045SOL    HW271290   6.531   3.428   4.042  0.8322 -2.4272 -1.3677
23046SOL     OW71291   8.403   1.653   2.734  0.1448 -0.3908  0.0850
23046SOL    HW171292   8.311   1.626   2.727 -0.3581  1.0290  0.8378
23046SOL    HW271293   8.410   1.732   2.680  0.8237 -0.2527  0.3611
23047SOL     OW71294   8.009   2.260   2.720 -1.2402  0.5923  0.4660
23047SOL    HW171295   8.083   2.201   2.731 -1.5517  0.3387  1.2580
23047SOL    HW271296   7.968   2.232   2.638 -1.7368 -0.6900  1.1313
23048SOL     OW71297   5.573   6.505   0.179 -0.3512 -0.2145 -0.2575
23048SOL    HW171298   5.602   6.435   0.120  1.1134 -0.8625  1.1532
23048SOL    HW271299   5.576   6.466   0.266  0.9251  1.6908  0.6216
23049SOL     OW71300   4.586   6.131   8.958  0.0757 -0.1817  0.5113
23049SOL    HW171301   4.543   6.162   9.038  0.4118  3.5154 -0.5604
23049SOL    HW271302   4.529   6.061   8.926  0.1976 -2.1795  4.1369
23050SOL     OW71303   0.840   6.115   2.017 -0.1592  0.2298  0.1392
23050SOL    HW171304   0.802   6.030   1.995 -1.8409  1.1272 -0.5466
23050SOL    HW271305   0.852   6.159   1.933  0.9753  0.5686  0.4655
23051SOL     OW71306   4.181   4.984   1.533  0.1419 -0.0882 -0.0705
23051SOL    HW171307   4.094   4.951   1.514 -0.1100  0.4481  0.1277
23051SOL    HW271308   4.180   5.075   1.501  1.2438 -0.6559 -1.8751
23052SOL     OW71309   6.751   5.177   6.414  0.3138 -0.2433  0.2499
23052SOL    HW171310   6.661   5.208   6.413  0.2478 -0.3725  1.1313
23052SOL    HW271311   6.784   5.195   6.326 -1.3473 -2.4972 -0.9321
23053SOL     OW71312   2.316   6.174   6.866 -0.3882 -0.4877  0.0435
23053SOL    HW171313   2.335   6.268   6.870  2.8344 -1.0720  1.5067
23053SOL    HW271314   2.275   6.162   6.780 -1.4594  2.2980  0.0549
23054SOL     OW71315   4.912   3.108   8.045 -0.1452  0.4961 -0.1477
23054SOL    HW171316   4.987   3.121   7.987  0.4534 -3.3810 -0.5287
23054SOL    HW271317   4.946   3.054   8.117 -2.2285 -0.1445  0.4306
23055SOL     OW71318   6.550   1.216   5.771 -0.5543 -0.6689  0.1461
23055SOL    HW171319   6.554   1.255   5.684  0.1682  1.2509  0.9864
23055SOL    HW271320   6.478   1.154   5.766 -0.9327 -0.1393 -1.6360
23056SOL     OW71321   4.195   0.068   3.797  0.4344 -0.0612  0.0922
23056SOL    HW171322   4.124   0.109   3.845 -0.0341  0.3312 -0.9059
23056SOL    HW271323   4.153  -0.001   3.746  0.9627 -0.6582  0.4596
23057SOL     OW71324   5.462   4.356   4.652  0.2967  0.2508  0.1332
23057SOL    HW171325   5.513   4.288   4.608 -0.9861 -0.2744 -0.5928
23057SOL    HW271326   5.453   4.426   4.587 -0.8877 -0.1692 -0.1864
23058SOL     OW71327   1.177   3.473   0.411  0.0177 -0.2832  0.0237
23058SOL    HW171328   1.221   3.391   0.435 -0.2396 -0.4578 -0.0974
23058SOL    HW271329   1.195   3.482   0.317  0.6477  0.1689  0.1794
23059SOL     OW71330   1.977   1.100   3.537 -0.0166  0.5301  0.6241
23059SOL    HW171331   2.070   1.100   3.513 -0.1715 -1.0066 -0.1032
23059SOL    HW271332   1.931   1.094   3.453 -0.7063 -0.5472  1.0587
23060SOL     OW71333   5.195   2.321   2.051 -0.1782  0.7516 -0.0298
23060SOL    HW171334   5.262   2.296   2.115  1.6107  1.2204 -1.6425
23060SOL    HW271335   5.131   2.370   2.102  1.1922  1.1408  1.4013
23061SOL     OW71336   6.667   8.677   7.791  0.0962  0.0081  0.3217
23061SOL    HW171337   6.621   8.644   7.869 -0.1617 -0.2473  0.0641
23061SOL    HW271338   6.606   8.661   7.719  0.2869  0.3547  0.0849
23062SOL     OW71339   3.852   7.338   2.854 -1.1340  0.2618  0.2528
23062SOL    HW171340   3.889   7.260   2.895 -2.5392 -0.5347  0.0991
23062SOL    HW271341   3.843   7.401   2.925  1.9117  1.1001  0.0128
23063SOL     OW71342   6.840   2.321   6.420 -0.7605  0.2617 -0.5383
23063SOL    HW171343   6.828   2.413   6.440 -0.1444  0.1227  0.5601
23063SOL    HW271344   6.754   2.291   6.389 -0.9481  1.2002 -0.9428
23064SOL     OW71345   0.728   4.809   7.763  0.2961 -0.4572  0.1345
23064SOL    HW171346   0.749   4.808   7.856 -0.0821  0.0061  0.2216
23064SOL    HW271347   0.688   4.723   7.747 -0.8554 -0.0400  0.6737
23065SOL     OW71348   3.052   2.744   1.517 -0.3145 -0.1907  0.2803
23065SOL    HW171349   3.074   2.754   1.424 -1.6041  1.0499  0.0817
23065SOL    HW271350   3.103   2.811   1.561  0.3380 -0.8141  0.4979
23066SOL     OW71351   7.223   8.719   4.849 -0.4175  0.3251  0.0896
23066SOL    HW171352   7.271   8.727   4.766 -0.9407 -2.7325 -0.6145
23066SOL    HW271353   7.174   8.638   4.841  0.5065 -0.8177  3.8929
23067SOL     OW71354   2.315   8.697   8.988 -0.1583 -0.0514 -0.7135
23067SOL    HW171355   2.377   8.649   9.043 -1.0447 -0.7168 -0.2517
23067SOL    HW271356   2.242   8.636   8.976 -0.7942  0.7620 -1.1077
23068SOL     OW71357   9.101   5.111   4.981 -0.1304 -0.1448 -0.1279
23068SOL    HW171358   9.044   5.155   5.044 -1.3096  0.8094 -1.7817
23068SOL    HW271359   9.049   5.107   4.901  1.9214  0.2379 -1.5412
23069SOL     OW71360   1.285   4.194   3.736  0.3485  0.4229 -0.0454
23069SOL    HW171361   1.223   4.259   3.768 -0.8855 -0.0665 -1.3461
23069SOL    HW271362   1.292   4.130   3.807 -0.6909  0.4438  0.0837
23070SOL     OW71363   4.774   9.200   9.432 -0.6874  0.0385  0.0196
23070SOL    HW171364   4.686   9.237   9.439 -0.0797  1.3309  1.3761
23070SOL    HW271365   4.791   9.163   9.519  0.8237  1.5987  0.4558
23071SOL     OW71366   6.879   4.633   8.560  0.3116 -0.0317  0.2492
23071SOL    HW171367   6.847   4.721   8.580  0.3721 -0.1182  0.7186
23071SOL    HW271368   6.865   4.624   8.465  0.4223  0.5261  0.1776
23072SOL     OW71369   3.522   7.449   5.201  0.0707  0.0553  0.5297
23072SOL    HW171370   3.526   7.388   5.127 -1.9163  0.5114 -0.0102
23072SOL    HW271371   3.589   7.514   5.182  0.5063 -0.5763 -0.1678
23073SOL     OW71372   2.641   8.115   6.743  0.1403 -0.3998  0.3550
23073SOL    HW171373   2.649   8.081   6.832 -0.6912 -1.3704  0.0782
23073SOL    HW271374   2.591   8.196   6.753  0.9759  0.0582  0.8801
23074SOL     OW71375   1.161   8.917   9.135 -0.0090  0.2927  0.3199
23074SOL    HW171376   1.195   8.842   9.183 -2.6012 -0.4856  1.1236
23074SOL    HW271377   1.122   8.972   9.202  0.2270  1.4534 -0.4687
23075SOL     OW71378   6.626   7.377   2.786  0.2858  0.2645  0.2662
23075SOL    HW171379   6.541   7.422   2.779 -0.3358 -0.8958 -0.0384
23075SOL    HW271380   6.641   7.343   2.698  0.3299 -0.7990  0.6693
23076SOL     OW71381   8.122   8.739   6.170  0.7822 -0.4652  0.8202
23076SOL    HW171382   8.210   8.730   6.134  1.0928  1.6528  0.9246
23076SOL    HW271383   8.137   8.754   6.264  0.1343 -2.7317  1.3505
23077SOL     OW71384   5.347   3.468   8.094 -0.3714 -0.5339  0.5890
23077SOL    HW171385   5.377   3.381   8.066 -2.5547 -0.8946 -0.8201
23077SOL    HW271386   5.394   3.529   8.037 -1.3172 -1.0110 -0.7425
23078SOL     OW71387   4.741   2.803   4.282 -0.1450 -0.0006 -0.2633
23078SOL    HW171388   4.694   2.868   4.231 -0.8622 -0.1306  0.2203
23078SOL    HW271389   4.716   2.820   4.373  0.0070 -0.6647 -0.0859
23079SOL     OW71390   5.221   7.266   5.294  0.0021 -0.6027  0.7611
23079SOL    HW171391   5.170   7.283   5.214  0.0670 -0.3772  0.7688
23079SOL    HW271392   5.250   7.175   5.284  0.4152 -0.4293  0.3001
23080SOL     OW71393   6.600   0.067   5.386  0.1843  0.0468 -0.0072
23080SOL    HW171394   6.689   0.097   5.368 -0.0902 -0.6941 -3.2648
23080SOL    HW271395   6.546   0.117   5.326 -1.5364 -0.0899  1.3656
23081SOL     OW71396   1.509   3.084   1.966  0.0373  0.2744  0.5341
23081SOL    HW171397   1.475   3.171   1.987  2.7083  1.2102  1.3590
23081SOL    HW271398   1.540   3.050   2.050  2.1950  0.0487 -0.2856
23082SOL     OW71399   2.593   4.410   8.823  0.3041 -0.6974 -0.1228
23082SOL    HW171400   2.572   4.317   8.820  1.3897 -1.0251  1.3737
23082SOL    HW271401   2.529   4.447   8.883  0.4165 -0.6410 -0.0371
23083SOL     OW71402   7.877   4.187   5.565  0.1016 -1.3344 -0.1579
23083SOL    HW171403   7.939   4.260   5.555  0.4594 -1.5444  0.4932
23083SOL    HW271404   7.791   4.227   5.551  0.1976 -0.5130  1.3574
23084SOL     OW71405   7.741   2.944   4.379  0.3025 -0.0241 -0.2721
23084SOL    HW171406   7.721   2.851   4.368  0.2377 -0.0941  0.4001
23084SOL    HW271407   7.665   2.989   4.341 -0.5649 -0.2759  1.0951
23085SOL     OW71408   7.418   5.206   1.113  0.3976  0.4396 -0.4626
23085SOL    HW171409   7.423   5.123   1.159  1.5659  0.3735 -0.6834
23085SOL    HW271410   7.440   5.272   1.179  2.9080  0.2836 -1.0417
23086SOL     OW71411   5.232   6.572   2.167  0.4515  0.1444  0.5830
23086SOL    HW171412   5.161   6.635   2.184 -0.2951 -0.0032 -1.7606
23086SOL    HW271413   5.312   6.621   2.189 -0.2415  1.0853  1.1039
23087SOL     OW71414   4.301   4.806   6.370 -0.7016 -0.2827 -0.6721
23087SOL    HW171415   4.354   4.761   6.304 -0.2550 -2.2840  0.9445
23087SOL    HW271416   4.233   4.742   6.393 -1.6204  0.8691 -0.1170
23088SOL     OW71417   9.264   3.325   4.689 -0.3752 -0.4211  0.4412
23088SOL    HW171418   9.255   3.286   4.602 -0.6774 -0.1697  0.3568
23088SOL    HW271419   9.299   3.413   4.673 -1.4684  0.0415  0.4780
23089SOL     OW71420   7.260   3.856   7.833  0.2032 -0.3732  1.0778
23089SOL    HW171421   7.199   3.810   7.775 -0.3332  0.1809  1.1918
23089SOL    HW271422   7.336   3.875   7.778 -1.0682  1.8723 -0.0432
23090SOL     OW71423   4.010   6.145   1.442 -0.4049  0.0397 -0.3486
23090SOL    HW171424   4.060   6.157   1.523 -1.6111 -0.7350  0.5254
23090SOL    HW271425   3.936   6.205   1.451 -1.4889 -1.3070 -0.0774
23091SOL     OW71426   5.999   4.630   8.540  0.3198  0.1614  0.4880
23091SOL    HW171427   6.031   4.554   8.587  0.4755 -0.1652 -0.1438
23091SOL    HW271428   6.015   4.611   8.448 -1.6974 -0.0382  0.1316
23092SOL     OW71429   1.692   6.557   3.809 -0.1943  0.5659  0.1928
23092SOL    HW171430   1.681   6.644   3.769 -1.3524  0.1039 -0.5374
23092SOL    HW271431   1.705   6.575   3.902  1.1686  1.5955 -0.1663
23093SOL     OW71432   1.155   8.727   6.792 -0.2009  0.5087 -0.1589
23093SOL    HW171433   1.249   8.716   6.809 -0.0255  1.3192 -0.5663
23093SOL    HW271434   1.114   8.709   6.876  0.2733 -0.3667 -0.0974
23094SOL     OW71435   8.246   7.759   9.251  0.5789 -0.6389  0.0278
23094SOL    HW171436   8.300   7.705   9.309  0.1232  0.1571  1.2303
23094SOL    HW271437   8.296   7.763   9.170  1.8943 -0.6863  0.7990
23095SOL     OW71438   6.730   2.672   6.073  0.3196  0.1427 -0.4874
23095SOL    HW171439   6.810   2.689   6.123  0.0870 -2.1851  0.8095
23095SOL    HW271440   6.718   2.577   6.077 -1.9638  0.3114 -1.5093
23096SOL     OW71441   2.673   6.748   7.628 -0.2075 -0.0433 -0.2099
23096SOL    HW171442   2.683   6.681   7.560  0.3223  1.2577 -1.4513
23096SOL    HW271443   2.762   6.774   7.650 -0.4204  0.8744 -0.3895
23097SOL     OW71444   9.341   7.387   8.909  0.2377  0.5404  0.5642
23097SOL    HW171445   9.354   7.469   8.861 -0.5185  0.2386 -0.1717
23097SOL    HW271446   9.270   7.406   8.970 -0.2413  0.3098  0.0839
23098SOL     OW71447   7.634   3.050   4.027 -0.0248 -0.4376 -0.2380
23098SOL    HW171448   7.593   3.065   4.112 -1.0225 -0.1203 -0.7513
23098SOL    HW271449   7.717   3.097   4.031  1.5231 -3.0697  1.7015
23099SOL     OW71450   8.039   2.815   1.464  0.2646  0.3549 -0.0646
23099SOL    HW171451   8.090   2.806   1.544  2.6982 -2.1459 -1.7141
23099SOL    HW271452   8.089   2.878   1.411  0.1638 -0.0364 -0.6357
23100SOL     OW71453   0.636   2.914   3.283  0.2021 -0.2478 -0.0179
23100SOL    HW171454   0.705   2.882   3.225 -1.8182 -3.3682 -0.9346
23100SOL    HW271455   0.564   2.937   3.225 -0.3193  0.8642  1.0340
23101SOL     OW71456   7.892   4.278   1.347 -0.0415 -0.3098 -0.3476
23101SOL    HW171457   7.823   4.263   1.283 -0.1856  0.0160 -0.2720
23101SOL    HW271458   7.871   4.219   1.420 -0.0179 -0.4961 -0.4910
23102SOL     OW71459   3.671   4.489   4.296 -0.0297 -0.0824  0.2009
23102SOL    HW171460   3.635   4.421   4.239 -0.4067 -0.2928  0.6865
23102SOL    HW271461   3.597   4.520   4.347 -0.2887  2.1104 -1.3933
23103SOL     OW71462   1.845   4.745   3.892  0.2004  0.7390 -0.2106
23103SOL    HW171463   1.847   4.650   3.885 -0.3960  0.6839  0.2247
23103SOL    HW271464   1.815   4.775   3.806  0.9775  0.5780 -0.5480
23104SOL     OW71465   3.768   0.645   2.746 -0.6145 -0.3454 -0.1303
23104SOL    HW171466   3.841   0.707   2.739 -1.3313  0.5533  0.1762
23104SOL    HW271467   3.784   0.581   2.677  0.5407 -0.2481  0.0211
23105SOL     OW71468   7.704   0.656   9.401 -0.0647  0.2122 -0.0771
23105SOL    HW171469   7.614   0.628   9.388 -0.2234  0.4466  0.4907
23105SOL    HW271470   7.698   0.729   9.462  0.5848 -0.3874  0.7308
23106SOL     OW71471   5.111   1.355   1.717  0.0897 -0.1320  0.3454
23106SOL    HW171472   5.171   1.362   1.642 -0.5883  0.5175 -0.1539
23106SOL    HW271473   5.139   1.277   1.763  0.0827 -0.9602 -1.0030
23107SOL     OW71474   4.552   2.599   7.988  0.2787 -0.0466 -0.0648
23107SOL    HW171475   4.508   2.661   7.931  0.9120  0.6612  0.1989
23107SOL    HW271476   4.616   2.556   7.931  0.8375  0.5840  0.0764
23108SOL     OW71477   2.273   0.700   5.621  0.0159 -0.8225 -0.2644
23108SOL    HW171478   2.188   0.665   5.594 -0.9931  0.3192  1.2729
23108SOL    HW271479   2.261   0.724   5.713  2.3138 -1.5156  0.2782
23109SOL     OW71480   3.451   7.077   9.477 -0.1309  0.6047  0.4675
23109SOL    HW171481   3.489   6.998   9.438  1.2940  0.5637  1.8802
23109SOL    HW271482   3.487   7.149   9.424  1.5048  0.5255  1.4127
23110SOL     OW71483   3.648   3.664   1.664  0.4737 -0.2239 -0.1470
23110SOL    HW171484   3.697   3.630   1.738  0.4180 -0.4442 -0.2079
23110SOL    HW271485   3.668   3.757   1.661 -0.1880 -0.0469  0.6578
23111SOL     OW71486   2.574   2.908   2.387  0.2347 -0.0126  0.3856
23111SOL    HW171487   2.559   2.884   2.479  0.8613 -1.3473  0.1745
23111SOL    HW271488   2.557   3.002   2.383 -0.7100 -0.1010  1.6690
23112SOL     OW71489   4.658   2.926   7.295 -0.4795 -0.1148  0.5699
23112SOL    HW171490   4.644   2.960   7.384  0.0194 -1.8320  1.3424
23112SOL    HW271491   4.656   2.831   7.305 -1.3218 -0.3545 -1.4236
23113SOL     OW71492   1.733   6.052   1.931  0.1544 -0.3115  0.3903
23113SOL    HW171493   1.785   6.129   1.954 -1.1146  0.5329  0.5516
23113SOL    HW271494   1.650   6.064   1.977  0.2626 -2.2679  1.1867
23114SOL     OW71495   0.921   8.582   3.018  0.1175  0.3806 -0.1654
23114SOL    HW171496   0.948   8.566   2.927 -0.8009  1.5045 -0.6701
23114SOL    HW271497   0.828   8.560   3.019 -0.1292  1.3654  0.2177
23115SOL     OW71498   3.321   1.040   5.257 -0.0594  0.1154  0.0088
23115SOL    HW171499   3.370   1.024   5.337 -1.6328  2.1554  1.4857
23115SOL    HW271500   3.265   0.962   5.246  1.0317 -0.7135  0.1591
23116SOL     OW71501   2.040   7.304   2.348 -0.3714  0.6697 -0.4485
23116SOL    HW171502   2.068   7.249   2.274 -1.8616 -0.0270 -0.5306
23116SOL    HW271503   2.020   7.242   2.418  1.9151  1.3573  0.9320
23117SOL     OW71504   0.425   3.822   3.231  0.0831  0.2938  0.3789
23117SOL    HW171505   0.368   3.838   3.156  0.4006  1.2899  0.3301
23117SOL    HW271506   0.509   3.862   3.206  0.5797 -0.4785  0.7571
23118SOL     OW71507   2.150   9.479   9.409 -0.4483  0.0075  0.2395
23118SOL    HW171508   2.213   9.546   9.382 -0.1167  0.4794  2.0504
23118SOL    HW271509   2.204   9.404   9.435 -0.8217 -1.1210 -1.9707
23119SOL     OW71510   0.789   6.028   7.995 -0.1993 -0.3661 -0.2311
23119SOL    HW171511   0.788   5.973   8.073  0.6920  0.4937  0.4184
23119SOL    HW271512   0.773   5.968   7.923  1.5546 -1.6364  0.3578
23120SOL     OW71513   2.863   7.830   1.549 -0.7784 -0.0361  0.2404
23120SOL    HW171514   2.867   7.793   1.461 -0.5704 -1.9051  0.9771
23120SOL    HW271515   2.944   7.880   1.557  0.6876 -2.2428  0.2899
23121SOL     OW71516   6.062   1.395   0.937  0.3650 -0.0898  0.3470
23121SOL    HW171517   6.156   1.392   0.954  0.2147  0.6919  1.4336
23121SOL    HW271518   6.055   1.406   0.842  1.3890  0.6998  0.3431
23122SOL     OW71519   8.322   5.126   8.653  0.0030 -0.1085 -0.2007
23122SOL    HW171520   8.318   5.162   8.741  2.1364  0.4850 -0.2785
23122SOL    HW271521   8.276   5.190   8.599  0.9373  0.8898  0.1415
23123SOL     OW71522   7.711   6.223   9.342 -0.0880  0.4445  0.0062
23123SOL    HW171523   7.787   6.209   9.398  0.6604 -1.7394 -1.4112
23123SOL    HW271524   7.651   6.152   9.366 -1.9738  2.3853  1.4140
23124SOL     OW71525   2.998   6.638   7.419 -0.6291  0.1276  0.0732
23124SOL    HW171526   3.074   6.591   7.452  0.3099  0.8143 -1.0287
23124SOL    HW271527   2.926   6.576   7.428  0.0217 -0.5000  1.2425
23125SOL     OW71528   0.134   4.822   0.170 -0.0653  0.1319  0.0068
23125SOL    HW171529   0.106   4.897   0.117 -1.9962 -0.9397 -0.5792
23125SOL    HW271530   0.122   4.851   0.260 -0.9813  0.4624 -0.2133
23126SOL     OW71531   8.898   7.685   5.654 -0.1956 -0.0165 -0.8669
23126SOL    HW171532   8.851   7.715   5.576  0.6618  0.3906 -1.2364
23126SOL    HW271533   8.829   7.655   5.714 -1.1550  2.9177 -0.3433
23127SOL     OW71534   0.393   4.224   0.239  0.0668  0.5667 -0.1173
23127SOL    HW171535   0.484   4.214   0.212 -0.4237 -0.9726 -1.3212
23127SOL    HW271536   0.354   4.279   0.171 -0.5744 -1.2486 -1.2829
23128SOL     OW71537   6.681   8.170   6.371  0.0349  0.0522 -0.3232
23128SOL    HW171538   6.704   8.121   6.292 -0.1110  0.6006 -0.7160
23128SOL    HW271539   6.730   8.253   6.362  1.3830 -0.5503  0.9948
23129SOL     OW71540   4.231   5.455   2.486 -0.3019 -0.1898  0.0428
23129SOL    HW171541   4.182   5.537   2.475 -0.5671 -0.3563 -0.0379
23129SOL    HW271542   4.288   5.451   2.409 -1.4001 -0.8313 -0.7735
23130SOL     OW71543   4.509   7.071   2.645  0.1040 -0.4102  0.0419
23130SOL    HW171544   4.476   7.117   2.723  0.4524 -0.6396  0.3272
23130SOL    HW271545   4.601   7.053   2.665  0.5229  0.5830 -0.9235
23131SOL     OW71546   5.554   7.327   2.790  0.1724  0.1063 -0.1756
23131SOL    HW171547   5.511   7.313   2.874  0.9558 -0.0862  0.2041
23131SOL    HW271548   5.602   7.246   2.774  0.2801  0.2633 -0.6532
23132SOL     OW71549   0.516   1.063   5.917 -0.1213 -0.4264  0.2365
23132SOL    HW171550   0.545   1.148   5.886  0.7668 -0.6433  0.4405
23132SOL    HW271551   0.449   1.082   5.983  1.7908  0.2262  2.0970
23133SOL     OW71552   8.902   0.792   0.702 -0.5972 -0.0593  0.5096
23133SOL    HW171553   8.958   0.858   0.661  1.2544 -1.5133  0.5109
23133SOL    HW271554   8.891   0.823   0.792  1.0756 -0.1681  0.7989
23134SOL     OW71555   6.582   1.100   6.812 -0.6170  0.0169  0.2571
23134SOL    HW171556   6.676   1.117   6.814 -0.6264  0.2096 -0.5401
23134SOL    HW271557   6.542   1.186   6.817 -0.6900  0.1793 -1.9092
23135SOL     OW71558   5.438   8.394   8.105  0.6725 -0.3734 -0.2238
23135SOL    HW171559   5.429   8.302   8.131 -2.0540 -0.0536  0.2085
23135SOL    HW271560   5.374   8.441   8.159  0.1477  1.4123 -2.2572
23136SOL     OW71561   4.377   0.051   9.220 -0.0652  0.6500 -0.5094
23136SOL    HW171562   4.347   0.109   9.151 -2.0513  0.8824  0.4478
23136SOL    HW271563   4.305  -0.013   9.230  1.7049 -1.5465 -1.0215
23137SOL     OW71564   0.422   6.660   3.007  0.3958 -0.0309  0.1500
23137SOL    HW171565   0.336   6.655   2.966 -0.0771  1.3519  0.8792
23137SOL    HW271566   0.455   6.747   2.983  1.8015 -0.6984 -0.4793
23138SOL     OW71567   2.350   3.103   3.647  0.0213  0.1609 -0.6563
23138SOL    HW171568   2.287   3.057   3.702  0.7104  1.1870  1.0760
23138SOL    HW271569   2.380   3.038   3.584  1.3489 -1.9692  1.9965
23139SOL     OW71570   5.730   6.872   8.874  0.1271 -0.5202  0.5723
23139SOL    HW171571   5.709   6.784   8.904 -1.1076  0.1637  1.8658
23139SOL    HW271572   5.691   6.930   8.939  0.0831  1.0129 -0.7300
23140SOL     OW71573   4.166   6.445   6.108 -0.3377  0.6255  0.2883
23140SOL    HW171574   4.188   6.433   6.016  1.2731  0.0405  0.7117
23140SOL    HW271575   4.127   6.533   6.113 -0.7149  0.5442 -0.9690
23141SOL     OW71576   1.413   2.129   0.719 -0.5284  0.6920 -0.2090
23141SOL    HW171577   1.434   2.047   0.762  0.1035  0.6751 -0.5411
23141SOL    HW271578   1.347   2.169   0.775 -1.2463 -0.2849 -0.3318
23142SOL     OW71579   8.098   1.341   0.848 -0.0165 -0.3416 -0.3640
23142SOL    HW171580   8.186   1.309   0.825 -1.2554 -2.4263 -2.8443
23142SOL    HW271581   8.042   1.263   0.840 -2.0398  0.7681  1.8015
23143SOL     OW71582   4.450   2.514   6.348  0.6136  0.4674 -0.0819
23143SOL    HW171583   4.413   2.512   6.260 -0.7898 -0.9688  0.4976
23143SOL    HW271584   4.375   2.506   6.406  1.6500 -0.2638  1.2086
23144SOL     OW71585   3.011   7.309   2.425  0.2217  0.4859  0.7948
23144SOL    HW171586   3.058   7.253   2.364 -0.3101  2.3276 -1.4657
23144SOL    HW271587   2.925   7.268   2.435  0.5591 -0.2043  0.8760
23145SOL     OW71588   5.214   7.782   8.452 -0.0070 -0.2692  0.3894
23145SOL    HW171589   5.186   7.733   8.529 -3.4250 -0.1595 -0.6383
23145SOL    HW271590   5.263   7.718   8.400 -1.8034 -1.8027  0.4765
23146SOL     OW71591   9.208   8.669   3.409  0.2832  0.4760  0.1533
23146SOL    HW171592   9.189   8.750   3.361 -0.5025 -0.4479 -1.1411
23146SOL    HW271593   9.303   8.662   3.406  0.2985  0.8453 -0.6182
23147SOL     OW71594   1.042   2.043   6.932  0.0260 -0.6105 -0.1302
23147SOL    HW171595   1.134   2.020   6.949  0.0850  0.4297  1.0827
23147SOL    HW271596   0.995   1.960   6.941  0.4195 -0.6258  2.7085
23148SOL     OW71597   3.949   2.237   7.696 -0.0649 -0.2490  0.3237
23148SOL    HW171598   3.879   2.297   7.670 -1.4497 -1.0509  1.9544
23148SOL    HW271599   3.935   2.224   7.790  1.9275 -0.9302  0.5695
23149SOL     OW71600   4.718   6.202   8.482 -0.0705 -0.0459  0.0258
23149SOL    HW171601   4.638   6.191   8.534 -0.5163  1.2468 -0.3620
23149SOL    HW271602   4.688   6.208   8.391  0.4662  0.4869 -0.1236
23150SOL     OW71603   3.757   8.985   6.661 -0.1006  0.3758  0.9253
23150SOL    HW171604   3.798   9.065   6.694  1.4763 -0.0696  0.1639
23150SOL    HW271605   3.818   8.915   6.686  1.2879  0.0109 -2.8383
23151SOL     OW71606   9.298   5.514   5.521 -0.2658  0.0515 -0.0136
23151SOL    HW171607   9.353   5.510   5.600  0.1580 -2.3913 -0.3721
23151SOL    HW271608   9.354   5.481   5.451 -1.0021  1.1480 -1.1666
23152SOL     OW71609   8.490   2.204   4.040  0.8156  0.2750  0.1630
23152SOL    HW171610   8.433   2.277   4.064  1.2562  0.2953  1.2068
23152SOL    HW271611   8.439   2.152   3.978 -1.1230 -0.7363  2.4298
23153SOL     OW71612   8.746   9.540   7.626 -0.7579 -0.0502 -0.2538
23153SOL    HW171613   8.786   9.471   7.573  1.4093 -0.9896  2.3999
23153SOL    HW271614   8.662   9.503   7.654 -1.1881 -0.1706 -1.6283
23154SOL     OW71615   9.433   1.550   2.490 -0.2086  0.3305 -0.3169
23154SOL    HW171616   9.340   1.569   2.500 -0.4777 -0.8751 -0.3246
23154SOL    HW271617   9.478   1.619   2.540 -1.0041  2.0202 -1.8297
23155SOL     OW71618   7.087   7.657   3.811 -0.4401 -0.1952 -0.1082
23155SOL    HW171619   7.169   7.669   3.859  1.0908  0.4252 -2.6520
23155SOL    HW271620   7.113   7.614   3.730 -2.4863  0.8341 -1.4115
23156SOL     OW71621   4.857   1.389   1.465  0.4999  0.3287 -0.7857
23156SOL    HW171622   4.820   1.358   1.547  0.6269  1.9131 -0.0938
23156SOL    HW271623   4.904   1.313   1.430 -0.9118 -0.8412 -0.2234
23157SOL     OW71624   5.451   2.055   0.472  0.4020 -0.5144 -0.7264
23157SOL    HW171625   5.356   2.063   0.483  0.0834 -1.1293 -2.6236
23157SOL    HW271626   5.484   2.143   0.484 -0.3973 -0.3026  0.0219
23158SOL     OW71627   7.296   6.518   7.516  0.3562 -0.4202 -1.3582
23158SOL    HW171628   7.347   6.451   7.472  1.0315 -2.0264  1.6107
23158SOL    HW271629   7.361   6.572   7.562 -0.3952 -1.5650  1.2300
23159SOL     OW71630   5.648   4.202   0.622  0.1763  0.5255 -0.5261
23159SOL    HW171631   5.698   4.206   0.704 -1.1047  0.3986  0.2941
23159SOL    HW271632   5.704   4.245   0.558  1.6346 -0.2366  0.1860
23160SOL     OW71633   6.076   0.773   8.076 -0.4507 -0.0315 -0.2236
23160SOL    HW171634   6.000   0.825   8.051 -1.3219 -0.5082  1.2934
23160SOL    HW271635   6.057   0.744   8.166  1.6154  0.0084  0.2833
23161SOL     OW71636   4.237   3.915   1.396  0.5028 -0.5252 -0.0967
23161SOL    HW171637   4.176   3.986   1.417 -1.9115 -1.9595 -1.8029
23161SOL    HW271638   4.295   3.952   1.330  0.2746  0.3062  0.1500
23162SOL     OW71639   5.856   0.933   2.575  0.0537  0.6870  0.0387
23162SOL    HW171640   5.947   0.915   2.549 -0.4298 -1.2805 -0.4593
23162SOL    HW271641   5.854   0.911   2.668 -0.2846 -1.0566 -0.3388
23163SOL     OW71642   0.627   0.007   4.247  0.3661  0.3194 -0.4639
23163SOL    HW171643   0.610  -0.031   4.333  0.6177  1.0377 -0.0911
23163SOL    HW271644   0.648   0.099   4.265 -1.2691  0.9158 -1.4258
23164SOL     OW71645   4.083   5.201   6.041 -0.1353  0.3278 -0.2379
23164SOL    HW171646   4.101   5.121   6.090  1.1094 -0.0741 -1.2699
23164SOL    HW271647   4.029   5.255   6.100 -1.0537 -1.2820  0.4431
23165SOL     OW71648   8.344   4.392   4.837 -0.6281 -0.4544  0.5083
23165SOL    HW171649   8.273   4.433   4.789 -0.1129  2.0689  1.7474
23165SOL    HW271650   8.424   4.422   4.792 -0.2565 -1.9206  0.1290
23166SOL     OW71651   8.039   2.445   5.638 -0.7624 -0.2605  0.6869
23166SOL    HW171652   8.025   2.507   5.710  0.9227 -0.5852  1.3526
23166SOL    HW271653   8.126   2.467   5.604 -1.1614 -0.6891 -0.6975
23167SOL     OW71654   8.615   0.250   5.571 -0.8661 -0.0837  0.2624
23167SOL    HW171655   8.708   0.262   5.590 -1.2717  1.5957  1.3803
23167SOL    HW271656   8.614   0.189   5.497  1.0214 -2.1757  1.8105
23168SOL     OW71657   4.569   2.581   8.488  0.3713  0.7355  0.7430
23168SOL    HW171658   4.527   2.499   8.514 -1.0502  0.9291 -0.8361
23168SOL    HW271659   4.498   2.636   8.458  1.6403  1.4137 -1.1869
23169SOL     OW71660   4.843   5.939   4.603 -0.2512  0.1522  0.1510
23169SOL    HW171661   4.876   6.025   4.629 -0.8360  0.4121  0.0643
23169SOL    HW271662   4.921   5.888   4.584  0.1668  0.2471  1.5022
23170SOL     OW71663   2.790   1.374   8.885 -0.3676 -0.0711  0.1940
23170SOL    HW171664   2.758   1.324   8.961 -0.8463  2.0604  1.4737
23170SOL    HW271665   2.882   1.393   8.907 -0.7657  1.3450  0.7259
23171SOL     OW71666   1.122   8.510   9.392 -0.3674 -0.0076 -0.7225
23171SOL    HW171667   1.059   8.505   9.320  0.4394 -0.3497 -1.4200
23171SOL    HW271668   1.099   8.437   9.450 -1.1436  0.3885 -0.5239
23172SOL     OW71669   9.608   1.277   8.282 -0.1616 -0.3945  0.1215
23172SOL    HW171670   9.563   1.335   8.343  0.1773 -0.2010  0.1842
23172SOL    HW271671   9.571   1.299   8.196  1.6804  1.6233 -0.2173
23173SOL     OW71672   3.397   2.423   6.828  0.0512  0.3663 -0.1696
23173SOL    HW171673   3.341   2.348   6.809  1.6887 -0.5736 -1.5545
23173SOL    HW271674   3.431   2.450   6.742  1.8964  0.7163  0.6244
23174SOL     OW71675   4.233   8.733   0.276  0.1692 -0.0463 -0.4715
23174SOL    HW171676   4.220   8.822   0.241  1.1883  0.9042  1.4127
23174SOL    HW271677   4.175   8.727   0.351  0.7613 -0.6333 -0.0465
23175SOL     OW71678   2.642   6.620   0.061  0.6583 -0.2393 -0.2145
23175SOL    HW171679   2.684   6.539   0.034 -2.0660 -1.8907  0.0979
23175SOL    HW271680   2.691   6.647   0.139  1.4510 -1.7686 -0.1324
23176SOL     OW71681   9.185   9.355   6.343  0.0548  0.4810 -0.0227
23176SOL    HW171682   9.245   9.386   6.275 -0.7514 -0.9210 -1.4373
23176SOL    HW271683   9.132   9.288   6.300 -0.7077 -0.2471  1.9225
23177SOL     OW71684   0.023   2.985   6.628  0.2084 -0.7044 -0.1695
23177SOL    HW171685   0.042   3.070   6.588 -1.4498 -0.5801 -0.7694
23177SOL    HW271686   0.109   2.950   6.653  1.1936 -0.1767 -2.6098
23178SOL     OW71687   2.964   5.648   2.257 -0.2567  0.2832 -0.1450
23178SOL    HW171688   2.946   5.677   2.167 -0.1977 -0.5463 -0.4315
23178SOL    HW271689   3.038   5.589   2.249 -1.4550 -1.3408  0.1584
23179SOL     OW71690   1.204   8.201   0.862  0.4999  0.1599  0.2938
23179SOL    HW171691   1.285   8.212   0.912  0.3442  0.3964  0.4973
23179SOL    HW271692   1.137   8.240   0.917 -0.2036 -2.3754  1.3487
23180SOL     OW71693   7.147   4.557   9.226 -0.0028 -0.0256 -0.1537
23180SOL    HW171694   7.106   4.537   9.142  0.5639 -0.2134 -0.3896
23180SOL    HW271695   7.073   4.571   9.286 -0.4164 -1.0326 -0.4030
23181SOL     OW71696   5.093   0.667   4.610  0.7249 -0.1663  0.5573
23181SOL    HW171697   5.070   0.601   4.544 -0.2380 -0.9667  1.6504
23181SOL    HW271698   5.050   0.747   4.580 -1.4510 -1.0146  1.2147
23182SOL     OW71699   0.612   2.636   6.596 -0.5840  0.1128  0.8812
23182SOL    HW171700   0.607   2.541   6.584 -0.8154  0.3620 -1.2473
23182SOL    HW271701   0.553   2.654   6.669 -1.1069 -1.2918  0.8265
23183SOL     OW71702   1.725   0.477   2.638 -0.1813 -0.3755 -0.3423
23183SOL    HW171703   1.655   0.536   2.666 -0.8028 -1.6505  0.9375
23183SOL    HW271704   1.690   0.430   2.563 -0.5136 -0.6248 -0.0349
23184SOL     OW71705   5.669   0.359   4.053 -0.3051  0.3309 -0.1149
23184SOL    HW171706   5.636   0.273   4.028  1.0736  0.0564 -1.0473
23184SOL    HW271707   5.628   0.420   3.991 -1.3670  0.3921  0.6142
23185SOL     OW71708   5.160   3.921   5.798 -0.4563 -0.1280  0.3733
23185SOL    HW171709   5.177   3.982   5.870 -0.2659 -1.0513  1.1241
23185SOL    HW271710   5.119   3.976   5.731  0.8300  1.0917  0.5276
23186SOL     OW71711   2.406   3.644   3.201 -0.1747 -0.3921 -0.1145
23186SOL    HW171712   2.476   3.683   3.148  0.7547 -0.2881  1.1403
23186SOL    HW271713   2.397   3.703   3.276 -1.1594 -0.7573  0.0627
23187SOL     OW71714   4.685   6.399   9.544  0.3643 -0.0453  0.4190
23187SOL    HW171715   4.681   6.493   9.525 -1.2082 -0.1829 -0.0122
23187SOL    HW271716   4.661   6.392   9.636  1.4408  0.0323  0.7261
23188SOL     OW71717   6.231   7.446   4.065  0.3733  0.4948 -0.2688
23188SOL    HW171718   6.319   7.409   4.060  1.0159  1.0993  3.4698
23188SOL    HW271719   6.172   7.371   4.052  1.4860 -0.3662 -0.4318
23189SOL     OW71720   6.183   7.717   4.946 -0.1018  0.7005 -0.2589
23189SOL    HW171721   6.121   7.646   4.929 -1.3310  1.6174  0.2244
23189SOL    HW271722   6.180   7.731   5.041  0.6044  0.9860 -0.2672
23190SOL     OW71723   6.323   6.370   6.530 -0.1740  0.0348 -0.4912
23190SOL    HW171724   6.337   6.342   6.440 -0.3743  0.2306 -0.5836
23190SOL    HW271725   6.377   6.310   6.582 -0.1560 -0.1582 -0.7292
23191SOL     OW71726   2.178   6.050   1.321  0.5678  0.2584  0.0375
23191SOL    HW171727   2.183   5.986   1.250 -0.5285  1.4576 -1.1765
23191SOL    HW271728   2.224   6.127   1.288  2.4859 -0.0510  1.7473
23192SOL     OW71729   9.519   9.344   7.809 -0.2603 -0.1023 -0.1027
23192SOL    HW171730   9.463   9.297   7.871 -2.8542  0.4528 -1.8635
23192SOL    HW271731   9.493   9.436   7.818  1.1659  0.3464 -0.2440
23193SOL     OW71732   8.763   3.329   7.984 -0.0919  0.0545  0.1669
23193SOL    HW171733   8.801   3.407   8.024  0.5582  0.3929 -1.0408
23193SOL    HW271734   8.703   3.362   7.918 -0.4012 -0.4678  0.1812
23194SOL     OW71735   6.385   5.805   4.066  0.6117  0.3393  0.3573
23194SOL    HW171736   6.470   5.808   4.020  1.1668  0.1020  1.3410
23194SOL    HW271737   6.320   5.813   3.996  1.4415  0.3724 -0.4346
23195SOL     OW71738   6.546   3.160   3.818  0.6539 -0.2248  0.2667
23195SOL    HW171739   6.465   3.188   3.775  1.2456  1.7866  0.3412
23195SOL    HW271740   6.522   3.081   3.867 -1.2674  0.3579  0.3237
23196SOL     OW71741   3.473   2.586   4.019 -1.4513  0.0953 -0.0294
23196SOL    HW171742   3.553   2.634   3.999 -1.9196  1.1512  0.4894
23196SOL    HW271743   3.490   2.542   4.101 -0.8265 -1.1142 -0.7852
23197SOL     OW71744   0.604   6.375   8.706 -0.1512  0.1354 -0.2885
23197SOL    HW171745   0.576   6.450   8.655 -1.7173 -0.3216 -0.1444
23197SOL    HW271746   0.662   6.411   8.773 -0.2483  1.0900 -0.7123
23198SOL     OW71747   5.576   1.979   1.926 -0.1148 -0.0058 -0.1241
23198SOL    HW171748   5.538   1.891   1.919  0.6863 -0.6394  2.4254
23198SOL    HW271749   5.635   1.986   1.851 -1.1200 -1.1349 -1.0588
23199SOL     OW71750   8.999   4.802   4.965 -0.7548 -0.0316  0.1565
23199SOL    HW171751   9.060   4.851   5.021 -0.5447 -0.2562  0.1254
23199SOL    HW271752   9.047   4.789   4.883 -1.4437  1.2132 -0.4769
23200SOL     OW71753   3.757   7.762   7.624  0.2382 -0.2010 -0.3292
23200SOL    HW171754   3.672   7.719   7.619 -0.8503  1.9484 -1.9688
23200SOL    HW271755   3.773   7.774   7.718 -1.0141 -1.0857  0.0160
23201SOL     OW71756   3.369   6.003   7.215  0.8634 -0.5005 -0.2567
23201SOL    HW171757   3.303   5.935   7.230  1.2826 -1.1082 -1.0715
23201SOL    HW271758   3.451   5.965   7.245  1.1173 -0.3891 -0.7995
23202SOL     OW71759   7.156   0.149   1.348 -0.2828 -0.2301  0.2846
23202SOL    HW171760   7.152   0.096   1.428  0.6728  2.0438  1.9716
23202SOL    HW271761   7.088   0.216   1.361  1.3451  1.5011  0.3059
23203SOL     OW71762   3.928   4.930   7.700  0.3345  0.6495 -0.9693
23203SOL    HW171763   4.019   4.911   7.723 -0.2986 -0.6786  0.5696
23203SOL    HW271764   3.915   5.021   7.727  0.4598  0.0263  1.4313
23204SOL     OW71765   8.450   6.263   8.798 -0.1585 -0.1481 -0.1474
23204SOL    HW171766   8.399   6.319   8.857  2.2680 -1.4416  3.5668
23204SOL    HW271767   8.528   6.316   8.777  0.6323 -0.9334  0.7420
23205SOL     OW71768   6.244   5.552   2.181  0.2384  0.3307 -0.7194
23205SOL    HW171769   6.234   5.554   2.086 -0.5316  1.4901 -0.6384
23205SOL    HW271770   6.177   5.490   2.210 -1.7277  2.2855 -0.7606
23206SOL     OW71771   1.477   4.326   8.020 -0.2953 -0.6574  0.9098
23206SOL    HW171772   1.566   4.321   8.053 -0.5880 -0.0873  1.8026
23206SOL    HW271773   1.433   4.388   8.078 -1.2867 -0.9718  0.5116
23207SOL     OW71774   4.798   6.493   7.631  0.0534 -0.4810  0.4188
23207SOL    HW171775   4.814   6.466   7.541 -0.5481  0.3219  0.0525
23207SOL    HW271776   4.884   6.517   7.665 -0.0174  2.1228 -0.9537
23208SOL     OW71777   7.525   3.414   7.520  0.3195 -0.4354 -0.1649
23208SOL    HW171778   7.453   3.370   7.565  0.0019  0.7723  0.5678
23208SOL    HW271779   7.601   3.356   7.532 -0.0308 -0.6873  0.9566
23209SOL     OW71780   4.942   6.996   9.038 -0.4271  0.0996 -0.7323
23209SOL    HW171781   4.952   7.069   8.977  0.7526  0.1286 -0.5241
23209SOL    HW271782   4.864   6.950   9.007 -0.2760  0.5310 -1.8176
23210SOL     OW71783   1.483   1.101   3.767  0.0929  0.0621 -0.3650
23210SOL    HW171784   1.531   1.144   3.697 -0.4954  0.5813 -0.4637
23210SOL    HW271785   1.392   1.101   3.737 -0.1914  0.4443  0.4695
23211SOL     OW71786   1.227   9.086   3.707  0.9312  0.2308 -0.8082
23211SOL    HW171787   1.270   9.117   3.628  1.5996  1.2343 -0.0751
23211SOL    HW271788   1.292   9.098   3.776  0.2334 -0.2701 -0.0410
23212SOL     OW71789   4.054   7.478   4.738  0.0114 -0.6463  0.6893
23212SOL    HW171790   4.116   7.412   4.706 -0.5100 -0.2966 -1.1627
23212SOL    HW271791   4.097   7.515   4.815  1.7703 -0.9645 -0.0708
23213SOL     OW71792   7.182   6.530   0.489 -0.3084  0.4726 -0.1724
23213SOL    HW171793   7.147   6.459   0.541 -1.0471  0.7003 -0.3528
23213SOL    HW271794   7.244   6.575   0.547  2.1350 -1.7957 -0.8104
23214SOL     OW71795   7.662   6.584   0.355  0.4025 -0.1292  0.4446
23214SOL    HW171796   7.639   6.507   0.303 -2.1522  0.6341  0.3035
23214SOL    HW271797   7.698   6.549   0.437 -0.1507 -1.4574  0.1356
23215SOL     OW71798   4.219   6.843   0.618  0.3509  0.0270 -0.5383
23215SOL    HW171799   4.222   6.750   0.644  0.3888 -0.3353 -1.7696
23215SOL    HW271800   4.130   6.870   0.641  0.8953  0.2294  1.5187
23216SOL     OW71801   2.268   4.170   4.214 -0.0537 -0.3373 -0.2488
23216SOL    HW171802   2.266   4.111   4.139  3.4783  1.8274 -2.2888
23216SOL    HW271803   2.344   4.142   4.265  1.2306  1.8552 -0.8509
23217SOL     OW71804   3.298   5.879   1.284 -0.1781  0.3530  0.6042
23217SOL    HW171805   3.277   5.969   1.258  0.9910  0.3800 -0.3038
23217SOL    HW271806   3.286   5.879   1.379 -1.8953  0.9798  0.4287
23218SOL     OW71807   4.754   0.740   6.341 -0.8693 -0.3977 -0.1334
23218SOL    HW171808   4.704   0.672   6.385  0.0453 -0.4723  0.8500
23218SOL    HW271809   4.768   0.707   6.253  1.6128 -2.6786  0.9851
23219SOL     OW71810   4.733   4.603   3.343 -0.0253  0.3788 -0.0707
23219SOL    HW171811   4.683   4.582   3.421  0.6933  0.0888  0.3206
23219SOL    HW271812   4.756   4.518   3.306  1.0665  0.4795  0.3371
23220SOL     OW71813   3.207   3.612   3.821 -0.4926 -0.2085 -0.4979
23220SOL    HW171814   3.288   3.656   3.796  0.4552 -1.0111  0.9958
23220SOL    HW271815   3.142   3.681   3.825  0.3065  0.5829 -0.9541
23221SOL     OW71816   6.478   1.756   3.915 -0.4830 -0.3737 -0.4163
23221SOL    HW171817   6.393   1.769   3.956 -0.2475  3.2602 -0.7423
23221SOL    HW271818   6.460   1.757   3.821 -0.0344  2.6221 -0.5823
23222SOL     OW71819   4.361   0.538   7.580  0.1648  0.3411  0.3837
23222SOL    HW171820   4.420   0.523   7.507 -1.2447  1.6079 -1.0804
23222SOL    HW271821   4.274   0.537   7.541 -0.5336  2.9991  1.6793
23223SOL     OW71822   3.438   7.752   6.481  0.6069  0.2786  0.0393
23223SOL    HW171823   3.500   7.805   6.532 -0.5263  2.1175 -0.3964
23223SOL    HW271824   3.354   7.798   6.490 -0.5995 -1.8149  0.1308
23224SOL     OW71825   8.836   1.951   2.871 -0.0803 -0.2665 -0.3287
23224SOL    HW171826   8.744   1.949   2.844 -0.2253  0.0698  0.1191
23224SOL    HW271827   8.883   1.985   2.795 -0.6555  2.0311  0.2630
23225SOL     OW71828   1.943   1.972   1.054 -0.0358 -0.0064  0.3765
23225SOL    HW171829   1.873   1.951   1.115 -0.3070  0.0607  0.0906
23225SOL    HW271830   1.974   1.887   1.023  4.3058 -0.6470  5.1473
23226SOL     OW71831   3.117   6.792   5.991  0.3813  0.9691 -0.0399
23226SOL    HW171832   3.179   6.864   5.988  1.0804  0.3670 -0.4040
23226SOL    HW271833   3.031   6.833   5.979  0.7124  1.7954  0.3659
23227SOL     OW71834   4.987   0.230   3.199 -0.1443  0.0073 -0.3463
23227SOL    HW171835   5.042   0.287   3.145 -0.0112 -1.5930 -2.0253
23227SOL    HW271836   4.911   0.210   3.143 -1.5050  0.6341  1.2011
23228SOL     OW71837   5.045   5.489   1.255 -0.5305  0.2486 -0.3775
23228SOL    HW171838   5.070   5.457   1.168  0.1378  0.4100 -0.2516
23228SOL    HW271839   4.995   5.569   1.238  0.5467  0.9062 -0.5936
23229SOL     OW71840   6.859   5.979   0.193  0.1932 -0.4169  0.6257
23229SOL    HW171841   6.783   5.932   0.158  1.1169 -1.4736 -0.0274
23229SOL    HW271842   6.824   6.064   0.220 -1.2042 -0.8503  0.2834
23230SOL     OW71843   6.615   0.641   7.886  0.3800  0.3078  0.6592
23230SOL    HW171844   6.562   0.640   7.806  0.3851 -1.1602  0.6516
23230SOL    HW271845   6.672   0.717   7.876 -0.7712  1.1202  0.0418
23231SOL     OW71846   5.096   2.170   1.639  0.0977 -0.3695  0.1320
23231SOL    HW171847   5.176   2.215   1.664  0.3325 -0.1750 -0.9356
23231SOL    HW271848   5.035   2.187   1.711  0.0223  2.0368 -0.4122
23232SOL     OW71849   1.911   7.539   0.795  0.0735 -0.0966  0.4684
23232SOL    HW171850   1.946   7.627   0.783 -0.3515  0.0925  0.6165
23232SOL    HW271851   1.887   7.511   0.706  0.2621 -0.0863  0.4135
23233SOL     OW71852   7.300   9.164   7.296 -0.5682  0.6147 -0.3653
23233SOL    HW171853   7.280   9.071   7.292 -0.0310  0.4968 -0.3425
23233SOL    HW271854   7.372   9.171   7.359 -0.0228  0.9453 -1.0114
23234SOL     OW71855   3.879   6.557   0.864 -0.7656 -0.2086  0.1949
23234SOL    HW171856   3.928   6.638   0.856  1.6109 -1.3384  2.2846
23234SOL    HW271857   3.810   6.564   0.797  0.7914  2.4627 -1.2708
23235SOL     OW71858   8.356   1.040   4.588 -0.3269 -0.3009 -0.3345
23235SOL    HW171859   8.436   1.040   4.536  0.8572  3.4954  1.1274
23235SOL    HW271860   8.386   1.023   4.678 -0.7323  2.9881  0.5365
23236SOL     OW71861   9.580   3.815   5.769 -0.3631  0.2421 -0.1251
23236SOL    HW171862   9.528   3.736   5.753  0.5067 -0.5307  0.7397
23236SOL    HW271863   9.564   3.870   5.692 -1.4055 -0.5350 -0.4928
23237SOL     OW71864   1.873   5.903   8.150 -0.8235  0.2227  0.0603
23237SOL    HW171865   1.815   5.965   8.105 -0.5734  0.2310 -0.2502
23237SOL    HW271866   1.850   5.913   8.243 -1.1324  0.4199 -0.0348
23238SOL     OW71867   6.760   0.791   5.529  0.7236 -0.0226  0.2615
23238SOL    HW171868   6.757   0.848   5.452  1.5765 -0.7740 -0.3393
23238SOL    HW271869   6.671   0.757   5.537 -0.7002  3.6238  2.4003
23239SOL     OW71870   0.801   1.003   1.093 -0.0726  0.0529 -0.5558
23239SOL    HW171871   0.709   0.980   1.109  0.1671 -0.8030 -0.3568
23239SOL    HW271872   0.810   1.092   1.127 -0.9885  0.4049 -1.1751
23240SOL     OW71873   5.595   4.022   3.857 -0.0233 -0.1855 -0.3613
23240SOL    HW171874   5.677   4.037   3.904  0.0303  0.2635 -0.6001
23240SOL    HW271875   5.537   4.092   3.886 -0.3662 -0.5635 -0.1104
23241SOL     OW71876   0.271   0.109   1.399 -0.1114  0.1030  0.1825
23241SOL    HW171877   0.189   0.094   1.445  0.6648 -1.2153  1.2111
23241SOL    HW271878   0.295   0.199   1.421 -1.2681  0.5146 -0.1569
23242SOL     OW71879   9.196   3.586   7.195 -0.4450  0.2104  0.0956
23242SOL    HW171880   9.143   3.524   7.144  1.8440 -1.2682 -0.6453
23242SOL    HW271881   9.269   3.608   7.138  0.0364  1.8057  1.2519
23243SOL     OW71882   4.863   3.335   0.686 -0.5691  0.3460 -0.7039
23243SOL    HW171883   4.908   3.368   0.609  0.8384 -1.4131 -0.7003
23243SOL    HW271884   4.819   3.255   0.656  0.1757 -0.4883  0.3178
23244SOL     OW71885   1.026   1.626   2.960  0.5651 -0.0299  0.2651
23244SOL    HW171886   1.048   1.717   2.938 -0.4712  0.2334  0.2424
23244SOL    HW271887   1.087   1.573   2.909 -0.6348  0.6017 -1.9644
23245SOL     OW71888   7.284   4.307   4.789  0.8831 -0.0085 -0.3602
23245SOL    HW171889   7.247   4.325   4.703 -1.8692 -0.4731  0.5952
23245SOL    HW271890   7.291   4.211   4.792 -2.4244 -0.3612  1.0152
23246SOL     OW71891   0.316   5.929   3.224  0.5588 -0.1765 -0.3204
23246SOL    HW171892   0.222   5.937   3.206  0.2649 -1.6634  0.3451
23246SOL    HW271893   0.323   5.846   3.273  2.3090 -0.4551 -0.9946
23247SOL     OW71894   6.528   9.430   6.091 -0.0300 -0.0610 -0.7672
23247SOL    HW171895   6.590   9.445   6.019  0.9770 -1.5103 -0.2502
23247SOL    HW271896   6.455   9.383   6.051  1.3681 -2.5719 -0.6029
23248SOL     OW71897   5.135   5.086   1.881 -0.4890  0.1238 -0.0351
23248SOL    HW171898   5.216   5.042   1.857 -0.4704  0.2000 -0.1102
23248SOL    HW271899   5.146   5.176   1.852 -0.2229  0.3678  0.7957
23249SOL     OW71900   6.484   3.404   1.988  0.2954  0.8807 -0.2300
23249SOL    HW171901   6.548   3.383   2.056  0.7255  1.1185 -0.5556
23249SOL    HW271902   6.518   3.361   1.909 -0.4901  0.1285 -0.1792
23250SOL     OW71903   6.878   8.301   1.708 -0.1224 -0.3729 -0.6593
23250SOL    HW171904   6.955   8.340   1.749 -0.4030  0.0937 -0.5662
23250SOL    HW271905   6.871   8.214   1.747 -0.8680  0.3705  0.9268
23251SOL     OW71906   7.316   3.921   3.587  0.2781 -0.3867 -0.0862
23251SOL    HW171907   7.410   3.907   3.594  0.4640  0.8711  0.0854
23251SOL    HW271908   7.291   3.879   3.505  0.8776 -1.2205  0.1398
23252SOL     OW71909   2.163   8.667   0.464 -0.1177  0.0588 -0.0795
23252SOL    HW171910   2.247   8.713   0.461 -0.0127 -0.0619  0.7397
23252SOL    HW271911   2.151   8.645   0.557  0.2459 -2.2756 -0.5156
23253SOL     OW71912   9.369   5.641   0.119  0.4590  0.3943  0.4420
23253SOL    HW171913   9.361   5.568   0.181  1.5129  0.9108  1.2190
23253SOL    HW271914   9.444   5.617   0.064  1.6117  1.4290  1.5043
23254SOL     OW71915   7.157   8.351   2.200  0.0457 -0.2970 -0.0259
23254SOL    HW171916   7.186   8.314   2.283  1.0792  0.5832  0.0301
23254SOL    HW271917   7.169   8.281   2.137  2.5637  0.0312 -0.0420
23255SOL     OW71918   5.337   4.275   6.893 -0.1194  0.2828 -0.1897
23255SOL    HW171919   5.282   4.275   6.815 -0.2433 -2.2145 -0.2000
23255SOL    HW271920   5.427   4.268   6.859 -0.1923 -1.1201 -0.1543
23256SOL     OW71921   7.641   3.383   4.620 -0.6312  0.0806  0.2500
23256SOL    HW171922   7.552   3.370   4.587 -1.1924  1.4112  1.1600
23256SOL    HW271923   7.662   3.473   4.597 -0.5966  0.6847  2.4238
23257SOL     OW71924   7.527   0.946   2.823  0.0533 -0.4863  0.2545
23257SOL    HW171925   7.444   0.911   2.856 -1.1916  0.7543 -1.3745
23257SOL    HW271926   7.502   1.000   2.748  2.1391  1.5340  0.8938
23258SOL     OW71927   6.066   1.181   4.882 -0.1500 -0.5158  0.7648
23258SOL    HW171928   6.014   1.104   4.860 -0.7546 -0.1360  0.8448
23258SOL    HW271929   6.009   1.234   4.939  0.8009 -0.7330  1.9747
23259SOL     OW71930   7.206   5.293   0.663 -0.2889 -0.0180 -0.3266
23259SOL    HW171931   7.301   5.281   0.658 -0.1495  0.6648  0.4691
23259SOL    HW271932   7.186   5.290   0.757 -0.7989  1.6026 -0.3423
23260SOL     OW71933   3.723   8.817   5.846  0.1559  0.2019  0.4691
23260SOL    HW171934   3.681   8.739   5.810 -0.2388  0.1602  0.9996
23260SOL    HW271935   3.745   8.870   5.770 -3.0078  1.3493  0.2125
23261SOL     OW71936   5.064   8.237   6.545  0.0721  0.2514 -0.7440
23261SOL    HW171937   5.120   8.172   6.503  0.9649  1.6248 -1.7791
23261SOL    HW271938   5.016   8.278   6.472  0.1440  1.2904 -0.2314
23262SOL     OW71939   1.900   6.513   2.774  0.2982  0.3873  0.3338
23262SOL    HW171940   1.873   6.421   2.767  0.0455  0.5911 -2.3522
23262SOL    HW271941   1.942   6.532   2.690  1.1780  2.4862  1.1935
23263SOL     OW71942   8.043   4.054   0.751  0.1741 -0.0609  1.3336
23263SOL    HW171943   7.970   4.045   0.689 -0.2282 -1.1012  1.9317
23263SOL    HW271944   8.032   3.981   0.811  2.2298 -0.7796  0.9117
23264SOL     OW71945   2.100   5.637   9.564  0.2190  0.0098 -0.6683
23264SOL    HW171946   2.147   5.563   9.526  1.0178 -0.7679  1.6763
23264SOL    HW271947   2.166   5.682   9.617 -0.3104  2.3075 -1.8037
23265SOL     OW71948   2.771   7.672   7.309  0.3030 -0.0948 -0.0397
23265SOL    HW171949   2.704   7.739   7.320  0.6018  0.1153  0.5446
23265SOL    HW271950   2.725   7.598   7.268 -0.1398  0.2699 -0.2077
23266SOL     OW71951   4.097   7.940   5.793 -0.1257 -0.7203  1.0083
23266SOL    HW171952   4.020   7.883   5.793 -0.1858 -0.6773 -0.1767
23266SOL    HW271953   4.065   8.024   5.826 -0.7926 -0.4792 -0.1736
23267SOL     OW71954   2.539   8.140   3.184 -0.0059  0.3625 -0.1646
23267SOL    HW171955   2.526   8.075   3.115 -1.1975 -1.4482  1.6581
23267SOL    HW271956   2.634   8.152   3.187  0.1041  0.2836 -1.8932
23268SOL     OW71957   0.248   4.319   0.669 -0.0207  0.1033  0.4027
23268SOL    HW171958   0.241   4.404   0.627 -0.8189 -0.6667 -1.1283
23268SOL    HW271959   0.325   4.278   0.628  0.8862  0.3847  1.7536
23269SOL     OW71960   3.520   6.514   8.668 -0.5026  0.2300 -0.0325
23269SOL    HW171961   3.513   6.427   8.708  0.6322  0.0239 -0.2593
23269SOL    HW271962   3.468   6.508   8.588 -1.8859  0.3140  0.8260
23270SOL     OW71963   7.406   5.980   3.244  0.3741 -0.2157 -0.1138
23270SOL    HW171964   7.383   6.043   3.176 -0.7468  0.1580  0.5953
23270SOL    HW271965   7.488   6.013   3.280 -0.3830  1.0650  0.4982
23271SOL     OW71966   8.742   3.662   3.126 -0.8140  0.3402  0.4449
23271SOL    HW171967   8.719   3.718   3.201 -1.2346 -0.8785  1.2562
23271SOL    HW271968   8.661   3.615   3.106 -0.2547 -0.5953  0.3254
23272SOL     OW71969   5.605   8.011   8.702 -0.1486 -0.3572  0.0144
23272SOL    HW171970   5.623   8.102   8.727 -0.3699 -0.4293  0.4390
23272SOL    HW271971   5.510   8.008   8.692 -0.0571 -0.2752 -1.0675
23273SOL     OW71972   8.463   2.217   4.616  0.6497 -0.0617  0.0369
23273SOL    HW171973   8.526   2.160   4.661  1.6748 -0.3575 -1.7173
23273SOL    HW271974   8.507   2.302   4.611  0.2333  0.1673  0.2413
23274SOL     OW71975   8.443   1.194   6.907  0.2607  0.4271  0.3821
23274SOL    HW171976   8.526   1.228   6.939  0.0345  0.3367  1.0735
23274SOL    HW271977   8.466   1.143   6.829  1.0409 -0.8072  1.3856
23275SOL     OW71978   6.415   2.055   0.793  0.2602  0.2802  0.0586
23275SOL    HW171979   6.457   2.113   0.858 -1.4619  0.6873  0.8536
23275SOL    HW271980   6.399   1.974   0.840  1.8327 -0.5877 -0.8006
23276SOL     OW71981   0.505   0.688   1.513  0.8455  0.4819  0.2443
23276SOL    HW171982   0.433   0.751   1.501  0.2446 -0.0546  0.9561
23276SOL    HW271983   0.568   0.710   1.444 -1.4532 -1.1065 -2.5868
23277SOL     OW71984   3.712   6.389   3.628 -0.2610  0.1363 -0.1054
23277SOL    HW171985   3.704   6.300   3.661 -1.1364  0.8481  1.7231
23277SOL    HW271986   3.804   6.396   3.602 -0.4199 -1.6081 -1.3354
23278SOL     OW71987   1.898   3.028   1.980 -0.1537  0.0989  0.4376
23278SOL    HW171988   1.972   3.025   1.920  1.1939  2.4813  1.8164
23278SOL    HW271989   1.935   3.060   2.062 -2.6556  1.1064  1.2797
23279SOL     OW71990   5.280   5.763   9.466 -0.1755  0.6363 -0.3104
23279SOL    HW171991   5.197   5.792   9.506 -0.6121  0.8680 -1.3603
23279SOL    HW271992   5.256   5.686   9.415  0.7882 -1.0525  1.6221
23280SOL     OW71993   6.534   4.373   1.981 -0.4252 -0.0523  0.7733
23280SOL    HW171994   6.586   4.357   1.902 -2.5194 -0.5778 -0.5870
23280SOL    HW271995   6.505   4.463   1.972 -2.2418 -0.6763 -0.1086
23281SOL     OW71996   3.112   0.891   6.660 -0.2697  0.1608 -0.4499
23281SOL    HW171997   3.138   0.852   6.576  0.9699 -0.4534  0.1814
23281SOL    HW271998   3.180   0.956   6.679 -0.2249 -0.0986  0.3364
23282SOL     OW71999   7.144   4.670   7.882 -0.2294  0.1515 -0.0775
23282SOL    HW172000   7.082   4.649   7.951 -1.1338  0.4941 -0.7670
23282SOL    HW272001   7.130   4.602   7.816  0.8623 -0.3713  0.2022
23283SOL     OW72002   8.145   4.145   7.977  0.0907 -0.5389 -0.4393
23283SOL    HW172003   8.119   4.149   8.069  0.3032  1.1783 -0.4255
23283SOL    HW272004   8.217   4.208   7.970 -0.2869 -0.2430 -1.9048
23284SOL     OW72005   9.300   6.642   1.450 -0.5172 -0.2203 -0.1651
23284SOL    HW172006   9.313   6.548   1.435  0.4627  0.1262 -1.7746
23284SOL    HW272007   9.388   6.679   1.448 -0.9839  0.9230 -1.2558
23285SOL     OW72008   4.452   0.429   5.870  0.0335 -0.6675 -0.0650
23285SOL    HW172009   4.460   0.483   5.948  2.6147 -3.2492  1.6638
23285SOL    HW272010   4.370   0.382   5.881  0.8212 -1.7106  1.6498
23286SOL     OW72011   3.223   3.909   8.499  0.4413 -0.0153  0.0018
23286SOL    HW172012   3.194   3.950   8.417  3.1844  0.1439 -1.0327
23286SOL    HW272013   3.212   3.977   8.565  1.6612  1.2618 -1.0263
23287SOL     OW72014   3.955   0.299   3.692  0.2499 -0.3560 -0.0072
23287SOL    HW172015   3.932   0.223   3.745  2.7533 -0.1691  1.5086
23287SOL    HW272016   3.931   0.375   3.747 -1.9331  0.0496 -1.3742
23288SOL     OW72017   7.712   6.436   5.120  0.0238  0.1991 -0.3341
23288SOL    HW172018   7.740   6.383   5.195 -1.1639  1.9906  1.4855
23288SOL    HW272019   7.632   6.394   5.090 -0.1341  0.1319  0.1743
23289SOL     OW72020   6.519   5.086   2.475 -0.0235 -0.4160 -0.0597
23289SOL    HW172021   6.468   5.036   2.412 -1.2057  0.0658  0.4807
23289SOL    HW272022   6.572   5.145   2.422  1.1696 -1.9877 -0.6951
23290SOL     OW72023   6.761   2.345   1.219 -0.6683 -0.2227  0.2291
23290SOL    HW172024   6.809   2.395   1.284 -0.6144  0.9191 -0.6682
23290SOL    HW272025   6.701   2.290   1.270 -1.6086  1.6434  1.2290
23291SOL     OW72026   8.597   8.496   1.484 -0.9370  0.2521 -0.0789
23291SOL    HW172027   8.649   8.478   1.405 -1.8241  1.1227 -0.8894
23291SOL    HW272028   8.621   8.585   1.509  0.0459 -0.3523  1.2206
23292SOL     OW72029   4.514   5.464   1.807 -0.2044 -0.0268  0.6152
23292SOL    HW172030   4.528   5.408   1.731  1.5908 -0.0690  0.9335
23292SOL    HW272031   4.443   5.523   1.780 -1.6817 -1.9659  0.0369
23293SOL     OW72032   8.996   8.498   4.451  0.4162  0.0815  0.5327
23293SOL    HW172033   9.068   8.513   4.390  0.9857 -0.1161  1.1373
23293SOL    HW272034   8.917   8.511   4.399  0.8831 -0.8713 -0.4363
23294SOL     OW72035   6.459   2.846   2.435 -0.2358  0.0652  0.1721
23294SOL    HW172036   6.427   2.883   2.518  1.6162  0.3430  0.8224
23294SOL    HW272037   6.509   2.917   2.395 -0.3346 -0.3693 -0.7525
23295SOL     OW72038   9.415   6.127   8.936  0.5164 -0.3838  0.4951
23295SOL    HW172039   9.401   6.157   9.025 -0.1377  1.0144 -0.0563
23295SOL    HW272040   9.499   6.081   8.939  1.1535  0.7988  1.5640
23296SOL     OW72041   2.756   6.324   8.182  0.0374  0.3073  0.4641
23296SOL    HW172042   2.770   6.317   8.087 -0.3755  0.6511  0.3730
23296SOL    HW272043   2.825   6.382   8.213  2.1584 -2.2653  0.8892
23297SOL     OW72044   6.318   1.511   2.437  0.2808  0.1307  0.2709
23297SOL    HW172045   6.251   1.521   2.505 -0.7101 -0.5378 -0.5575
23297SOL    HW272046   6.275   1.540   2.357  1.1095  0.0190 -0.2264
23298SOL     OW72047   1.924   3.714   2.949 -0.3475 -0.0273 -0.0651
23298SOL    HW172048   2.017   3.718   2.972 -0.3941  0.4851  0.0611
23298SOL    HW272049   1.893   3.635   2.992 -0.2145  0.4069  0.8804
23299SOL     OW72050   8.731   3.010   4.775 -0.4966 -0.3624  0.1696
23299SOL    HW172051   8.789   2.950   4.727 -1.6254  0.1549 -1.9627
23299SOL    HW272052   8.644   2.971   4.766 -1.3798  1.8806 -1.8898
23300SOL     OW72053   0.728   5.852   1.927 -0.2695  0.0127 -0.3176
23300SOL    HW172054   0.645   5.874   1.885  0.3150 -0.6693 -1.9079
23300SOL    HW272055   0.774   5.797   1.863  0.0771 -2.3556  1.7776
23301SOL     OW72056   1.235   3.569   5.849 -0.3870  0.0529  0.5945
23301SOL    HW172057   1.323   3.598   5.826  0.2691 -1.5464  0.9402
23301SOL    HW272058   1.194   3.646   5.888  0.9648  0.7548  0.7036
23302SOL     OW72059   2.820   8.532   1.104 -0.1423  0.0186  0.7774
23302SOL    HW172060   2.762   8.484   1.164  1.0840 -1.7857  0.6018
23302SOL    HW272061   2.782   8.517   1.018  0.7363 -1.5312  0.6115
23303SOL     OW72062   7.703   2.628   0.667 -0.3332  0.3326 -0.2212
23303SOL    HW172063   7.607   2.635   0.668 -0.2132  2.5298  0.2584
23303SOL    HW272064   7.730   2.663   0.752  0.8770 -1.2374  0.0875
23304SOL     OW72065   1.533   1.035   9.155  0.0292 -0.1516 -0.0341
23304SOL    HW172066   1.616   1.080   9.172 -0.1153  0.6430 -1.2829
23304SOL    HW272067   1.552   0.943   9.169  0.9150  0.0936  0.4567
23305SOL     OW72068   6.105   5.999   0.157 -0.4493 -0.3153  0.4070
23305SOL    HW172069   6.142   5.982   0.071 -1.4296 -0.7610  0.0518
23305SOL    HW272070   6.101   5.913   0.199 -1.1489 -0.2948  0.3969
23306SOL     OW72071   2.072   4.230   1.024 -0.3047  0.2733 -0.0229
23306SOL    HW172072   2.014   4.226   0.948 -0.8520 -0.3234  0.4127
23306SOL    HW272073   2.142   4.291   0.998 -0.6978  0.3877 -0.8462
23307SOL     OW72074   6.422   5.564   9.263  0.3051  0.0479 -0.3013
23307SOL    HW172075   6.363   5.582   9.190 -3.6888  1.0447  2.8308
23307SOL    HW272076   6.437   5.649   9.304  0.5203 -0.7315  1.3274
23308SOL     OW72077   9.126   1.284   3.719 -0.1883 -0.5283  0.7302
23308SOL    HW172078   9.101   1.227   3.791  0.4366 -1.7877 -0.0180
23308SOL    HW272079   9.049   1.337   3.701 -0.8875 -1.3664  1.2312
23309SOL     OW72080   7.295   1.623   1.113  0.0689  0.1351  0.3823
23309SOL    HW172081   7.230   1.662   1.172  0.0008  0.3006  0.1988
23309SOL    HW272082   7.243   1.591   1.039 -0.1350 -2.0891  1.4068
23310SOL     OW72083   6.170   2.746   6.101  0.4813  0.1539 -0.1821
23310SOL    HW172084   6.142   2.754   6.192  0.7253  0.3978 -0.1251
23310SOL    HW272085   6.218   2.664   6.098  0.2483  0.0173 -0.1495
23311SOL     OW72086   9.321   8.420   2.059  0.6993 -0.2127 -0.3891
23311SOL    HW172087   9.271   8.389   1.984 -0.2640  1.3881 -0.4453
23311SOL    HW272088   9.376   8.346   2.083 -0.3112 -1.3771 -1.5233
23312SOL     OW72089   3.569   8.228   6.795  0.6325 -0.4754  0.3701
23312SOL    HW172090   3.601   8.297   6.738 -0.4271 -1.3868 -1.4250
23312SOL    HW272091   3.595   8.147   6.752 -1.5307 -1.2106  0.2877
23313SOL     OW72092   5.882   6.618   4.881 -0.2198  0.2094 -0.3365
23313SOL    HW172093   5.894   6.695   4.937  1.3628 -0.1578 -0.1246
23313SOL    HW272094   5.811   6.569   4.923 -0.7596  1.1867 -0.0729
23314SOL     OW72095   3.898   7.797   1.934  0.2447 -0.8666 -0.2201
23314SOL    HW172096   3.969   7.842   1.888  1.6649 -2.3876  0.4036
23314SOL    HW272097   3.819   7.830   1.892  1.1848  1.8769 -0.0825
23315SOL     OW72098   3.406   8.361   6.348  0.0133  0.1239 -0.3765
23315SOL    HW172099   3.340   8.322   6.290 -1.0926  1.3131  0.0163
23315SOL    HW272100   3.489   8.345   6.304 -0.6912 -0.0064 -1.7222
23316SOL     OW72101   2.284   8.612   0.968 -0.4223 -0.1800 -0.0523
23316SOL    HW172102   2.309   8.693   0.924  0.6969 -0.9866 -0.9656
23316SOL    HW272103   2.359   8.554   0.954 -1.4947 -1.6082 -0.0111
23317SOL     OW72104   1.031   0.683   8.498 -0.3290 -0.0970 -0.4276
23317SOL    HW172105   0.983   0.631   8.562  0.7637 -1.3193 -0.5665
23317SOL    HW272106   1.007   0.645   8.413  0.2562 -0.1975 -0.5519
23318SOL     OW72107   8.624   8.348   1.853 -0.0318  0.0565  0.0890
23318SOL    HW172108   8.714   8.380   1.857  0.4675 -1.0090 -1.4813
23318SOL    HW272109   8.604   8.321   1.943  1.1777  0.4052  0.4838
23319SOL     OW72110   9.622   2.180   7.318 -0.4851  0.0814 -0.4440
23319SOL    HW172111   9.649   2.269   7.341 -0.4200 -0.2613  0.8649
23319SOL    HW272112   9.561   2.155   7.387 -0.4331 -0.9291 -0.7477
23320SOL     OW72113   5.522   7.770   7.222 -0.1527 -0.1020  0.1785
23320SOL    HW172114   5.493   7.777   7.313 -0.3182  1.4994  0.0276
23320SOL    HW272115   5.441   7.761   7.172 -0.1823  0.8166  0.0506
23321SOL     OW72116   6.844   1.214   9.184 -0.0526 -0.4415  0.5404
23321SOL    HW172117   6.847   1.122   9.212 -1.7110 -0.6869 -0.0164
23321SOL    HW272118   6.835   1.210   9.089  0.5979  0.3268  0.4310
23322SOL     OW72119   8.339   2.100   4.325 -0.3509 -1.0084  0.0927
23322SOL    HW172120   8.258   2.117   4.373 -0.4563 -0.2930 -0.3176
23322SOL    HW272121   8.350   2.178   4.269  1.7052 -0.1382  1.6051
23323SOL     OW72122   3.299   0.764   1.512 -0.0152  0.0095  0.1938
23323SOL    HW172123   3.369   0.823   1.485 -0.4037  0.5984  0.4503
23323SOL    HW272124   3.319   0.744   1.604 -0.3917  0.4938  0.3858
23324SOL     OW72125   4.830   1.870   1.654  0.0706  0.6138 -0.0291
23324SOL    HW172126   4.867   1.860   1.742 -0.5152  1.0175  0.2724
23324SOL    HW272127   4.858   1.792   1.607 -0.0784  0.1176  0.6896
23325SOL     OW72128   4.741   4.291   5.867 -0.1261 -0.1468  0.1688
23325SOL    HW172129   4.754   4.199   5.846  3.3297 -0.3012  2.2546
23325SOL    HW272130   4.829   4.324   5.889 -1.2503  3.5798 -0.1541
23326SOL     OW72131   8.701   5.217   6.541 -0.2532  0.3450  0.1823
23326SOL    HW172132   8.739   5.293   6.497  0.2218 -0.8805 -1.6255
23326SOL    HW272133   8.769   5.188   6.601 -0.0875  0.8170  0.2259
23327SOL     OW72134   6.709   1.630   2.771  0.1381 -0.4950  0.1613
23327SOL    HW172135   6.682   1.697   2.834 -0.3910 -1.7269  1.2880
23327SOL    HW272136   6.627   1.597   2.735  0.4223 -0.1337 -0.8461
23328SOL     OW72137   4.246   7.962   2.107  0.0469  0.2409 -0.2324
23328SOL    HW172138   4.162   7.980   2.065  0.1554 -1.0439 -1.0745
23328SOL    HW272139   4.222   7.917   2.188 -0.1015 -2.1301 -1.4991
23329SOL     OW72140   9.270   4.531   3.339 -0.3499 -0.1393 -0.0265
23329SOL    HW172141   9.280   4.438   3.360 -1.5091 -0.3131 -0.1441
23329SOL    HW272142   9.274   4.575   3.424  0.4923 -0.2551  0.0042
23330SOL     OW72143   7.668   8.362   2.386  0.0873 -0.4552  1.0247
23330SOL    HW172144   7.720   8.440   2.364 -1.7021  0.6429  0.4798
23330SOL    HW272145   7.713   8.323   2.461  0.8324  1.3207  1.5506
23331SOL     OW72146   4.924   7.128   8.452  0.2762  0.2866  0.4330
23331SOL    HW172147   4.904   7.185   8.378  0.9282 -0.1351 -0.0821
23331SOL    HW272148   4.980   7.181   8.509  0.9889  0.1433 -0.1072
23332SOL     OW72149   7.310   6.997   3.141 -0.4581  1.0147  0.1341
23332SOL    HW172150   7.311   7.070   3.202  1.8774  0.6815  0.5776
23332SOL    HW272151   7.369   7.024   3.070 -1.1491  0.3526 -0.7267
23333SOL     OW72152   5.277   4.768   7.034  0.3249 -0.2627  0.2672
23333SOL    HW172153   5.202   4.751   7.091  0.5947 -0.0494  0.6862
23333SOL    HW272154   5.252   4.845   6.983 -0.4558 -1.2201 -0.8537
23334SOL     OW72155   8.223   0.772   5.824  0.3292 -0.2183 -0.5123
23334SOL    HW172156   8.190   0.850   5.779  2.1038  1.5348  1.0544
23334SOL    HW272157   8.277   0.727   5.759  0.2038  0.4766 -1.1053
23335SOL     OW72158   0.758   2.968   4.150 -0.0760 -0.5114  0.2964
23335SOL    HW172159   0.699   3.043   4.150 -1.2608 -1.4038  1.6150
23335SOL    HW272160   0.703   2.894   4.175  1.5207 -1.4406  1.1982
23336SOL     OW72161   2.414   3.288   8.537  0.3998 -0.4235  0.0330
23336SOL    HW172162   2.494   3.338   8.519 -1.1008  1.6262 -1.3703
23336SOL    HW272163   2.438   3.197   8.516  2.2905  0.1615 -0.5546
23337SOL     OW72164   1.201   0.951   2.012  0.2453 -0.0645 -0.1652
23337SOL    HW172165   1.220   1.011   1.940 -0.1663 -0.3967 -0.5580
23337SOL    HW272166   1.121   0.985   2.052 -0.1313 -0.4869 -0.5487
23338SOL     OW72167   2.194   5.785   8.644  0.2623  0.3207 -0.2861
23338SOL    HW172168   2.247   5.750   8.572 -1.5790  1.8942 -2.5836
23338SOL    HW272169   2.126   5.719   8.657  0.8890 -0.2016  0.3967
23339SOL     OW72170   6.091   2.526   1.497 -0.1564  0.1379 -0.4339
23339SOL    HW172171   6.072   2.568   1.580  0.6090  0.3368 -0.3505
23339SOL    HW272172   6.033   2.450   1.495  0.0400 -0.0461  0.4206
23340SOL     OW72173   0.373   6.609   8.678  0.5412 -0.0224  0.5979
23340SOL    HW172174   0.322   6.528   8.677  0.1380  0.2240 -0.7594
23340SOL    HW272175   0.440   6.594   8.744 -0.8319 -0.6317  1.9349
23341SOL     OW72176   4.351   2.840   6.836 -0.3026  1.1075 -0.0851
23341SOL    HW172177   4.308   2.832   6.751  0.3629  0.9524 -0.4113
23341SOL    HW272178   4.445   2.832   6.817 -0.0187  2.7679  0.4402
23342SOL     OW72179   6.496   8.799   7.284  0.2247  0.1743  0.3116
23342SOL    HW172180   6.476   8.711   7.316 -1.0219 -0.3997 -1.8478
23342SOL    HW272181   6.555   8.785   7.210  0.2794  1.1810  0.1538
23343SOL     OW72182   4.313   0.521   6.274  0.2012  0.2056 -0.2249
23343SOL    HW172183   4.354   0.482   6.351 -0.8406 -2.8235 -1.0665
23343SOL    HW272184   4.386   0.559   6.224  1.8999 -3.4560 -0.8176
23344SOL     OW72185   6.996   1.286   0.445  0.1301 -0.1816 -0.5704
23344SOL    HW172186   7.020   1.254   0.532  0.6037  0.3290 -0.5041
23344SOL    HW272187   6.904   1.264   0.436  0.1456 -0.4936 -0.0550
23345SOL     OW72188   0.986   2.837   4.181 -0.0485  0.7378 -0.5911
23345SOL    HW172189   0.977   2.753   4.138  0.8628  0.0938  0.4055
23345SOL    HW272190   0.898   2.875   4.179 -1.1796 -1.4732  1.3655
23346SOL     OW72191   1.325   2.919   3.572  0.0223  0.1059 -0.4496
23346SOL    HW172192   1.344   2.944   3.663  0.1577 -0.9354 -0.1794
23346SOL    HW272193   1.334   3.001   3.522  1.4478  0.4041  0.2407
23347SOL     OW72194   2.687   1.032   7.039  0.0216  0.4421 -0.2379
23347SOL    HW172195   2.630   1.018   7.115 -0.0902  1.9288 -0.0106
23347SOL    HW272196   2.749   0.960   7.042 -1.8297 -1.2452 -0.5135
23348SOL     OW72197   6.130   3.086   2.870  0.3238 -0.5523 -0.5506
23348SOL    HW172198   6.091   2.999   2.879  0.1507 -0.3985  0.2699
23348SOL    HW272199   6.057   3.147   2.880  0.5697 -0.2909 -0.3118
23349SOL     OW72200   8.197   7.100   3.693 -0.0019 -0.0128 -0.3660
23349SOL    HW172201   8.286   7.064   3.692  0.9397  2.1024 -2.5679
23349SOL    HW272202   8.178   7.110   3.786  0.9185 -2.9673  0.2675
23350SOL     OW72203   9.237   2.623   0.811 -0.4924 -0.5577  0.5211
23350SOL    HW172204   9.149   2.590   0.789 -1.0611  1.4398 -0.3403
23350SOL    HW272205   9.229   2.718   0.808  2.0163 -0.3064 -0.7938
23351SOL     OW72206   7.452   5.805   0.638 -0.4037  0.7333  0.5797
23351SOL    HW172207   7.510   5.821   0.564 -0.5495  1.7776  0.6761
23351SOL    HW272208   7.387   5.743   0.604  0.3420  0.1229  0.2582
23352SOL     OW72209   9.446   4.012   6.811 -0.2236  0.3974  0.2399
23352SOL    HW172210   9.392   4.090   6.802 -0.1341  0.6805  1.9040
23352SOL    HW272211   9.534   4.040   6.785 -0.2766  0.7270  0.4146
23353SOL     OW72212   6.992   5.664   6.398  0.3381  0.3927  0.1957
23353SOL    HW172213   7.004   5.583   6.448  0.6017 -0.4570 -1.1654
23353SOL    HW272214   7.079   5.704   6.397  1.0111 -0.9507 -1.7416
23354SOL     OW72215   2.628   4.313   0.295  0.4441  0.7105 -1.0192
23354SOL    HW172216   2.717   4.348   0.292  1.0770 -0.6760  0.4815
23354SOL    HW272217   2.611   4.286   0.204  1.4243  1.2839 -1.3927
23355SOL     OW72218   1.330   9.345   2.316 -0.2518  0.1364  0.1609
23355SOL    HW172219   1.312   9.262   2.360 -0.2496  0.0977  0.0892
23355SOL    HW272220   1.370   9.320   2.233 -1.4769  0.1510 -0.4636
23356SOL     OW72221   6.178   4.836   0.156 -0.5928 -0.2401  0.2380
23356SOL    HW172222   6.164   4.928   0.179  0.3007  0.2020 -0.8855
23356SOL    HW272223   6.092   4.795   0.168 -1.0651  0.7977  0.5028
23357SOL     OW72224   1.890   6.653   0.318  0.0692  0.0654  0.4154
23357SOL    HW172225   1.829   6.627   0.248  0.7595 -0.0953 -0.1397
23357SOL    HW272226   1.837   6.706   0.377 -0.4125  0.6673 -0.5215
23358SOL     OW72227   6.623   9.035   0.971  0.0696 -0.9973  0.4147
23358SOL    HW172228   6.541   9.019   1.018 -0.8255  1.3990 -0.1615
23358SOL    HW272229   6.595   9.058   0.882  0.9797  2.8725  0.9077
23359SOL     OW72230   2.828   7.017   7.019 -0.1339 -0.6706  0.4209
23359SOL    HW172231   2.843   7.072   7.096  0.9710 -1.8151  1.0450
23359SOL    HW272232   2.904   7.034   6.963 -1.1674  0.5415 -0.7086
23360SOL     OW72233   8.803   1.163   4.118  0.6164 -0.3245 -0.0436
23360SOL    HW172234   8.846   1.142   4.200  1.3554 -0.7097 -0.5174
23360SOL    HW272235   8.765   1.081   4.088 -0.0489 -0.0876  0.1335
23361SOL     OW72236   1.250   6.768   8.061 -0.7643  0.2027  0.2638
23361SOL    HW172237   1.185   6.801   8.122 -0.5075 -0.8886  1.1803
23361SOL    HW272238   1.326   6.748   8.116 -0.1356  0.2111 -0.5824
23362SOL     OW72239   3.934   4.888   9.179 -0.3425 -0.0412 -0.3021
23362SOL    HW172240   3.979   4.839   9.110  0.1967 -0.2348  0.1766
23362SOL    HW272241   3.963   4.847   9.260 -0.0033  0.9579  0.1065
23363SOL     OW72242   7.550   6.500   0.607 -0.5620 -0.6758 -0.0916
23363SOL    HW172243   7.496   6.438   0.556  0.8375  0.1313 -2.7500
23363SOL    HW272244   7.622   6.447   0.640 -0.8548 -0.9913  0.0510
23364SOL     OW72245   8.337   9.255   8.183  0.3641  0.0386 -0.2665
23364SOL    HW172246   8.409   9.194   8.200  0.8414  1.0034  1.4379
23364SOL    HW272247   8.258   9.203   8.197  0.7210 -0.7942 -1.2370
23365SOL     OW72248   1.694   3.106   7.992 -0.1332  1.0391  0.2984
23365SOL    HW172249   1.598   3.099   8.000 -0.4029  1.9411 -1.6559
23365SOL    HW272250   1.708   3.181   7.935  1.7085  0.1204 -0.5400
23366SOL     OW72251   1.641   5.388   6.419  0.0524  0.1244 -0.4065
23366SOL    HW172252   1.586   5.442   6.362 -1.2367  1.7196  2.1571
23366SOL    HW272253   1.583   5.320   6.452  0.1629  0.4996  0.6067
23367SOL     OW72254   1.530   5.294   3.334  1.0418  0.2833  0.2533
23367SOL    HW172255   1.590   5.221   3.321 -1.0167 -1.2402 -1.2168
23367SOL    HW272256   1.467   5.262   3.399 -0.9157 -0.0354 -1.6758
23368SOL     OW72257   3.485   1.846   0.149 -0.1655 -0.3530  0.3463
23368SOL    HW172258   3.411   1.885   0.103 -0.3866 -0.0216  0.9722
23368SOL    HW272259   3.445   1.794   0.219  0.1472 -1.2473 -0.1308
23369SOL     OW72260   4.761   4.109   0.879 -0.0466  0.4299  0.0255
23369SOL    HW172261   4.737   4.127   0.788  0.4964 -4.3149 -1.3164
23369SOL    HW272262   4.854   4.131   0.884 -0.3093  1.6706 -0.1960
23370SOL     OW72263   8.983   1.849   8.075  0.1897  0.5564 -0.1229
23370SOL    HW172264   8.891   1.855   8.049 -0.0048 -1.0645  0.0821
23370SOL    HW272265   9.002   1.932   8.118 -1.3519  0.6761  0.3632
23371SOL     OW72266   6.800   9.011   8.756 -0.2033 -0.0840  0.1239
23371SOL    HW172267   6.868   8.955   8.719 -1.1838 -1.1155 -0.1916
23371SOL    HW272268   6.749   9.040   8.680  0.3800  1.3820  0.2722
23372SOL     OW72269   8.864   4.866   5.508 -0.4541  0.5726 -0.0290
23372SOL    HW172270   8.924   4.827   5.445  1.5272  1.4381  1.2466
23372SOL    HW272271   8.889   4.959   5.511 -2.2958  1.1035  0.0768
23373SOL     OW72272   9.394   4.641   6.590 -0.3829 -0.1867  0.6333
23373SOL    HW172273   9.318   4.683   6.629 -0.8064 -0.5729  0.2276
23373SOL    HW272274   9.465   4.656   6.653 -0.9244 -0.3083  1.2712
23374SOL     OW72275   1.136   3.317   0.701 -0.2068 -0.0725  0.0496
23374SOL    HW172276   1.166   3.272   0.623 -1.5918 -0.0177 -0.5384
23374SOL    HW272277   1.210   3.371   0.728  0.7804 -1.1785 -0.3770
23375SOL     OW72278   4.319   8.037   5.447 -0.3925 -0.8095  0.3131
23375SOL    HW172279   4.386   7.984   5.404 -0.2254  1.6009 -2.7658
23375SOL    HW272280   4.243   7.979   5.453  0.1015 -1.8098 -1.9150
23376SOL     OW72281   3.334   8.178   7.871  0.2270 -0.2136  0.0270
23376SOL    HW172282   3.310   8.261   7.913 -0.8099 -1.5956  2.3118
23376SOL    HW272283   3.429   8.183   7.861  0.1787  1.2766  0.0057
23377SOL     OW72284   1.764   3.652   7.855 -0.4951 -1.2146  0.1285
23377SOL    HW172285   1.707   3.595   7.805 -1.6058 -0.5044  0.5365
23377SOL    HW272286   1.707   3.689   7.923  0.1416  0.4720 -0.2086
23378SOL     OW72287   4.945   6.709   3.682 -0.0993 -0.1853 -0.7788
23378SOL    HW172288   4.953   6.721   3.588 -1.8569 -0.0786 -0.9441
23378SOL    HW272289   4.908   6.792   3.714  0.9626 -0.0204  0.0991
23379SOL     OW72290   1.975   7.244   0.569 -0.2225 -0.0338 -0.1505
23379SOL    HW172291   2.014   7.177   0.512 -0.3835 -0.4484  0.2216
23379SOL    HW272292   2.042   7.312   0.575  0.9992 -1.3071  1.5191
23380SOL     OW72293   8.962   6.660   8.618  0.2176  0.3221  0.3129
23380SOL    HW172294   8.914   6.740   8.639  0.5420  0.5466  0.2044
23380SOL    HW272295   8.894   6.593   8.611  0.0457  0.3273  1.6393
23381SOL     OW72296   2.344   3.856   2.747 -0.1173 -0.2105  0.1799
23381SOL    HW172297   2.277   3.920   2.772 -0.4566  0.1743 -1.5622
23381SOL    HW272298   2.412   3.909   2.703 -0.1233 -0.9450 -0.7540
23382SOL     OW72299   4.753   0.344   2.453 -0.3960 -0.1718 -0.1947
23382SOL    HW172300   4.822   0.293   2.411 -0.7416 -1.1673  0.4128
23382SOL    HW272301   4.722   0.403   2.384 -0.0528 -0.8561 -0.9609
23383SOL     OW72302   9.103   6.800   1.088 -0.5043 -0.0523  0.1372
23383SOL    HW172303   9.032   6.762   1.140 -0.1857 -1.4472 -0.4077
23383SOL    HW272304   9.157   6.725   1.063  0.7657  0.9028 -0.0622
23384SOL     OW72305   4.947   2.904   6.243  0.0703 -0.2388  0.6174
23384SOL    HW172306   4.942   2.844   6.169 -1.8875 -0.9826  1.2820
23384SOL    HW272307   4.938   2.848   6.320 -3.0447  0.9032  1.2245
23385SOL     OW72308   5.930   7.223   6.989  0.2516  0.0748  0.3927
23385SOL    HW172309   5.889   7.221   7.075 -1.0684 -2.2912 -0.1975
23385SOL    HW272310   5.926   7.132   6.959  2.2615  0.5161 -1.4488
23386SOL     OW72311   1.664   1.023   1.914  0.2430  0.0599  0.1010
23386SOL    HW172312   1.739   0.967   1.894 -0.7131 -0.6207 -1.8125
23386SOL    HW272313   1.626   1.045   1.829 -0.5483  2.0870  0.9058
23387SOL     OW72314   4.834   7.021   7.866  0.5495 -0.4145  0.1521
23387SOL    HW172315   4.918   6.981   7.846  1.6687  1.2140  1.3330
23387SOL    HW272316   4.837   7.037   7.960 -1.3139 -0.7878  0.3075
23388SOL     OW72317   0.414   8.754   8.395 -0.1179  0.3115  0.2792
23388SOL    HW172318   0.491   8.705   8.424  0.3256 -0.4048 -1.9549
23388SOL    HW272319   0.347   8.687   8.381 -0.7679  0.7998  0.9608
23389SOL     OW72320   0.826   7.622   5.094 -0.0769 -0.5802 -0.4620
23389SOL    HW172321   0.848   7.589   5.181  0.9040 -0.7268 -0.7433
23389SOL    HW272322   0.793   7.710   5.108  0.4224 -0.4696  0.0293
23390SOL     OW72323   6.291   6.331   5.636 -0.1302  0.7569  0.1121
23390SOL    HW172324   6.202   6.311   5.664 -0.3489 -1.3191 -1.7995
23390SOL    HW272325   6.347   6.271   5.686 -0.4532 -2.3671 -2.9209
23391SOL     OW72326   5.815   1.944   2.271 -0.6581 -0.3129  0.2127
23391SOL    HW172327   5.743   1.881   2.270 -0.5924 -0.3999 -1.5835
23391SOL    HW272328   5.844   1.949   2.180  1.2688  0.1225  0.8057
23392SOL     OW72329   1.110   0.940   4.783 -0.3366  0.5446 -0.6767
23392SOL    HW172330   1.066   0.949   4.698  1.8280 -0.2157 -1.9513
23392SOL    HW272331   1.203   0.939   4.761  0.2634 -0.0347  1.6964
23393SOL     OW72332   8.806   7.779   1.686 -0.3674 -0.4139  0.4520
23393SOL    HW172333   8.740   7.844   1.660  0.7248  1.0223  1.1333
23393SOL    HW272334   8.889   7.823   1.672  0.5066 -2.3875 -0.8930
23394SOL     OW72335   1.130   4.627   0.564 -0.4837  0.1355  0.1404
23394SOL    HW172336   1.180   4.581   0.497 -0.4732 -0.7837  0.7574
23394SOL    HW272337   1.038   4.607   0.544 -0.4257 -1.8643  1.5391
23395SOL     OW72338   8.166   9.515   4.454  0.3627  0.4621  0.5464
23395SOL    HW172339   8.126   9.596   4.422  0.7700  0.4573  0.0010
23395SOL    HW272340   8.104   9.446   4.431 -0.3385  0.6914  1.6841
23396SOL     OW72341   7.132   8.389   5.689  0.3073 -0.0895  0.0767
23396SOL    HW172342   7.050   8.342   5.705  0.8267 -0.0660  3.6808
23396SOL    HW272343   7.106   8.480   5.682 -0.0865 -0.2015  0.0590
23397SOL     OW72344   7.205   2.403   5.718 -0.1361 -0.2935 -0.0416
23397SOL    HW172345   7.170   2.387   5.630  1.9733  0.5705 -1.1025
23397SOL    HW272346   7.235   2.494   5.716  2.3580 -1.0152  0.6516
23398SOL     OW72347   7.452   6.532   2.383  0.0152 -0.4475 -0.5163
23398SOL    HW172348   7.361   6.522   2.410 -0.0187  0.3775 -0.2855
23398SOL    HW272349   7.464   6.627   2.375  1.5057 -0.3416  1.8090
23399SOL     OW72350   6.740   2.013   6.182  0.4100 -0.4467  0.0286
23399SOL    HW172351   6.766   1.928   6.217  1.4551 -0.0856  0.1593
23399SOL    HW272352   6.797   2.027   6.107  1.6098  0.9988  1.1633
23400SOL     OW72353   6.011   2.092   9.573 -0.2181 -0.4298  0.0856
23400SOL    HW172354   6.001   2.131   9.487 -1.1271  0.0162  0.3829
23400SOL    HW272355   5.969   2.154   9.633  0.6760 -0.5804  0.8881
23401SOL     OW72356   8.917   4.572   0.799  0.1326 -0.4911  0.7779
23401SOL    HW172357   8.872   4.585   0.883  0.0684  0.7405  0.5713
23401SOL    HW272358   8.982   4.642   0.796  0.2224 -0.6110 -0.1458
23402SOL     OW72359   3.056   5.520   1.169 -0.1646  0.1191  0.5350
23402SOL    HW172360   3.010   5.498   1.088 -0.4162 -0.3087  0.7954
23402SOL    HW272361   3.111   5.444   1.187 -2.5091 -1.2655  2.5152
23403SOL     OW72362   5.429   3.214   4.076  0.2734  0.2091 -0.0729
23403SOL    HW172363   5.473   3.138   4.039 -0.7115  0.0583 -0.9736
23403SOL    HW272364   5.477   3.233   4.157  1.5182 -0.3812 -0.6580
23404SOL     OW72365   5.741   0.508   5.188  0.7272 -0.2943 -0.0016
23404SOL    HW172366   5.705   0.429   5.148 -3.0470  0.4744  1.4674
23404SOL    HW272367   5.790   0.550   5.117 -1.6769 -1.3254 -2.4596
23405SOL     OW72368   3.136   6.295   0.521  0.1196  0.3755  0.3799
23405SOL    HW172369   3.172   6.268   0.437  2.3212  0.6728  1.1724
23405SOL    HW272370   3.125   6.390   0.512  2.0284  0.6854  0.9714
23406SOL     OW72371   4.589   1.192   1.319  0.0832 -0.6128  0.4169
23406SOL    HW172372   4.650   1.136   1.368 -0.0596 -1.2457 -0.1165
23406SOL    HW272373   4.644   1.249   1.267  0.2323 -1.1502 -0.0267
23407SOL     OW72374   0.128   3.400   5.997  0.1101  0.1720 -0.3317
23407SOL    HW172375   0.037   3.416   5.974 -0.3406 -0.7922  0.6632
23407SOL    HW272376   0.135   3.304   6.001  0.4921  0.2269  2.0090
23408SOL     OW72377   2.790   3.642   3.584 -0.0490  0.6088 -0.1885
23408SOL    HW172378   2.707   3.631   3.629 -1.4510  0.9800 -2.5257
23408SOL    HW272379   2.847   3.574   3.622 -0.6947  1.6119  2.8390
23409SOL     OW72380   9.359   3.993   3.783  0.5816  0.3191  0.6877
23409SOL    HW172381   9.315   3.977   3.700 -0.3032 -0.2892  1.2538
23409SOL    HW272382   9.357   4.088   3.793  1.9551  0.5257 -0.6308
23410SOL     OW72383   1.600   3.717   3.645  0.0070 -0.0252  0.1294
23410SOL    HW172384   1.612   3.794   3.590  2.3642 -0.6995 -0.3758
23410SOL    HW272385   1.651   3.735   3.724  0.9386 -1.2324 -0.1751
23411SOL     OW72386   7.847   6.586   8.581  0.3990  0.2214  0.4013
23411SOL    HW172387   7.910   6.526   8.540  0.1222  0.8066 -0.9256
23411SOL    HW272388   7.768   6.534   8.592 -0.3279  0.6460 -2.0811
23412SOL     OW72389   3.863   3.406   0.638 -0.0527  0.2006 -0.1230
23412SOL    HW172390   3.862   3.338   0.571 -0.1229  0.7900 -0.7241
23412SOL    HW272391   3.881   3.487   0.591  2.6823  0.2819  0.9015
23413SOL     OW72392   5.173   5.824   8.817 -0.6260 -0.0208  0.6131
23413SOL    HW172393   5.115   5.862   8.751  0.0447  0.5110  0.3293
23413SOL    HW272394   5.258   5.864   8.801 -1.1179  2.8301  3.9402
23414SOL     OW72395   7.382   6.399   7.899  0.0641 -0.5837  0.1189
23414SOL    HW172396   7.438   6.326   7.925  0.9224  0.3986  1.1611
23414SOL    HW272397   7.444   6.468   7.875 -0.7107  0.1475  0.1749
23415SOL     OW72398   1.720   5.432   4.189  0.5086 -0.4522  0.0063
23415SOL    HW172399   1.806   5.396   4.168  0.7222  1.6845 -3.6822
23415SOL    HW272400   1.671   5.427   4.107 -2.5803 -0.6386  1.7055
23416SOL     OW72401   1.666   1.834   0.730 -0.1583  0.3216  0.2345
23416SOL    HW172402   1.700   1.919   0.701 -1.8822  0.1643 -2.7371
23416SOL    HW272403   1.739   1.773   0.717  0.4595  1.0185  0.4079
23417SOL     OW72404   4.156   8.827   9.252 -0.5440  0.3356  0.1245
23417SOL    HW172405   4.209   8.870   9.185 -3.3088  1.5350 -1.5232
23417SOL    HW272406   4.151   8.736   9.224  1.3968 -0.0516  0.9037
23418SOL     OW72407   7.478   2.116   2.559  0.4133  0.3720  0.3663
23418SOL    HW172408   7.456   2.034   2.602  1.3332  0.0480  0.2276
23418SOL    HW272409   7.447   2.106   2.469 -2.2425  1.3445  1.0510
23419SOL     OW72410   5.576   7.910   3.344 -0.2720 -0.0694 -0.6540
23419SOL    HW172411   5.539   7.967   3.412 -0.4017  2.2342 -2.5061
23419SOL    HW272412   5.596   7.828   3.389 -2.3849  0.5598  1.6519
23420SOL     OW72413   7.021   8.635   8.919  0.0803  0.7339  0.1237
23420SOL    HW172414   6.984   8.566   8.975  0.0555  1.6022  1.2256
23420SOL    HW272415   6.968   8.712   8.938  0.1036  1.0705 -1.0997
23421SOL     OW72416   9.337   3.948   7.065  0.4111 -0.0802  0.3077
23421SOL    HW172417   9.392   3.962   6.989 -0.6789  0.9094 -0.3300
23421SOL    HW272418   9.248   3.969   7.035  0.0330  0.9178  1.9874
23422SOL     OW72419   3.604   6.073   8.344  0.2750  0.4994 -0.0060
23422SOL    HW172420   3.554   6.047   8.266  1.1739  0.2969 -0.5347
23422SOL    HW272421   3.596   5.999   8.404  1.3513 -0.2792 -0.7862
23423SOL     OW72422   7.141   4.341   8.978  0.4291 -0.2136 -0.9354
23423SOL    HW172423   7.055   4.375   8.954  0.7160 -0.3981 -2.3316
23423SOL    HW272424   7.201   4.412   8.957  0.8309 -0.8698 -2.0733
23424SOL     OW72425   9.018   5.102   8.441 -0.6837 -0.0515 -0.3687
23424SOL    HW172426   8.975   5.141   8.365 -0.1542 -0.7270 -1.0340
23424SOL    HW272427   8.976   5.016   8.451 -0.4084 -0.1664 -0.1974
23425SOL     OW72428   5.661   6.864   5.264  0.1117 -0.5016  0.2424
23425SOL    HW172429   5.721   6.794   5.290  0.9912 -0.6167 -1.9111
23425SOL    HW272430   5.614   6.828   5.189 -0.5151  0.6818  0.0474
23426SOL     OW72431   0.848   4.724   1.869 -0.4638  0.1072 -0.1588
23426SOL    HW172432   0.924   4.781   1.853  1.2821 -1.2046  2.6978
23426SOL    HW272433   0.863   4.648   1.814 -0.5626  0.5182 -0.7688
23427SOL     OW72434   5.272   8.611   7.124 -0.2437  0.1857  0.1881
23427SOL    HW172435   5.335   8.656   7.067  0.5230 -1.0656  0.0071
23427SOL    HW272436   5.200   8.586   7.066 -0.2551  0.3944  0.1119
23428SOL     OW72437   7.292   1.169   3.286 -0.5859 -0.1659 -0.5541
23428SOL    HW172438   7.322   1.194   3.199  0.3043 -1.1435 -0.5529
23428SOL    HW272439   7.248   1.085   3.273  0.3926 -0.7921  0.0565
23429SOL     OW72440   8.584   7.453   2.060 -0.1171  0.4855  0.2776
23429SOL    HW172441   8.517   7.388   2.040 -0.0787  0.5854 -0.1778
23429SOL    HW272442   8.552   7.495   2.140  0.9254 -1.5526  1.8517
23430SOL     OW72443   1.150   3.655   1.169 -0.4530 -0.2606 -0.2838
23430SOL    HW172444   1.178   3.723   1.108 -1.9429 -0.3145 -1.0801
23430SOL    HW272445   1.088   3.699   1.227  0.8840 -0.2271  1.1972
23431SOL     OW72446   8.314   5.886   6.692  0.1961 -0.0552  0.1968
23431SOL    HW172447   8.388   5.850   6.643 -0.1480  0.3734 -0.6612
23431SOL    HW272448   8.348   5.967   6.730  0.9004 -1.1027  1.9328
23432SOL     OW72449   6.766   1.577   0.966  0.1024 -0.0610  0.0403
23432SOL    HW172450   6.789   1.577   0.873  1.0038  0.1885  0.2521
23432SOL    HW272451   6.676   1.610   0.969 -0.1089 -0.5548 -0.7795
23433SOL     OW72452   2.136   9.052   7.375  0.1845  0.6870 -0.0550
23433SOL    HW172453   2.130   8.985   7.307  1.7983  0.9788 -0.5128
23433SOL    HW272454   2.206   9.022   7.433 -0.8060  0.7125  1.2023
23434SOL     OW72455   4.144   4.773   4.401 -0.0874  0.2250  0.3265
23434SOL    HW172456   4.048   4.777   4.403 -0.1659  0.0581 -1.5352
23434SOL    HW272457   4.164   4.695   4.349  1.0946 -0.4873  1.7742
23435SOL     OW72458   6.628   2.001   3.914  0.1315  0.5913 -0.2219
23435SOL    HW172459   6.646   1.994   3.820 -1.5132 -0.7833 -0.4736
23435SOL    HW272460   6.589   1.917   3.938 -0.5682  1.3442  1.4427
23436SOL     OW72461   4.992   0.958   4.229 -0.0374  0.4036  0.1699
23436SOL    HW172462   4.938   0.919   4.161  2.8593  0.7736 -2.5542
23436SOL    HW272463   4.987   1.052   4.213 -0.2315  0.6114  1.2986
23437SOL     OW72464   7.252   2.516   3.087  0.2347 -0.1073 -0.0581
23437SOL    HW172465   7.251   2.498   2.993 -3.2224  0.3509 -0.2405
23437SOL    HW272466   7.262   2.611   3.093 -0.3463 -0.0405 -0.0433
23438SOL     OW72467   1.886   5.911   0.622 -0.3224  0.2633  0.2792
23438SOL    HW172468   1.968   5.870   0.597  0.8076  1.3043  2.0821
23438SOL    HW272469   1.893   6.002   0.592 -0.1586  0.7467  1.7063
23439SOL     OW72470   8.275   5.604   7.977  0.1149  0.4148 -0.1359
23439SOL    HW172471   8.348   5.659   7.949  0.4988 -0.3284 -0.6547
23439SOL    HW272472   8.216   5.603   7.902  0.9160 -1.2014 -0.7940
23440SOL     OW72473   3.138   4.522   7.023  0.2699 -0.3055 -0.4425
23440SOL    HW172474   3.055   4.481   7.048  0.0674 -0.4701 -1.3647
23440SOL    HW272475   3.152   4.494   6.933 -0.0476  1.9388 -1.2458
23441SOL     OW72476   3.427   4.938   7.893  0.0435 -0.2306 -0.5523
23441SOL    HW172477   3.372   4.863   7.868 -1.0526  0.0628  0.8620
23441SOL    HW272478   3.365   5.004   7.923  1.1668 -0.3023  2.2517
23442SOL     OW72479   6.166   1.647   4.486  0.0239  0.0013  0.0764
23442SOL    HW172480   6.111   1.569   4.480  1.4536 -1.0604  0.0623
23442SOL    HW272481   6.106   1.718   4.507 -1.4691 -0.9050 -0.9852
23443SOL     OW72482   2.161   7.565   7.303 -0.1398  0.4269 -0.4282
23443SOL    HW172483   2.222   7.615   7.357  0.3224  1.2916 -1.7086
23443SOL    HW272484   2.084   7.622   7.294 -0.7852 -0.2758  0.4103
23444SOL     OW72485   7.380   0.910   8.237  0.5241  0.3234  0.3294
23444SOL    HW172486   7.408   0.991   8.281 -1.7391  1.4668 -0.1916
23444SOL    HW272487   7.427   0.910   8.154  0.6348  1.0453  0.3876
23445SOL     OW72488   3.292   7.057   0.283 -0.9790 -0.4709  0.1355
23445SOL    HW172489   3.309   7.149   0.303  0.6141 -1.0038  1.3956
23445SOL    HW272490   3.270   7.057   0.189 -0.4848  1.1125 -0.0155
23446SOL     OW72491   2.424   7.709   1.027 -0.2237  0.4446  0.0588
23446SOL    HW172492   2.490   7.773   1.056  0.7675 -0.0280 -1.0642
23446SOL    HW272493   2.467   7.660   0.957 -1.6702 -0.0956 -0.4997
23447SOL     OW72494   3.525   0.945   7.915 -0.0822 -0.0587 -0.1546
23447SOL    HW172495   3.610   0.909   7.888 -0.3468  0.4201 -1.7928
23447SOL    HW272496   3.461   0.891   7.869 -0.5667  0.9148 -0.6549
23448SOL     OW72497   6.516   3.825   5.526  0.0031  0.1295 -0.5618
23448SOL    HW172498   6.421   3.829   5.532 -0.1416 -2.3113 -0.3675
23448SOL    HW272499   6.533   3.789   5.439  0.6521 -0.8836 -0.0440
23449SOL     OW72500   4.491   3.032   1.606  0.8525  1.0240  0.0918
23449SOL    HW172501   4.524   3.017   1.694  0.7772  1.2667  0.1610
23449SOL    HW272502   4.491   3.127   1.596  1.0860  0.9909 -0.2547
23450SOL     OW72503   5.927   7.915   0.202  0.4196  0.7398  0.1076
23450SOL    HW172504   6.017   7.882   0.207  0.8669  1.6185 -1.3811
23450SOL    HW272505   5.877   7.843   0.165  0.5761  0.3656  0.6191
23451SOL     OW72506   4.273   7.762   5.204  0.2805  0.6488  0.5249
23451SOL    HW172507   4.269   7.772   5.299 -2.1846 -0.8766  0.6744
23451SOL    HW272508   4.346   7.703   5.189  0.2128  0.2848  1.5437
23452SOL     OW72509   6.737   2.342   7.309 -0.2719  0.4220 -0.2538
23452SOL    HW172510   6.648   2.333   7.341 -0.3961  1.3809 -0.2915
23452SOL    HW272511   6.736   2.423   7.257  0.7477  0.7650  0.2356
23453SOL     OW72512   6.211   1.715   0.297  0.4445 -0.3412 -0.3453
23453SOL    HW172513   6.123   1.730   0.331  0.4162  0.3916 -0.7178
23453SOL    HW272514   6.202   1.638   0.240  0.2877 -0.9462  0.4702
23454SOL     OW72515   4.201   7.723   4.612  0.2485  0.6053  0.0979
23454SOL    HW172516   4.162   7.743   4.697 -0.9458 -0.2327 -0.2265
23454SOL    HW272517   4.153   7.777   4.550 -0.4459 -0.4508 -0.3107
23455SOL     OW72518   0.392   4.769   8.511 -0.3186 -0.3786  0.0629
23455SOL    HW172519   0.479   4.729   8.508 -1.2268 -2.4411  0.0768
23455SOL    HW272520   0.399   4.834   8.582  1.8624  1.2534 -1.4948
23456SOL     OW72521   6.836   5.778   3.069 -0.1112  0.3582  0.1863
23456SOL    HW172522   6.743   5.795   3.057 -0.3591 -1.0710 -0.0857
23456SOL    HW272523   6.871   5.776   2.980 -0.3592 -1.7737  0.0741
23457SOL     OW72524   9.354   8.071   1.094  0.1258 -0.9663 -0.2698
23457SOL    HW172525   9.402   8.127   1.033 -0.8998 -0.4599 -0.6294
23457SOL    HW272526   9.285   8.031   1.042  0.0878 -1.6113  0.2604
23458SOL     OW72527   5.234   1.074   3.079  0.3595  0.1077 -0.4787
23458SOL    HW172528   5.139   1.065   3.070  0.2816 -1.2158  1.3523
23458SOL    HW272529   5.245   1.151   3.135  0.3336 -0.2206 -0.0206
23459SOL     OW72530   2.653   9.461   3.971 -0.2641 -0.0434 -0.8526
23459SOL    HW172531   2.581   9.409   3.935 -0.2583 -0.5374 -0.1763
23459SOL    HW272532   2.613   9.545   3.994  0.1497  1.1057 -3.9017
23460SOL     OW72533   0.664   7.862   7.749  0.6118  0.5961  0.0583
23460SOL    HW172534   0.578   7.821   7.737 -0.0675  1.1653  2.3670
23460SOL    HW272535   0.698   7.822   7.830  2.8320 -0.0380 -1.0851
23461SOL     OW72536   5.173   1.908   7.898  0.0913  0.2741  0.6532
23461SOL    HW172537   5.161   1.814   7.901 -1.4818  0.3364 -1.5512
23461SOL    HW272538   5.114   1.938   7.829  1.9816  2.6358 -0.0928
23462SOL     OW72539   8.480   8.240   1.567 -0.1558 -0.3505  0.1877
23462SOL    HW172540   8.528   8.304   1.620  1.2480 -1.1577 -0.0503
23462SOL    HW272541   8.412   8.291   1.524  0.1268  0.7444  0.9777
23463SOL     OW72542   0.693   7.459   7.718 -0.0462 -0.4806  0.0021
23463SOL    HW172543   0.605   7.444   7.752  0.0032 -1.0703 -0.1185
23463SOL    HW272544   0.727   7.371   7.699 -0.4037 -0.1429 -2.4526
23464SOL     OW72545   0.909   4.951   0.677  0.1825 -0.1934 -1.0909
23464SOL    HW172546   0.924   5.044   0.697 -1.5357  0.2108 -1.4947
23464SOL    HW272547   0.978   4.928   0.615  1.9360  0.1938  0.6137
23465SOL     OW72548   4.249   0.906   0.653  0.6718 -0.4254 -0.0046
23465SOL    HW172549   4.270   0.991   0.616  1.0279 -0.8939 -0.9248
23465SOL    HW272550   4.310   0.846   0.610 -0.8316 -1.4441 -0.8190
23466SOL     OW72551   8.888   1.081   4.413 -0.2963  0.4606  0.4149
23466SOL    HW172552   8.857   1.020   4.346 -0.9643  0.9083  0.3040
23466SOL    HW272553   8.968   1.041   4.447 -2.0816 -1.8663  2.2320
23467SOL     OW72554   5.858   6.730   2.657  0.1879  0.2666 -0.8726
23467SOL    HW172555   5.763   6.739   2.655  0.0908 -0.6357 -2.1700
23467SOL    HW272556   5.874   6.661   2.722 -0.0971 -0.0075 -1.0874
23468SOL     OW72557   6.272   2.102   2.735  0.2305 -0.4988  0.0786
23468SOL    HW172558   6.286   2.013   2.702 -0.4628 -0.4858 -0.2554
23468SOL    HW272559   6.256   2.090   2.829  0.5750 -0.6817  0.1170
23469SOL     OW72560   1.344   6.234   4.698 -0.6318  0.1970  0.2414
23469SOL    HW172561   1.267   6.288   4.681 -0.2183  0.9029  0.5589
23469SOL    HW272562   1.372   6.260   4.786  0.6867  0.8508 -0.3405
23470SOL     OW72563   5.319   9.555   3.233  0.2050  0.4844 -0.1240
23470SOL    HW172564   5.277   9.476   3.199  1.8660 -0.8702  0.8394
23470SOL    HW272565   5.253   9.594   3.290 -0.2499 -0.8340  0.2855
23471SOL     OW72566   8.409   8.582   5.797 -0.3217 -0.3964  0.2907
23471SOL    HW172567   8.465   8.540   5.732  0.6449  0.0678  0.7934
23471SOL    HW272568   8.419   8.528   5.876 -0.5832 -0.3105  0.3844
23472SOL     OW72569   0.678   9.072   1.780  0.2407  0.8045 -0.0461
23472SOL    HW172570   0.749   9.038   1.725 -2.1560 -2.1561 -1.5856
23472SOL    HW272571   0.637   9.140   1.727  0.2877  0.6688 -0.2559
23473SOL     OW72572   5.185   3.796   8.368  0.1015 -0.4298 -0.6820
23473SOL    HW172573   5.242   3.872   8.377 -2.0330  1.5593 -2.4343
23473SOL    HW272574   5.140   3.789   8.452 -0.5768  1.0771 -0.8986
23474SOL     OW72575   8.870   7.223   8.346  0.0393 -0.5038 -0.2173
23474SOL    HW172576   8.818   7.196   8.422 -0.7998 -0.8424 -0.8976
23474SOL    HW272577   8.959   7.198   8.369 -0.2585 -0.9564  0.5002
23475SOL     OW72578   9.308   0.264   5.763 -0.3062  0.1181 -0.2423
23475SOL    HW172579   9.325   0.322   5.837  2.0196 -1.9158  0.9604
23475SOL    HW272580   9.220   0.231   5.778  0.3642 -0.8141  2.1303
23476SOL     OW72581   2.777   9.232   0.335 -0.1865 -0.2671  0.0282
23476SOL    HW172582   2.772   9.140   0.308 -0.8228  0.2123 -1.5613
23476SOL    HW272583   2.686   9.258   0.350 -0.0893  0.3422 -0.3975
23477SOL     OW72584   7.891   1.917   5.380 -0.1403  0.1626  0.2235
23477SOL    HW172585   7.946   1.840   5.369 -0.5992 -0.1845  0.3128
23477SOL    HW272586   7.801   1.885   5.369 -0.3444  0.6590  0.3742
23478SOL     OW72587   1.960   6.611   2.141  0.4499  0.7064  0.1221
23478SOL    HW172588   1.925   6.688   2.097 -0.6708  0.6561  0.8782
23478SOL    HW272589   2.038   6.588   2.091  1.2654  2.7867  0.3397
23479SOL     OW72590   9.045   0.327   3.443  0.2319 -0.1354 -0.2922
23479SOL    HW172591   9.058   0.337   3.348  1.4396 -2.3808 -0.4527
23479SOL    HW272592   9.091   0.401   3.482  0.5059  0.3314 -1.4560
23480SOL     OW72593   1.028   7.017   2.433 -0.2748  0.4366  0.1969
23480SOL    HW172594   0.992   7.010   2.521 -0.4625 -0.9447  0.0247
23480SOL    HW272595   0.975   6.958   2.380  1.4265 -0.7178 -0.3063
23481SOL     OW72596   1.473   0.980   2.111 -0.3467 -0.4720 -0.9196
23481SOL    HW172597   1.383   1.010   2.098  0.0959  0.6083 -1.6013
23481SOL    HW272598   1.518   0.999   2.029  0.6261 -0.5742 -0.4312
23482SOL     OW72599   9.325   6.430   7.617 -0.0061  0.0891  0.1692
23482SOL    HW172600   9.300   6.370   7.687 -0.9663  0.4963  0.1786
23482SOL    HW272601   9.304   6.382   7.536  1.1861 -0.4184  0.1298
23483SOL     OW72602   3.674   2.365   4.768 -0.1335 -0.2440  0.0947
23483SOL    HW172603   3.605   2.432   4.766  0.5955  0.5071 -1.4391
23483SOL    HW272604   3.628   2.282   4.754 -0.6683  0.3350 -1.8464
23484SOL     OW72605   7.563   6.585   8.126 -0.2662  0.3076  0.5437
23484SOL    HW172606   7.584   6.657   8.185 -2.4678  1.6426 -0.1953
23484SOL    HW272607   7.467   6.581   8.125 -0.2657 -0.9425 -1.4099
23485SOL     OW72608   8.412   8.108   7.980 -0.0039  0.4181 -0.2479
23485SOL    HW172609   8.482   8.145   8.034  0.3244  1.6484 -1.4495
23485SOL    HW272610   8.360   8.184   7.953 -0.1889 -0.1518 -1.5869
23486SOL     OW72611   4.246   1.264   7.279  0.0353 -0.1117  0.2447
23486SOL    HW172612   4.333   1.301   7.294  0.1361  0.1686 -0.8809
23486SOL    HW272613   4.260   1.199   7.209 -0.6918  0.1241 -0.1357
23487SOL     OW72614   0.059   4.063   5.190 -1.0707  0.2867  0.2647
23487SOL    HW172615   0.094   3.974   5.183  0.5867  0.8221  1.1465
23487SOL    HW272616   0.031   4.071   5.282 -2.2493  0.3344 -0.0830
23488SOL     OW72617   8.032   4.275   2.650 -0.0771 -0.1236 -0.2625
23488SOL    HW172618   8.069   4.350   2.604 -1.1137  0.0758 -0.8187
23488SOL    HW272619   7.994   4.312   2.730 -0.1806 -0.1193 -0.3127
23489SOL     OW72620   8.488   8.707   2.101 -0.1348  0.3229  0.0413
23489SOL    HW172621   8.546   8.749   2.164  0.8441 -0.7076 -0.1374
23489SOL    HW272622   8.546   8.685   2.027 -1.1058  0.8274 -0.8920
23490SOL     OW72623   2.751   7.170   9.592  0.1081  0.3798  0.1210
23490SOL    HW172624   2.671   7.195   9.545  0.4926 -1.9890 -2.0219
23490SOL    HW272625   2.821   7.220   9.548  0.0502  1.2033  0.9184
23491SOL     OW72626   0.914   0.927   3.222  0.7827 -0.2081  0.0612
23491SOL    HW172627   0.847   0.964   3.280  2.0096 -0.3932  1.6649
23491SOL    HW272628   0.901   0.833   3.227  2.0314 -0.3426  1.5615
23492SOL     OW72629   6.513   7.692   6.409 -0.2980 -0.0136 -0.0257
23492SOL    HW172630   6.544   7.778   6.439 -1.8363  1.0055 -1.1812
23492SOL    HW272631   6.419   7.705   6.394 -0.3672 -1.6379 -1.1767
23493SOL     OW72632   0.319   5.747   2.959 -0.1655  0.6151  0.3191
23493SOL    HW172633   0.357   5.733   2.872 -0.1429 -0.6131  0.5118
23493SOL    HW272634   0.281   5.835   2.954 -2.9167 -0.5174 -2.0102
23494SOL     OW72635   9.263   1.414   9.145  0.1658 -0.1353 -0.0814
23494SOL    HW172636   9.267   1.499   9.101 -0.2709 -0.1877 -0.2318
23494SOL    HW272637   9.349   1.376   9.132  0.1709  0.0247 -0.5479
23495SOL     OW72638   3.302   4.382   7.944 -0.6019 -0.4346  0.3283
23495SOL    HW172639   3.299   4.398   7.850  0.7593 -1.6846  0.0520
23495SOL    HW272640   3.285   4.468   7.983 -0.3070  0.2732 -1.0539
23496SOL     OW72641   1.645   6.085   0.225  0.3112  0.7678 -0.7579
23496SOL    HW172642   1.736   6.063   0.242  0.2138  1.0256  0.1484
23496SOL    HW272643   1.629   6.053   0.136  0.2556 -2.6163  0.3301
23497SOL     OW72644   2.502   0.954   2.348  0.3477 -0.5871  0.3174
23497SOL    HW172645   2.574   0.978   2.406  0.4279 -0.0800  0.0145
23497SOL    HW272646   2.425   0.994   2.389  0.7917  2.3156 -1.3908
23498SOL     OW72647   6.995   6.171   2.153 -0.0577 -0.1264 -0.4905
23498SOL    HW172648   6.955   6.212   2.229 -1.6801 -0.3289 -1.1939
23498SOL    HW272649   6.921   6.138   2.101  0.8979  0.9745 -2.7198
23499SOL     OW72650   3.841   6.992   1.962  0.2272 -0.1260  0.0617
23499SOL    HW172651   3.819   6.927   2.029 -0.0512 -1.5375 -1.3173
23499SOL    HW272652   3.873   6.940   1.888 -0.2098  1.2951 -1.1889
23500SOL     OW72653   0.594   1.638   8.908  0.0131  0.0340  0.0923
23500SOL    HW172654   0.521   1.671   8.855 -0.0074  0.7434  0.5383
23500SOL    HW272655   0.589   1.543   8.900 -0.3685  0.1112 -0.6654
23501SOL     OW72656   1.070   4.405   6.925  0.0379 -0.3217 -0.4524
23501SOL    HW172657   0.978   4.398   6.900  0.0950  0.4455 -0.9189
23501SOL    HW272658   1.102   4.483   6.879  0.0651  1.4525  2.3486
23502SOL     OW72659   3.079   2.416   7.812  0.0297 -0.0424  0.1048
23502SOL    HW172660   3.086   2.320   7.818  0.7704 -0.0901 -1.2402
23502SOL    HW272661   3.167   2.444   7.788 -0.2886  0.9597  0.1007
23503SOL     OW72662   3.884   1.736   6.029  0.0428  0.3994  0.1611
23503SOL    HW172663   3.956   1.683   6.066  1.1748  1.6822 -0.1095
23503SOL    HW272664   3.831   1.674   5.981 -0.5480 -1.0694  2.5266
23504SOL     OW72665   1.978   4.361   8.567 -0.2305  0.0156 -0.3164
23504SOL    HW172666   2.034   4.437   8.581 -1.3199  1.3082 -2.3551
23504SOL    HW272667   1.991   4.306   8.644  0.6697  2.2282  1.1986
23505SOL     OW72668   0.902   7.940   1.823  0.0463  0.0502  0.2686
23505SOL    HW172669   0.863   7.992   1.753  0.0384 -0.4788 -0.1339
23505SOL    HW272670   0.990   7.918   1.791  0.3551  0.5028  0.7920
23506SOL     OW72671   6.073   6.200   2.035 -1.0382 -0.0870  0.6096
23506SOL    HW172672   6.009   6.152   2.086 -1.5084  0.6506  0.7296
23506SOL    HW272673   6.158   6.172   2.070 -1.2967 -0.9055  0.5901
23507SOL     OW72674   6.179   4.563   6.325 -0.0943  0.4457  0.3566
23507SOL    HW172675   6.250   4.568   6.389  0.6015 -0.9789 -0.2727
23507SOL    HW272676   6.212   4.611   6.248  0.6157 -1.0306 -0.2927
23508SOL     OW72677   2.995   1.483   2.550 -0.6109 -0.6688 -0.4933
23508SOL    HW172678   3.068   1.544   2.557 -1.3398  0.2589 -0.7833
23508SOL    HW272679   2.940   1.519   2.480 -1.1750 -1.5366 -0.5189
23509SOL     OW72680   7.320   7.089   6.029  0.1452  0.3135  0.1839
23509SOL    HW172681   7.309   7.103   6.123  1.5050 -2.1903  0.8152
23509SOL    HW272682   7.237   7.051   6.000  0.5563 -1.3135  0.9857
23510SOL     OW72683   8.455   7.373   8.177 -0.4072  0.4095  0.5767
23510SOL    HW172684   8.486   7.362   8.267  0.3124  0.6871  0.3670
23510SOL    HW272685   8.482   7.292   8.133 -0.4459  0.4258  0.5238
23511SOL     OW72686   4.270   2.619   0.114 -0.0453 -0.0154 -0.1678
23511SOL    HW172687   4.291   2.709   0.090  1.1457 -0.5711 -1.3209
23511SOL    HW272688   4.325   2.600   0.190  0.8502 -0.2410 -0.8563
23512SOL     OW72689   6.061   4.031   2.612 -0.0279  0.3188  0.4654
23512SOL    HW172690   6.020   4.109   2.650 -0.6226  0.2917 -0.1042
23512SOL    HW272691   6.035   4.032   2.520  1.3890  0.3786  0.0339
23513SOL     OW72692   7.168   7.893   4.633  0.2521 -0.5526  0.1172
23513SOL    HW172693   7.202   7.842   4.559  0.6383 -1.2408  0.7450
23513SOL    HW272694   7.097   7.840   4.668  0.5654 -0.6066  0.6928
23514SOL     OW72695   3.497   5.941   6.585  0.2203  0.0780 -0.3896
23514SOL    HW172696   3.442   6.013   6.554 -1.3014 -1.0942 -0.5624
23514SOL    HW272697   3.508   5.884   6.509  1.7675  0.3003 -0.3733
23515SOL     OW72698   1.854   8.717   1.908 -0.1692  0.1201 -0.0235
23515SOL    HW172699   1.879   8.676   1.825 -1.6607  1.3730 -1.1578
23515SOL    HW272700   1.933   8.763   1.937 -0.1310  1.2779 -1.8038
23516SOL     OW72701   5.393   9.549   6.789  0.3158 -0.1002 -0.5453
23516SOL    HW172702   5.319   9.530   6.732  0.5459  0.7847 -1.1429
23516SOL    HW272703   5.400   9.644   6.789  0.8782 -0.1355  0.2482
23517SOL     OW72704   8.941   6.872   2.493 -0.6749 -0.4691  0.4045
23517SOL    HW172705   8.881   6.887   2.566 -2.2031 -1.2471 -0.6524
23517SOL    HW272706   8.940   6.955   2.445  2.1017  0.8961  2.3879
23518SOL     OW72707   5.602   6.488   4.714  0.2570 -0.6349 -0.8231
23518SOL    HW172708   5.621   6.514   4.804  0.9289 -1.7226 -0.6293
23518SOL    HW272709   5.585   6.570   4.668  0.3463 -0.0286  0.1899
23519SOL     OW72710   1.187   5.969   0.161 -0.2394 -0.0976  0.1829
23519SOL    HW172711   1.101   5.984   0.123 -0.1307 -1.8424 -0.8857
23519SOL    HW272712   1.231   5.912   0.098  0.8688 -1.0926  1.7749
23520SOL     OW72713   6.072   2.625   5.593  0.1900 -0.3851 -0.2595
23520SOL    HW172714   6.068   2.585   5.506 -1.1906  0.5605 -0.6538
23520SOL    HW272715   6.119   2.707   5.580 -0.0814 -0.2092 -0.1181
23521SOL     OW72716   3.552   1.657   3.950 -0.2228  0.1198 -0.6158
23521SOL    HW172717   3.529   1.580   4.002 -0.7490  1.5242  1.3438
23521SOL    HW272718   3.510   1.730   3.996  2.6233  1.9640 -0.7265
23522SOL     OW72719   4.528   7.882   3.472  0.0715 -0.8605 -0.2680
23522SOL    HW172720   4.444   7.862   3.512 -0.0333  1.0277  0.5558
23522SOL    HW272721   4.591   7.877   3.545  0.6808 -2.0349 -0.8319
23523SOL     OW72722   4.234   8.933   1.896  0.7539 -0.5189  0.0407
23523SOL    HW172723   4.238   8.903   1.987 -0.0606  1.2024  0.6802
23523SOL    HW272724   4.153   8.893   1.862  0.1690  0.1546  0.5995
23524SOL     OW72725   8.576   9.028   9.430  0.4766  0.5107 -0.5552
23524SOL    HW172726   8.492   9.050   9.388 -0.8168  0.4773  1.8299
23524SOL    HW272727   8.617   9.113   9.447 -0.3574  0.6920  0.6594
23525SOL     OW72728   4.239   8.125   4.385  0.0844 -0.1120 -0.0566
23525SOL    HW172729   4.198   8.146   4.468  1.0998 -0.5767  0.5844
23525SOL    HW272730   4.286   8.043   4.401 -0.7708 -0.9228 -1.4551
23526SOL     OW72731   7.060   6.119   8.115  0.4466 -0.1445 -0.0626
23526SOL    HW172732   7.077   6.077   8.030  2.9468 -2.3459  1.3815
23526SOL    HW272733   7.127   6.188   8.121  0.4761 -0.1996  0.2484
23527SOL     OW72734   9.427   3.631   7.040 -0.6241 -0.3239 -0.1057
23527SOL    HW172735   9.391   3.720   7.033 -1.2768 -0.6648 -1.2178
23527SOL    HW272736   9.517   3.639   7.007 -0.4140  0.0754  0.5444
23528SOL     OW72737   6.731   7.045   7.808  0.0759 -0.0663  0.2989
23528SOL    HW172738   6.750   7.135   7.784 -0.8027  0.2449  0.6936
23528SOL    HW272739   6.804   7.018   7.863  0.6258  0.2072 -0.2915
23529SOL     OW72740   9.158   0.561   5.524  0.0933  0.4205  0.4015
23529SOL    HW172741   9.184   0.596   5.609 -0.8475 -2.0490  1.8206
23529SOL    HW272742   9.064   0.547   5.531 -0.0841  0.6164 -1.2321
23530SOL     OW72743   5.200   3.864   0.092 -0.2642  0.5687 -0.1582
23530SOL    HW172744   5.188   3.949   0.134 -1.1326 -0.4105  1.7536
23530SOL    HW272745   5.280   3.830   0.131  0.7560  0.9766 -1.8257
23531SOL     OW72746   1.172   8.685   6.525 -0.2215 -0.1665  0.0669
23531SOL    HW172747   1.218   8.610   6.488 -2.1580 -1.5124  0.2228
23531SOL    HW272748   1.195   8.684   6.618  1.9138  1.1496 -0.3757
23532SOL     OW72749   2.693   4.751   6.316 -0.5027  0.2464  0.5922
23532SOL    HW172750   2.739   4.725   6.236 -0.9088 -1.3745  0.8635
23532SOL    HW272751   2.751   4.817   6.356 -0.7425  1.7856 -1.4747
23533SOL     OW72752   8.204   2.885   9.424 -0.1698  0.2225  0.1798
23533SOL    HW172753   8.245   2.912   9.506 -1.9540 -0.7330  1.4507
23533SOL    HW272754   8.143   2.815   9.449 -1.0696  0.1923 -1.8921
23534SOL     OW72755   5.501   8.617   7.473  0.3331 -0.2524 -0.6169
23534SOL    HW172756   5.432   8.563   7.434 -0.0080 -1.8122  1.8808
23534SOL    HW272757   5.577   8.604   7.417 -0.4141 -1.4480 -1.4034
23535SOL     OW72758   1.793   3.652   5.482  0.1450  0.0858  0.0487
23535SOL    HW172759   1.855   3.724   5.468 -0.9464  1.2546  1.0667
23535SOL    HW272760   1.714   3.694   5.516 -2.1403 -1.0500 -3.3471
23536SOL     OW72761   6.727   2.087   9.288  0.2570  0.5688 -0.7375
23536SOL    HW172762   6.695   2.177   9.297 -1.8376 -0.3190  1.9331
23536SOL    HW272763   6.791   2.077   9.358  1.3175  0.2439 -1.7169
23537SOL     OW72764   3.872   9.239   6.742  0.2685 -0.5540  0.1724
23537SOL    HW172765   3.875   9.215   6.835 -2.7018 -1.0739  0.2206
23537SOL    HW272766   3.785   9.277   6.730  0.6323 -0.3699 -2.3917
23538SOL     OW72767   0.670   0.227   8.676 -0.1687 -0.2459 -0.2083
23538SOL    HW172768   0.583   0.244   8.712 -0.1852  0.0839 -0.3998
23538SOL    HW272769   0.713   0.172   8.741 -0.0538  0.6688  0.5044
23539SOL     OW72770   4.941   1.861   3.346 -0.1996 -0.2416 -0.2727
23539SOL    HW172771   4.930   1.781   3.294  1.5428 -0.7081 -0.0034
23539SOL    HW272772   5.036   1.870   3.356 -0.4287  0.6724  1.5327
23540SOL     OW72773   5.479   2.325   1.567  0.0010  0.4072 -0.6137
23540SOL    HW172774   5.405   2.325   1.627  0.9959  1.1678  0.6853
23540SOL    HW272775   5.527   2.246   1.589  0.3641  0.6841 -0.3881
23541SOL     OW72776   8.778   8.385   6.629 -0.0742  0.6917  0.1810
23541SOL    HW172777   8.775   8.300   6.673 -2.0749  0.6512  0.0713
23541SOL    HW272778   8.789   8.448   6.700  1.7402  0.3642  0.2353
23542SOL     OW72779   1.556   5.146   2.066 -0.3346 -0.3163 -0.8262
23542SOL    HW172780   1.466   5.150   2.099  0.3044  0.8807  0.9273
23542SOL    HW272781   1.568   5.227   2.018  0.3463  0.4638  0.5807
23543SOL     OW72782   2.433   5.327   6.424 -0.3472  0.2129  0.1890
23543SOL    HW172783   2.506   5.331   6.362 -0.5073  1.1460  0.0495
23543SOL    HW272784   2.438   5.409   6.472 -1.2722  0.2614  0.2135
23544SOL     OW72785   8.756   9.613   9.196  0.2908 -0.0059 -0.3606
23544SOL    HW172786   8.703   9.547   9.241  0.7303 -0.4818 -0.5248
23544SOL    HW272787   8.693   9.668   9.150  0.0014 -1.7021 -2.0906
23545SOL     OW72788   6.732   7.822   7.477 -0.4581 -0.2726  0.2100
23545SOL    HW172789   6.680   7.868   7.411  0.3821 -0.3536 -0.5290
23545SOL    HW272790   6.817   7.809   7.436 -0.2576 -1.3059  0.9046
23546SOL     OW72791   2.518   9.528   1.255 -0.1553 -0.1014 -0.3148
23546SOL    HW172792   2.489   9.610   1.215  0.9447  0.7657  0.5758
23546SOL    HW272793   2.575   9.489   1.188 -0.6335 -0.1100 -0.7216
23547SOL     OW72794   7.749   1.691   6.760  0.1921 -0.0454 -0.6344
23547SOL    HW172795   7.752   1.596   6.757  2.3734 -0.0520 -0.1880
23547SOL    HW272796   7.743   1.718   6.669 -2.6571 -0.5532 -0.6956
23548SOL     OW72797   0.481   7.211   9.082  0.1852 -0.4174 -0.3946
23548SOL    HW172798   0.573   7.237   9.077 -0.6043  2.6407 -0.9356
23548SOL    HW272799   0.447   7.258   9.158 -1.1658 -0.6177 -0.8457
23549SOL     OW72800   1.101   9.524   7.782  0.2834 -0.2142 -0.1598
23549SOL    HW172801   1.078   9.561   7.696  0.5503 -1.4227 -0.7858
23549SOL    HW272802   1.150   9.444   7.760 -0.6097 -1.1350  1.1195
23550SOL     OW72803   4.890   2.393   6.722  0.2787  0.8259  0.0478
23550SOL    HW172804   4.876   2.441   6.803  0.0903 -0.3504  0.7357
23550SOL    HW272805   4.963   2.438   6.679  1.0382  0.8635  1.3507
23551SOL     OW72806   7.017   4.458   7.200  0.0687  0.5337 -0.4127
23551SOL    HW172807   7.050   4.460   7.110 -1.1102  0.9853 -0.8633
23551SOL    HW272808   6.958   4.383   7.202  0.6727  0.0613  0.2199
23552SOL     OW72809   7.600   6.616   2.591 -0.4250 -0.1512  0.3274
23552SOL    HW172810   7.523   6.607   2.646 -0.0774 -1.2175  0.6734
23552SOL    HW272811   7.578   6.567   2.511  0.0981 -0.9812  0.6748
23553SOL     OW72812   5.990   6.744   9.082  0.5079  0.0317  0.1045
23553SOL    HW172813   6.063   6.806   9.076  0.9141 -0.5621 -1.6552
23553SOL    HW272814   6.002   6.701   9.166  0.6867  1.7523  1.0021
23554SOL     OW72815   3.623   3.099   6.762 -0.1319 -0.0994 -0.6912
23554SOL    HW172816   3.603   3.031   6.827  0.0641 -0.4927 -1.0366
23554SOL    HW272817   3.646   3.050   6.683 -0.4576  0.3782 -1.0831
23555SOL     OW72818   5.900   9.192   5.756  0.1392 -0.2030  0.3103
23555SOL    HW172819   5.811   9.157   5.747  1.1898 -2.5036 -3.4164
23555SOL    HW272820   5.953   9.116   5.781  1.3231  0.6978  0.6275
23556SOL     OW72821   5.238   8.847   5.629 -0.0450 -0.2261 -0.2289
23556SOL    HW172822   5.179   8.854   5.554  0.5909 -1.2049 -0.8499
23556SOL    HW272823   5.181   8.851   5.705 -0.6084  1.8478 -0.7040
23557SOL     OW72824   6.639   3.118   8.822 -0.0765 -0.3298 -0.2214
23557SOL    HW172825   6.574   3.167   8.774 -1.3802 -1.4670  0.3219
23557SOL    HW272826   6.679   3.182   8.881 -0.6146  0.3950 -0.6368
23558SOL     OW72827   4.216   6.628   5.653  0.2114  0.3801  0.1036
23558SOL    HW172828   4.186   6.631   5.562 -1.1796 -2.1202  0.3817
23558SOL    HW272829   4.301   6.672   5.652  0.4020  0.1150 -2.4863
23559SOL     OW72830   2.114   2.968   7.227 -0.4513 -0.0943  0.3759
23559SOL    HW172831   2.176   2.947   7.297  1.2400 -0.9156 -1.2704
23559SOL    HW272832   2.147   2.919   7.151 -1.8110  1.2915 -1.1742
23560SOL     OW72833   7.074   2.167   7.457  0.3630  0.3458 -0.2946
23560SOL    HW172834   7.148   2.107   7.457 -0.7083 -1.0441 -0.6971
23560SOL    HW272835   7.036   2.160   7.544 -0.4207 -0.4614 -0.6772
23561SOL     OW72836   6.848   0.893   4.919 -0.4168  0.4174  0.2158
23561SOL    HW172837   6.759   0.875   4.951 -0.4191  1.5915  0.9304
23561SOL    HW272838   6.880   0.963   4.975  0.7632  0.4027 -0.4041
23562SOL     OW72839   6.376   5.894   0.999  0.0389  0.0744  0.2020
23562SOL    HW172840   6.314   5.934   1.059 -0.6499  0.7046 -0.8906
23562SOL    HW272841   6.462   5.918   1.032 -0.3460  1.3847  0.2843
23563SOL     OW72842   2.691   6.026   9.111  0.0848 -0.2843  0.3367
23563SOL    HW172843   2.621   6.091   9.110  1.1690  0.9329 -0.1481
23563SOL    HW272844   2.653   5.949   9.154 -1.0157  0.9137  1.5885
23564SOL     OW72845   9.399   3.166   9.426 -0.2059  0.2365  0.2118
23564SOL    HW172846   9.468   3.197   9.486 -0.9027  0.7872  0.7519
23564SOL    HW272847   9.425   3.199   9.341 -0.1643  1.0607  0.5339
23565SOL     OW72848   4.582   5.948   0.735 -0.0955  0.1866 -0.3567
23565SOL    HW172849   4.573   5.948   0.640  2.2769  0.2980 -0.6443
23565SOL    HW272850   4.583   6.040   0.760 -0.2968  0.1663 -0.2720
23566SOL     OW72851   9.030   1.585   6.586 -0.1560 -0.2744  0.1593
23566SOL    HW172852   9.082   1.665   6.585 -0.1964 -0.2526 -0.1637
23566SOL    HW272853   8.952   1.608   6.638  0.0364 -0.2348  0.4314
23567SOL     OW72854   6.160   9.144   8.296 -0.6926  0.3101 -0.0026
23567SOL    HW172855   6.251   9.140   8.267 -1.4716  0.2289 -2.6818
23567SOL    HW272856   6.144   9.237   8.312 -0.6817  0.5949 -1.5448
23568SOL     OW72857   4.910   1.003   0.823 -0.5419  0.1634  0.2636
23568SOL    HW172858   4.994   0.998   0.868 -0.7334  0.2384  0.6257
23568SOL    HW272859   4.916   0.936   0.754 -1.3220 -2.0092  2.1782
23569SOL     OW72860   1.459   3.837   6.702  0.0120  0.1551  0.4577
23569SOL    HW172861   1.388   3.892   6.668  0.0386  1.3184  2.1746
23569SOL    HW272862   1.476   3.872   6.789  1.1511 -1.5806  0.9655
23570SOL     OW72863   1.088   9.255   8.813  0.0367 -0.1150  0.6729
23570SOL    HW172864   1.090   9.207   8.730  1.8499 -1.3330  1.3594
23570SOL    HW272865   0.997   9.280   8.824 -0.1818  0.4922 -1.9094
23571SOL     OW72866   4.932   1.204   4.158 -0.3566  0.4075 -0.2428
23571SOL    HW172867   5.004   1.263   4.183 -1.1330  1.1160  0.4098
23571SOL    HW272868   4.897   1.242   4.077  1.2066 -1.0381 -1.6525
23572SOL     OW72869   9.577   1.919   3.906 -0.2527  0.1860 -0.1956
23572SOL    HW172870   9.501   1.915   3.964 -0.3114  0.9746 -0.2053
23572SOL    HW272871   9.540   1.928   3.819 -0.1480  1.2973 -0.1326
23573SOL     OW72872   2.459   2.089   0.197  1.4255 -0.0257  0.0392
23573SOL    HW172873   2.482   2.118   0.285 -0.3394 -0.1516  0.5756
23573SOL    HW272874   2.443   2.170   0.148 -0.7160  0.0616  0.7595
23574SOL     OW72875   1.146   9.144   0.872 -0.1836 -0.6404 -0.0768
23574SOL    HW172876   1.104   9.075   0.924  1.3899 -1.2748  0.4103
23574SOL    HW272877   1.102   9.224   0.898 -1.1900 -1.2928  0.2910
23575SOL     OW72878   0.668   8.104   2.231  0.2291 -0.2966 -0.7305
23575SOL    HW172879   0.692   8.192   2.201 -0.3805 -0.4232 -1.6235
23575SOL    HW272880   0.689   8.047   2.157 -0.5139 -0.7342 -0.6151
23576SOL     OW72881   5.052   7.083   2.362 -0.7027  0.0509 -0.5333
23576SOL    HW172882   5.038   7.047   2.449  2.1470  1.5093  0.6675
23576SOL    HW272883   5.005   7.167   2.363 -0.0083  0.4381 -0.0930
23577SOL     OW72884   5.673   0.054   5.178 -0.3050 -0.5425  0.2278
23577SOL    HW172885   5.761   0.033   5.146 -1.2749 -1.5831 -1.9314
23577SOL    HW272886   5.677   0.038   5.272  1.9819  0.0936  0.2961
23578SOL     OW72887   8.533   5.703   4.824 -0.1126  0.9807 -1.1488
23578SOL    HW172888   8.548   5.783   4.874 -2.9400 -0.6842  2.9333
23578SOL    HW272889   8.611   5.649   4.841  0.0284  1.3698 -0.5179
23579SOL     OW72890   5.089   0.656   8.844 -0.2159 -0.1249 -0.3307
23579SOL    HW172891   5.001   0.648   8.881 -0.8419  0.9336 -1.4957
23579SOL    HW272892   5.141   0.695   8.915 -0.6735 -0.7749  0.3725
23580SOL     OW72893   7.421   1.789   0.025  0.2152 -0.4020 -0.0149
23580SOL    HW172894   7.510   1.756   0.016  0.3185 -0.0477 -0.3489
23580SOL    HW272895   7.381   1.735   0.093  0.1460 -1.6845 -1.0273
23581SOL     OW72896   6.394   9.559   2.698 -0.3368  0.2506 -0.1277
23581SOL    HW172897   6.412   9.501   2.625 -0.5857  0.3925 -0.3015
23581SOL    HW272898   6.380   9.500   2.772 -0.8232  0.0823 -0.3540
23582SOL     OW72899   9.369   8.227   3.115 -0.2806 -0.0122 -0.6353
23582SOL    HW172900   9.464   8.222   3.110 -0.1054  1.1167  0.7346
23582SOL    HW272901   9.348   8.317   3.088 -0.4551  1.3779  3.4425
23583SOL     OW72902   5.597   9.341   8.567 -0.2618  0.0954 -0.5068
23583SOL    HW172903   5.610   9.407   8.636 -0.8710 -0.0369 -0.2608
23583SOL    HW272904   5.685   9.308   8.550  0.1789  1.5358 -1.2088
23584SOL     OW72905   0.729   7.872   2.910  0.3377 -0.5040  0.6042
23584SOL    HW172906   0.693   7.952   2.871  0.5388 -1.1396 -0.9870
23584SOL    HW272907   0.812   7.899   2.949  1.8661 -0.3695 -2.4429
23585SOL     OW72908   5.835   4.450   4.408  0.4837  0.3761  0.5923
23585SOL    HW172909   5.831   4.392   4.332 -0.1645 -0.3375  1.1487
23585SOL    HW272910   5.797   4.398   4.479 -1.0533  1.8350  0.8973
23586SOL     OW72911   9.467   5.294   1.904  0.1737 -0.1414 -0.6388
23586SOL    HW172912   9.428   5.291   1.817  1.2414 -0.1681 -1.1346
23586SOL    HW272913   9.511   5.210   1.914  0.7285  0.1670 -0.4117
23587SOL     OW72914   4.433   2.513   6.725  0.6483 -0.6236 -0.1820
23587SOL    HW172915   4.511   2.474   6.686  0.5742 -0.6380 -0.3145
23587SOL    HW272916   4.448   2.607   6.722  0.6825 -0.6283 -0.1599
23588SOL     OW72917   6.979   1.943   6.873  0.2126  0.0650 -0.6016
23588SOL    HW172918   6.924   1.939   6.951 -0.2885  1.9187 -0.8273
23588SOL    HW272919   6.984   2.036   6.851 -0.4746 -0.4561 -3.3566
23589SOL     OW72920   6.179   4.964   4.106 -0.0363 -0.3865 -0.2748
23589SOL    HW172921   6.088   4.977   4.079 -0.2580 -0.0931  0.5661
23589SOL    HW272922   6.206   5.050   4.138  0.6367 -0.4046 -0.7898
23590SOL     OW72923   0.431   8.871   6.071 -0.1381 -0.2709 -0.7175
23590SOL    HW172924   0.503   8.845   6.013 -0.2952  2.1310 -2.1027
23590SOL    HW272925   0.471   8.878   6.157  0.8444 -0.8493 -1.1070
23591SOL     OW72926   6.371   3.337   8.908 -0.0854  0.2245  0.0641
23591SOL    HW172927   6.302   3.290   8.954 -0.2364  1.8662  1.6318
23591SOL    HW272928   6.364   3.308   8.817 -2.2617 -0.2994  0.3471
23592SOL     OW72929   7.743   5.602   0.354  0.6790 -0.0918 -0.0368
23592SOL    HW172930   7.670   5.561   0.308 -0.9663  2.0760  0.5059
23592SOL    HW272931   7.733   5.575   0.446 -0.2574  1.2220  0.2749
23593SOL     OW72932   4.689   3.676   6.930  0.3449 -0.1892 -0.3936
23593SOL    HW172933   4.626   3.629   6.875 -1.0726 -0.7924  1.6176
23593SOL    HW272934   4.726   3.608   6.987  0.1701  0.7050  0.8294
23594SOL     OW72935   8.709   8.733   1.572 -0.0675 -0.7130 -0.6119
23594SOL    HW172936   8.792   8.740   1.620 -1.2671  0.8521  1.4159
23594SOL    HW272937   8.707   8.811   1.516 -0.0037 -0.9684 -0.9752
23595SOL     OW72938   9.154   5.226   2.919  0.3485 -0.2412  0.3279
23595SOL    HW172939   9.159   5.320   2.934 -1.6812 -0.2783  1.6856
23595SOL    HW272940   9.084   5.196   2.978  1.0762 -2.6330  0.0825
23596SOL     OW72941   4.822   2.006   7.206 -0.2388  0.5353  0.5780
23596SOL    HW172942   4.910   2.028   7.178 -0.4151 -0.6802 -1.1428
23596SOL    HW272943   4.765   2.066   7.157 -0.3737  1.4621  1.8432
23597SOL     OW72944   8.123   1.785   2.906  0.0336 -0.2081 -0.1763
23597SOL    HW172945   8.157   1.870   2.878  0.6301 -0.4329 -0.1350
23597SOL    HW272946   8.127   1.731   2.827  2.1666 -0.9873  0.4085
23598SOL     OW72947   0.597   4.504   9.174 -0.1232 -0.3948 -0.2114
23598SOL    HW172948   0.542   4.564   9.122  1.4381  0.4792 -0.9315
23598SOL    HW272949   0.659   4.562   9.218  1.9653 -1.4796 -1.5664
23599SOL     OW72950   7.848   8.171   7.841 -0.3966 -0.1045 -0.3396
23599SOL    HW172951   7.833   8.135   7.928  1.7135  0.0785  0.1507
23599SOL    HW272952   7.943   8.168   7.830 -0.6408 -0.5122 -2.8088
23600SOL     OW72953   8.769   1.511   2.955 -0.0335 -0.1310  0.2191
23600SOL    HW172954   8.792   1.545   3.041 -2.0198 -2.5562  1.8480
23600SOL    HW272955   8.674   1.522   2.948 -0.1868 -1.7241 -0.8119
23601SOL     OW72956   3.849   2.273   5.073  1.0499 -0.0097  0.1844
23601SOL    HW172957   3.887   2.340   5.016  1.5120 -0.6578 -0.2829
23601SOL    HW272958   3.893   2.192   5.048  1.6297 -0.2395  1.8073
23602SOL     OW72959   9.395   6.286   3.766 -0.1390 -0.5105 -0.3724
23602SOL    HW172960   9.374   6.309   3.857  1.7406  0.0062 -0.0338
23602SOL    HW272961   9.489   6.270   3.766  0.7808  3.5199 -2.9938
23603SOL     OW72962   7.608   6.182   3.132  0.3531  0.3076 -0.3910
23603SOL    HW172963   7.614   6.113   3.198 -0.5032  0.9943  0.4309
23603SOL    HW272964   7.688   6.173   3.080  0.3936 -1.1159 -0.1284
23604SOL     OW72965   7.087   8.011   0.355  0.9986  0.0652  0.0475
23604SOL    HW172966   7.114   8.078   0.418 -0.2974  0.9820 -0.3178
23604SOL    HW272967   7.057   8.061   0.279 -1.5683 -0.8182  0.3762
23605SOL     OW72968   7.564   0.696   0.800  0.2891  0.2137 -0.5821
23605SOL    HW172969   7.489   0.691   0.741 -0.0889 -1.4844 -0.0070
23605SOL    HW272970   7.559   0.617   0.852  2.2730  0.2517 -0.2475
23606SOL     OW72971   2.570   5.020   1.020 -0.5182 -0.0257 -0.1648
23606SOL    HW172972   2.487   4.973   1.030 -0.9496  0.8396  0.4618
23606SOL    HW272973   2.634   4.965   1.066 -0.5833 -1.0642 -1.2647
23607SOL     OW72974   8.710   7.388   0.702  0.4661 -0.1895 -0.6595
23607SOL    HW172975   8.652   7.409   0.776  1.4166  4.5212 -0.9135
23607SOL    HW272976   8.784   7.448   0.712  1.9569 -1.2524 -3.9899
23608SOL     OW72977   2.719   9.526   7.702 -0.1877  0.6373 -0.6267
23608SOL    HW172978   2.790   9.469   7.728 -0.7809  0.4304  0.6187
23608SOL    HW272979   2.754   9.615   7.712 -0.8123  0.6514  2.4519
23609SOL     OW72980   1.015   9.583   3.696 -0.4232  0.4630  0.3457
23609SOL    HW172981   1.060   9.508   3.658 -1.4567  1.0677 -2.2650
23609SOL    HW272982   0.922   9.565   3.682 -0.6995  2.0594 -0.0015
23610SOL     OW72983   3.612   4.526   0.007 -0.0354  0.0228  0.1360
23610SOL    HW172984   3.663   4.600   0.037  2.3292 -1.6100  0.3965
23610SOL    HW272985   3.674   4.471  -0.040 -1.7415 -1.6874 -0.2652
23611SOL     OW72986   2.636   4.290   1.447 -0.4508 -0.0611  0.2567
23611SOL    HW172987   2.558   4.248   1.410  0.8479 -0.9776 -1.5684
23611SOL    HW272988   2.706   4.227   1.434  1.2053  1.8749 -0.8361
23612SOL     OW72989   9.541   4.719   7.625  0.4661 -0.6888  0.0057
23612SOL    HW172990   9.485   4.705   7.548  1.5018  1.0369 -1.1265
23612SOL    HW272991   9.509   4.801   7.663  2.3400  0.5153 -0.8506
23613SOL     OW72992   4.696   5.729   0.448  0.2697  0.6605  0.2644
23613SOL    HW172993   4.661   5.818   0.437  0.7684  0.8646  0.3022
23613SOL    HW272994   4.687   5.711   0.541 -0.3292  0.4615  0.1685
23614SOL     OW72995   7.293   3.108   3.613  0.0803  0.2377  0.7766
23614SOL    HW172996   7.218   3.097   3.672  0.2264  0.0468  0.9285
23614SOL    HW272997   7.310   3.021   3.578  1.6314 -0.2059  2.4749
23615SOL     OW72998   5.452   3.309   2.699 -0.0421  0.3581 -0.1487
23615SOL    HW172999   5.360   3.282   2.697  0.3193 -1.2853  1.8360
23615SOL    HW273000   5.498   3.237   2.656  0.4749  0.2696  0.5410
23616SOL     OW73001   0.380   2.275   7.518 -0.1615 -0.1403 -1.3025
23616SOL    HW173002   0.371   2.247   7.427 -0.1379 -1.0283 -1.0458
23616SOL    HW273003   0.436   2.208   7.558 -0.9905 -0.3173 -0.4021
23617SOL     OW73004   9.171   3.746   5.212 -0.4970  0.4043  0.0024
23617SOL    HW173005   9.133   3.820   5.259 -2.6101  0.1492 -1.1692
23617SOL    HW273006   9.183   3.778   5.122  5.4488  1.6112  0.8006
23618SOL     OW73007   6.000   0.133   9.013  0.3569  0.3853  0.1911
23618SOL    HW173008   6.060   0.179   8.954 -0.1752 -0.0699 -0.7264
23618SOL    HW273009   5.913   0.159   8.984  0.0814 -0.2368  0.4447
23619SOL     OW73010   3.744   2.630   6.762  0.1572 -0.0620 -0.3047
23619SOL    HW173011   3.690   2.623   6.683  2.8966 -2.7490 -2.1526
23619SOL    HW273012   3.687   2.600   6.833 -1.3536 -1.0459 -1.8555
23620SOL     OW73013   0.809   8.452   0.313 -0.2411 -0.0114 -0.4322
23620SOL    HW173014   0.828   8.477   0.223 -0.4933 -2.5432 -1.2714
23620SOL    HW273015   0.863   8.375   0.329 -0.1471  0.4114  1.6278
23621SOL     OW73016   2.726   2.372   0.780 -0.1159 -0.0675  0.5076
23621SOL    HW173017   2.781   2.360   0.857 -0.0954  0.7825  0.6337
23621SOL    HW273018   2.779   2.339   0.707 -0.1710 -0.9594  0.8576
23622SOL     OW73019   4.564   4.021   4.225  0.1611 -0.2036  0.4675
23622SOL    HW173020   4.652   3.995   4.199  1.0630  0.5536  2.4874
23622SOL    HW273021   4.578   4.094   4.286 -1.9064  0.3081  0.4151
23623SOL     OW73022   7.775   5.568   7.640  0.6217 -0.4194  0.5378
23623SOL    HW173023   7.863   5.538   7.615  0.4666  1.5719 -3.0254
23623SOL    HW273024   7.732   5.587   7.556 -2.4723  0.7207  2.2540
23624SOL     OW73025   8.061   5.731   7.351 -0.0831  0.0926 -0.2591
23624SOL    HW173026   8.051   5.795   7.421  2.1390  0.6885 -0.4114
23624SOL    HW273027   8.036   5.648   7.390  0.2476  0.5559  0.9753
23625SOL     OW73028   5.241   2.811   1.045  0.0123  0.0454  0.1725
23625SOL    HW173029   5.210   2.733   1.092  0.3011  0.0408  0.3530
23625SOL    HW273030   5.310   2.847   1.100  1.2397 -0.6714 -0.8279
23626SOL     OW73031   8.684   7.722   8.311 -0.0330  0.0858  0.2387
23626SOL    HW173032   8.717   7.634   8.328  2.2146  0.3506 -2.2287
23626SOL    HW273033   8.651   7.719   8.222 -4.6379  0.5775  1.6615
23627SOL     OW73034   4.107   7.643   3.858 -0.5088 -0.1967  0.5362
23627SOL    HW173035   4.143   7.683   3.938 -0.2717 -1.1940  0.9418
23627SOL    HW273036   4.167   7.571   3.838 -2.0836 -1.7187  1.0471
23628SOL     OW73037   4.801   3.393   4.002 -0.0624  0.5807  1.0223
23628SOL    HW173038   4.827   3.473   3.955 -0.8425  1.1410  1.5238
23628SOL    HW273039   4.707   3.385   3.986  0.1244 -0.6412  0.3949
23629SOL     OW73040   1.255   1.716   0.869  0.3018  0.3571 -0.3302
23629SOL    HW173041   1.193   1.772   0.915  0.5286  1.9365 -1.8103
23629SOL    HW273042   1.204   1.639   0.844 -0.9852  1.4289 -1.1482
23630SOL     OW73043   3.508   9.499   0.349 -0.0792  0.1450 -0.9154
23630SOL    HW173044   3.574   9.500   0.418  1.5549  1.5459 -2.4015
23630SOL    HW273045   3.525   9.578   0.297 -2.5580  0.2386 -1.7348
23631SOL     OW73046   0.349   2.760   0.908  0.2539 -0.1044  0.5181
23631SOL    HW173047   0.286   2.815   0.954  1.6678  1.7438  0.3786
23631SOL    HW273048   0.354   2.798   0.820  2.4218  0.5898  0.8918
23632SOL     OW73049   2.539   5.048   7.240  0.2840 -0.3835 -0.7404
23632SOL    HW173050   2.542   5.069   7.147  0.3100 -1.2566 -0.9433
23632SOL    HW273051   2.456   5.001   7.252  0.3613 -0.4306 -0.3631
23633SOL     OW73052   8.366   1.870   2.541  0.3026 -0.3217 -0.3405
23633SOL    HW173053   8.325   1.939   2.594  0.0786 -0.2297 -0.6318
23633SOL    HW273054   8.345   1.894   2.450  1.1579 -0.1710 -0.5026
23634SOL     OW73055   0.628   6.501   2.458  0.5993  0.4708  0.7449
23634SOL    HW173056   0.707   6.519   2.510  1.6949 -0.3811 -0.5756
23634SOL    HW273057   0.610   6.583   2.413  1.6583  0.2353 -0.1367
23635SOL     OW73058   6.418   2.775   9.615 -0.5562 -0.6678 -0.3032
23635SOL    HW173059   6.376   2.812   9.537 -0.5303 -0.2951 -0.1416
23635SOL    HW273060   6.483   2.840   9.640  0.9049 -1.7400 -1.1919
23636SOL     OW73061   6.487   0.377   5.115 -0.4515 -0.3045  0.6132
23636SOL    HW173062   6.565   0.349   5.066 -0.1647  0.8594  0.3636
23636SOL    HW273063   6.476   0.311   5.182  0.1325 -1.0563 -0.0081
23637SOL     OW73064   7.958   8.145   3.966  0.6636  0.2820  0.0650
23637SOL    HW173065   7.989   8.070   3.914  3.1063  0.7808  0.6662
23637SOL    HW273066   7.994   8.130   4.053  0.8945  1.9714  0.2834
23638SOL     OW73067   7.098   4.431   0.272  0.1281 -0.4972  0.1514
23638SOL    HW173068   7.108   4.525   0.287 -0.8763 -0.3251 -0.1892
23638SOL    HW273069   7.131   4.417   0.183 -1.3593 -0.1423 -0.4925
23639SOL     OW73070   8.407   5.585   1.569  0.4736  0.1867  0.6699
23639SOL    HW173071   8.384   5.522   1.637  1.4187  0.2744  1.0849
23639SOL    HW273072   8.483   5.631   1.604  1.0299  0.1748 -0.4823
23640SOL     OW73073   5.933   0.092   0.456 -0.7850  0.4198 -0.6272
23640SOL    HW173074   5.905   0.027   0.392  0.0112 -0.4262 -0.1485
23640SOL    HW273075   5.945   0.172   0.405  1.3302 -0.5951 -1.8979
23641SOL     OW73076   7.145   4.874   8.589  0.0419  0.0962 -0.1762
23641SOL    HW173077   7.155   4.791   8.637 -0.8757 -1.5967 -2.6799
23641SOL    HW273078   7.235   4.904   8.576  0.3814 -0.3453  1.0369
23642SOL     OW73079   1.394   6.361   2.012  0.7428  0.2652 -0.4750
23642SOL    HW173080   1.411   6.273   2.046 -0.5784 -0.0355 -0.5337
23642SOL    HW273081   1.452   6.369   1.936 -0.2379 -1.1752 -1.4150
23643SOL     OW73082   8.557   0.635   9.127 -0.3522  0.6774 -0.1934
23643SOL    HW173083   8.595   0.548   9.137 -0.7587  0.4566 -0.5488
23643SOL    HW273084   8.623   0.694   9.162 -0.1777  0.2069  0.2724
23644SOL     OW73085   0.171   6.388   2.244  0.1766 -0.9248 -0.4129
23644SOL    HW173086   0.206   6.441   2.172 -0.9416 -0.9474 -0.9994
23644SOL    HW273087   0.076   6.400   2.238  0.0443 -1.2275  0.8419
23645SOL     OW73088   4.344   9.076   4.076  0.1037  0.4630 -1.0277
23645SOL    HW173089   4.435   9.083   4.048 -0.5733  2.0047 -3.0350
23645SOL    HW273090   4.319   9.165   4.101 -0.7650 -0.0128 -0.0909
23646SOL     OW73091   1.687   9.298   1.786  0.0206  0.3795  0.5222
23646SOL    HW173092   1.681   9.240   1.862 -1.2594  0.0983  0.2406
23646SOL    HW273093   1.629   9.371   1.808  0.7416  0.9983  0.3932
23647SOL     OW73094   3.512   4.836   4.196 -0.2965  0.3224  0.3416
23647SOL    HW173095   3.442   4.848   4.132 -0.4400 -0.1831  0.4032
23647SOL    HW273096   3.569   4.912   4.183 -0.9625  0.8579  0.4269
23648SOL     OW73097   4.152   7.786   7.881 -0.4864  0.3721 -0.2273
23648SOL    HW173098   4.061   7.755   7.883 -1.1385  2.1320 -0.5629
23648SOL    HW273099   4.174   7.801   7.972  0.5972 -2.9144  0.1954
23649SOL     OW73100   5.659   3.318   3.064 -0.2353  0.4511 -0.0185
23649SOL    HW173101   5.663   3.374   2.987 -1.8209  1.8733  0.8716
23649SOL    HW273102   5.630   3.233   3.030 -2.0018  1.3424 -0.9144
23650SOL     OW73103   0.104   4.680   3.356 -0.1123 -0.5826  0.1078
23650SOL    HW173104   0.133   4.768   3.331  2.2483 -0.8429  1.6574
23650SOL    HW273105   0.086   4.636   3.272  1.5093  0.4712 -0.8476
23651SOL     OW73106   0.217   0.939   2.450 -0.1468  0.2070  0.0574
23651SOL    HW173107   0.210   0.845   2.470  1.2798 -0.2018 -1.1437
23651SOL    HW273108   0.254   0.942   2.362 -0.0165  1.9142  0.1383
23652SOL     OW73109   2.316   6.514   8.076  0.7724 -0.3101  0.0988
23652SOL    HW173110   2.250   6.453   8.041  0.5740 -0.0687  0.0493
23652SOL    HW273111   2.321   6.493   8.169 -0.9159  1.0525  0.5568
23653SOL     OW73112   9.032   8.597   3.007  0.4758  0.6202  0.0059
23653SOL    HW173113   9.015   8.529   3.072  0.0304  0.8964  0.1909
23653SOL    HW273114   9.034   8.552   2.923  2.3075  0.0643  0.3037
23654SOL     OW73115   5.980   4.543   9.530  0.0705 -0.5887  0.5408
23654SOL    HW173116   6.073   4.525   9.517  1.4516  4.8479  0.4634
23654SOL    HW273117   5.943   4.546   9.442  0.6101  0.1583  0.3258
23655SOL     OW73118   2.901   1.882   4.452  0.0755  0.5681 -0.5502
23655SOL    HW173119   2.838   1.864   4.522  0.6531  0.2049 -0.1118
23655SOL    HW273120   2.890   1.975   4.434 -0.5124  0.5355 -0.4107
23656SOL     OW73121   6.455   5.569   2.380 -0.0660 -0.5009  0.2613
23656SOL    HW173122   6.428   5.559   2.289  1.9347  0.8785 -0.5435
23656SOL    HW273123   6.470   5.663   2.391 -1.2469 -0.5050  2.3336
23657SOL     OW73124   6.478   8.036   7.542  0.4219 -0.0893 -0.0253
23657SOL    HW173125   6.461   8.100   7.473 -0.7108  0.8035  1.0480
23657SOL    HW273126   6.415   7.966   7.526  0.7476 -0.2974 -0.4038
23658SOL     OW73127   9.476   6.139   5.685  0.5709  0.6350  0.0582
23658SOL    HW173128   9.408   6.076   5.662  0.8002  0.0987  0.8074
23658SOL    HW273129   9.535   6.139   5.609 -0.0471  0.8099 -0.4232
23659SOL     OW73130   7.672   3.697   7.093  0.2644 -0.1329  0.0083
23659SOL    HW173131   7.657   3.615   7.141 -0.4838 -1.1580 -1.8279
23659SOL    HW273132   7.648   3.675   7.002 -1.1021  2.4630 -0.3412
23660SOL     OW73133   0.138   1.560   1.987  0.0034 -0.0534 -0.0070
23660SOL    HW173134   0.178   1.528   1.906  0.3533  2.2555 -0.8298
23660SOL    HW273135   0.198   1.531   2.056 -0.5542 -2.4817 -0.4605
23661SOL     OW73136   5.701   9.349   4.255 -0.0948  0.9008 -0.3239
23661SOL    HW173137   5.725   9.364   4.347 -0.9710 -0.2089  0.1131
23661SOL    HW273138   5.784   9.329   4.212  0.0221 -2.0765  0.9946
23662SOL     OW73139   2.923   2.095   2.964 -0.0529  0.2481  0.2975
23662SOL    HW173140   2.966   2.124   3.045 -0.2388  0.1965  0.4140
23662SOL    HW273141   2.877   2.172   2.932 -0.6492  0.0570  0.6727
23663SOL     OW73142   7.162   0.959   3.563 -0.1739 -0.2087 -0.0410
23663SOL    HW173143   7.159   0.903   3.641 -1.1366 -0.6204 -0.3617
23663SOL    HW273144   7.245   1.007   3.572  0.4963 -1.3948  0.4397
23664SOL     OW73145   2.808   6.292   2.858  0.4703  0.1065 -0.5334
23664SOL    HW173146   2.836   6.318   2.945  0.1112  0.9154 -0.6495
23664SOL    HW273147   2.886   6.302   2.803 -0.0855  2.8198 -0.9527
23665SOL     OW73148   8.618   2.904   3.439 -0.1027 -0.2186  0.3793
23665SOL    HW173149   8.566   2.956   3.500  0.1699  0.2317  0.2372
23665SOL    HW273150   8.623   2.818   3.478  0.5073  0.2012  1.2545
23666SOL     OW73151   6.179   3.870   2.268 -0.0591 -0.0656  0.1479
23666SOL    HW173152   6.202   3.911   2.184 -0.9800  1.2347  0.4884
23666SOL    HW273153   6.101   3.918   2.296  0.0017 -0.7639  1.5542
23667SOL     OW73154   3.649   1.461   3.541  0.3136  0.0236 -0.4962
23667SOL    HW173155   3.586   1.394   3.568  0.5132 -0.5224 -1.3321
23667SOL    HW273156   3.733   1.431   3.576  0.6585 -0.9354 -2.0495
23668SOL     OW73157   9.113   4.851   1.822  0.7001 -0.5653 -1.4547
23668SOL    HW173158   9.186   4.884   1.875  1.0657 -2.0792 -0.9701
23668SOL    HW273159   9.047   4.826   1.887 -0.2444  0.7085 -1.8859
23669SOL     OW73160   0.935   2.954   5.844 -0.4914 -0.2508 -0.1430
23669SOL    HW173161   0.903   2.864   5.834  1.4535 -1.1031  0.7433
23669SOL    HW273162   1.030   2.947   5.838 -0.1237  1.3890  2.2264
23670SOL     OW73163   6.246   1.344   2.060  0.0831 -0.0692  0.2211
23670SOL    HW173164   6.176   1.301   2.108 -0.9953  0.2802 -0.9920
23670SOL    HW273165   6.208   1.364   1.974  1.4844  0.6444 -0.2653
23671SOL     OW73166   0.243   3.172   1.665  0.0606 -0.0643 -0.1446
23671SOL    HW173167   0.263   3.263   1.686  1.7693 -0.8093  1.9274
23671SOL    HW273168   0.329   3.129   1.662 -0.7768 -1.9559  0.9704
23672SOL     OW73169   7.704   3.802   2.245 -0.2189  0.1644  0.3868
23672SOL    HW173170   7.716   3.865   2.174 -0.9361 -0.5015 -0.3537
23672SOL    HW273171   7.738   3.847   2.322  1.0444  0.7199 -0.4501
23673SOL     OW73172   0.277   6.865   0.505 -0.0662  0.5635  0.5021
23673SOL    HW173173   0.304   6.829   0.421 -2.6657 -0.6367  0.0865
23673SOL    HW273174   0.310   6.954   0.505  2.7363 -0.3655 -0.3710
23674SOL     OW73175   4.195   6.332   4.598  0.4043 -0.4995  0.6581
23674SOL    HW173176   4.142   6.411   4.608 -0.3441 -0.7518 -0.9439
23674SOL    HW273177   4.155   6.269   4.657 -1.4509 -0.8304 -0.8594
23675SOL     OW73178   2.799   6.336   0.155  0.1400  0.6048  0.3344
23675SOL    HW173179   2.819   6.244   0.141 -0.9976  0.6288 -1.9932
23675SOL    HW273180   2.847   6.360   0.234 -0.9193 -2.4098  2.0555
23676SOL     OW73181   2.968   8.458   1.736 -0.0044 -0.2039 -0.1510
23676SOL    HW173182   2.989   8.544   1.772  0.9458  0.3485 -1.9491
23676SOL    HW273183   3.052   8.412   1.733 -0.1001 -0.3221 -1.3863
23677SOL     OW73184   3.612   3.510   0.273 -0.2882  0.4773 -0.5255
23677SOL    HW173185   3.576   3.439   0.221  1.7050 -1.6603  0.8135
23677SOL    HW273186   3.689   3.539   0.225  0.5421 -0.2905  0.2991
23678SOL     OW73187   4.068   9.475   0.540 -0.2603 -0.4918  0.7539
23678SOL    HW173188   4.116   9.554   0.562 -1.0024 -0.0231  0.7250
23678SOL    HW273189   4.099   9.451   0.452  0.9219 -0.9890  1.2842
23679SOL     OW73190   4.973   8.280   7.116 -0.4973 -0.1806  0.2129
23679SOL    HW173191   4.966   8.246   7.205  1.5425 -0.7673  0.2184
23679SOL    HW273192   4.898   8.243   7.070 -0.8722 -0.9229  1.3674
23680SOL     OW73193   9.456   0.956   5.652  0.6386 -0.1488 -0.1881
23680SOL    HW173194   9.387   0.908   5.697  0.1766 -0.0166 -0.7438
23680SOL    HW273195   9.530   0.954   5.713  0.1738 -0.3573  0.3832
23681SOL     OW73196   6.041   5.748   0.206  0.0584 -0.1289 -0.5676
23681SOL    HW173197   6.000   5.673   0.249 -1.4389  1.6336  1.2519
23681SOL    HW273198   6.066   5.716   0.119  0.5859 -3.0379  0.5632
23682SOL     OW73199   6.040   2.515   5.105  0.1572  0.1406 -0.1626
23682SOL    HW173200   6.123   2.478   5.076  0.6528  1.2819 -0.2571
23682SOL    HW273201   6.051   2.609   5.096 -1.5217  0.2976 -1.2235
23683SOL     OW73202   3.319   1.876   2.038  0.7418 -0.7490  0.2971
23683SOL    HW173203   3.354   1.937   1.974 -0.9798  0.2853  0.2830
23683SOL    HW273204   3.226   1.870   2.017  0.0901 -0.2857  2.7553
23684SOL     OW73205   5.584   6.971   2.002  0.1029  0.4149 -0.0756
23684SOL    HW173206   5.584   6.893   1.947 -0.5292  0.7505 -0.5606
23684SOL    HW273207   5.496   7.007   1.993  0.0187  0.5367  1.0715
23685SOL     OW73208   6.673   3.753   1.463  0.2562  0.8020  0.2414
23685SOL    HW173209   6.675   3.779   1.371 -0.6151 -0.8986 -0.3039
23685SOL    HW273210   6.644   3.832   1.509  0.1095  1.5069 -1.0003
23686SOL     OW73211   9.419   8.705   5.481  0.5971 -0.4313  0.1244
23686SOL    HW173212   9.487   8.717   5.548  0.4675  1.7075 -0.0616
23686SOL    HW273213   9.434   8.777   5.419 -1.9587  0.2460  0.1988
23687SOL     OW73214   3.227   0.780   3.271 -0.6753  0.4035  0.3445
23687SOL    HW173215   3.133   0.798   3.282 -0.5453  0.7707  0.8964
23687SOL    HW273216   3.233   0.735   3.187 -1.4848 -0.6805  0.8510
23688SOL     OW73217   8.579   8.467   1.164  0.1540 -0.9774 -0.2911
23688SOL    HW173218   8.598   8.389   1.111 -1.9649 -0.5580 -1.7963
23688SOL    HW273219   8.485   8.462   1.181  0.2109  0.6105  0.6867
23689SOL     OW73220   6.626   2.583   9.481  0.0177 -0.2957 -0.0443
23689SOL    HW173221   6.606   2.594   9.574  0.1839 -2.3592  0.2739
23689SOL    HW273222   6.711   2.625   9.470 -0.0333  0.0328  0.7035
23690SOL     OW73223   6.596   4.616   8.495  0.0732 -0.5025  0.5547
23690SOL    HW173224   6.607   4.604   8.401  1.2734  0.8787  0.4751
23690SOL    HW273225   6.585   4.711   8.506 -4.4009 -0.9316  1.4507
23691SOL     OW73226   2.575   8.445   4.555 -0.2179  0.6407  0.1630
23691SOL    HW173227   2.602   8.514   4.615  1.8425 -0.3329  0.4555
23691SOL    HW273228   2.611   8.471   4.470 -1.9712  1.3483 -0.3969
23692SOL     OW73229   0.733   1.186   4.867  0.1943 -0.1171  0.5220
23692SOL    HW173230   0.829   1.181   4.860  0.0336 -1.9774 -1.4609
23692SOL    HW273231   0.708   1.260   4.812  0.5308  1.3270  2.2310
23693SOL     OW73232   8.639   8.084   5.597 -0.3157  0.1479  1.0124
23693SOL    HW173233   8.687   8.064   5.517 -0.2979 -0.0471  1.0714
23693SOL    HW273234   8.707   8.096   5.664 -0.2174  2.0326  0.6452
23694SOL     OW73235   7.157   8.203   6.199 -0.0974 -0.1134  0.2631
23694SOL    HW173236   7.190   8.244   6.279 -0.9230 -2.3420  1.8560
23694SOL    HW273237   7.168   8.269   6.131 -0.8646  2.4941  2.5326
23695SOL     OW73238   2.962   6.574   8.254 -0.1487 -0.1692  0.0907
23695SOL    HW173239   3.012   6.495   8.273  0.0174 -0.2068 -0.4879
23695SOL    HW273240   2.915   6.593   8.336  1.4027  0.3200  0.9009
23696SOL     OW73241   1.099   8.136   2.019  1.1884  0.1606 -0.1701
23696SOL    HW173242   1.043   8.058   2.019  0.3094  0.7759  0.9911
23696SOL    HW273243   1.122   8.148   1.926 -2.6797  1.3630 -1.1294
23697SOL     OW73244   3.832   3.277   2.884 -0.5501 -0.7596  0.5717
23697SOL    HW173245   3.798   3.296   2.972 -1.4512 -1.4949  0.4003
23697SOL    HW273246   3.783   3.335   2.826  0.1062 -0.2130  0.5628
23698SOL     OW73247   3.190   4.711   8.503 -0.1823 -0.2090 -0.7411
23698SOL    HW173248   3.216   4.754   8.422  0.3858 -0.2409 -0.5803
23698SOL    HW273249   3.209   4.774   8.572  1.7720 -1.1215 -0.3885
23699SOL     OW73250   8.809   2.270   8.798 -0.4931  0.2199 -0.3133
23699SOL    HW173251   8.749   2.264   8.723 -0.4261  1.9763 -0.5529
23699SOL    HW273252   8.896   2.274   8.758 -0.3835  0.0791 -0.0870
23700SOL     OW73253   3.685   6.578   3.812  0.7120 -0.0744  0.1345
23700SOL    HW173254   3.706   6.506   3.752  1.1803 -0.1187  0.3424
23700SOL    HW273255   3.758   6.579   3.874 -0.0249 -0.3644  1.0256
23701SOL     OW73256   7.133   7.669   9.340 -0.2547  0.1453 -0.3406
23701SOL    HW173257   7.158   7.671   9.433  0.2753 -1.4583 -0.4181
23701SOL    HW273258   7.210   7.633   9.296 -1.0928 -0.6378 -1.1868
23702SOL     OW73259   7.868   5.632   0.839  0.1572 -0.2996  0.3277
23702SOL    HW173260   7.862   5.706   0.899 -1.1240 -0.9591  1.0536
23702SOL    HW273261   7.860   5.555   0.895 -1.3888 -0.9234 -0.6876
23703SOL     OW73262   1.554   9.606   4.783  0.4675  0.5417 -0.0069
23703SOL    HW173263   1.538   9.618   4.876 -1.6398  0.0104 -0.2419
23703SOL    HW273264   1.648   9.621   4.772  0.9105 -0.1918  2.3063
23704SOL     OW73265   5.936   0.247   6.566 -0.0696  0.1461  0.2066
23704SOL    HW173266   5.961   0.272   6.656  0.4392  0.4983 -0.0262
23704SOL    HW273267   5.842   0.262   6.563  0.2421  2.4556 -0.0153
23705SOL     OW73268   6.144   7.529   2.593  0.1477  0.9914 -0.7586
23705SOL    HW173269   6.086   7.600   2.565  0.8799  1.7011 -0.5302
23705SOL    HW273270   6.211   7.526   2.525 -0.1836  0.1241 -1.0629
23706SOL     OW73271   1.324   6.740   3.513  0.1105 -0.4459 -0.1140
23706SOL    HW173272   1.265   6.697   3.452  1.0559  0.5926 -1.8367
23706SOL    HW273273   1.298   6.833   3.510 -0.0404 -0.4169  1.3343
23707SOL     OW73274   6.454   4.160   3.455 -0.0742  0.4150  0.0085
23707SOL    HW173275   6.382   4.121   3.406  0.4031 -0.5922  0.0789
23707SOL    HW273276   6.520   4.091   3.460  0.0754  0.6272  1.6806
23708SOL     OW73277   2.607   8.952   0.985 -0.6182  0.2482  0.7506
23708SOL    HW173278   2.569   9.040   0.986 -0.8881  0.1600 -0.5207
23708SOL    HW273279   2.690   8.962   0.938 -0.5234 -0.1254  0.8344
23709SOL     OW73280   2.842   8.060   1.252  0.0202 -0.2253  0.0778
23709SOL    HW173281   2.775   8.090   1.313 -0.1843 -0.4947 -0.0169
23709SOL    HW273282   2.925   8.078   1.297 -0.1214 -0.1230  0.2962
23710SOL     OW73283   5.855   9.388   1.538  0.1767  0.3223  0.0674
23710SOL    HW173284   5.767   9.418   1.519  0.8495  1.4160 -1.5742
23710SOL    HW273285   5.889   9.449   1.603 -0.0243  0.3634  0.1313
23711SOL     OW73286   6.022   6.138   4.670 -0.0282 -0.1875 -0.2684
23711SOL    HW173287   5.930   6.165   4.677  0.0801  0.5418 -1.4373
23711SOL    HW273288   6.020   6.043   4.683 -1.0509 -0.2917 -1.0691
23712SOL     OW73289   6.187   6.286   9.180  0.1973  0.2133 -0.3400
23712SOL    HW173290   6.186   6.380   9.160 -0.2994 -0.0184 -1.4814
23712SOL    HW273291   6.276   6.258   9.160 -0.4630 -0.1631 -3.1600
23713SOL     OW73292   0.285   9.587   0.686 -0.0788  0.3831 -0.1770
23713SOL    HW173293   0.285   9.654   0.617  2.6155  0.6237 -0.0693
23713SOL    HW273294   0.293   9.504   0.639  1.7878  0.5496 -0.2430
23714SOL     OW73295   9.440   8.934   9.380  0.0893 -0.5523 -0.0731
23714SOL    HW173296   9.425   8.974   9.294  1.0884 -0.2764 -0.1296
23714SOL    HW273297   9.513   8.983   9.417  0.0537 -1.0597  0.6875
23715SOL     OW73298   5.163   6.887   9.501 -0.0705  0.0379 -0.3960
23715SOL    HW173299   5.112   6.888   9.420  2.0383 -1.7782 -1.8363
23715SOL    HW273300   5.221   6.963   9.494 -0.7327  0.6044  0.0471
23716SOL     OW73301   9.152   9.501   3.021  0.1878 -0.1760 -0.7082
23716SOL    HW173302   9.217   9.450   3.069 -1.2215 -0.8635  0.5939
23716SOL    HW273303   9.170   9.484   2.929  0.7850 -1.7054 -0.3310
23717SOL     OW73304   1.756   8.319   2.168  0.0049 -0.2641  0.3873
23717SOL    HW173305   1.689   8.295   2.232  2.4516 -1.8898  2.5445
23717SOL    HW273306   1.823   8.365   2.219  1.6060 -0.7562 -1.1629
23718SOL     OW73307   4.767   3.564   3.205 -0.7474 -0.1533 -0.4010
23718SOL    HW173308   4.793   3.561   3.113  0.5055 -2.3874 -0.0380
23718SOL    HW273309   4.802   3.483   3.243 -1.2526  0.6910  2.0485
23719SOL     OW73310   4.666   4.728   1.251  0.1347  1.1271 -0.0744
23719SOL    HW173311   4.752   4.745   1.290  0.8030  1.3881 -1.6132
23719SOL    HW273312   4.661   4.786   1.176 -0.4094 -0.5510 -1.4088
23720SOL     OW73313   8.925   2.021   5.473  0.4621 -0.3026 -0.1472
23720SOL    HW173314   9.007   2.028   5.424 -0.4044  1.1827 -1.4504
23720SOL    HW273315   8.925   1.930   5.505  3.1059 -0.0500  0.8605
23721SOL     OW73316   8.092   8.003   0.752 -0.1916 -0.1151  0.6615
23721SOL    HW173317   8.168   8.059   0.769  0.4330 -0.4278 -0.9441
23721SOL    HW273318   8.032   8.058   0.702 -0.4166 -0.2977  0.7316
23722SOL     OW73319   7.899   3.495   8.355  0.0048 -0.0494 -0.2363
23722SOL    HW173320   7.932   3.501   8.265 -1.7317  1.5131 -0.8476
23722SOL    HW273321   7.869   3.584   8.375  0.2186 -0.4078  1.8519
23723SOL     OW73322   8.015   7.557   6.333 -0.3081 -0.0151 -0.3444
23723SOL    HW173323   7.999   7.562   6.238  2.0744  0.8681 -0.7517
23723SOL    HW273324   7.927   7.552   6.371 -1.4446  1.6563 -2.4872
23724SOL     OW73325   5.628   7.854   3.697  0.1219 -0.0388  0.0071
23724SOL    HW173326   5.580   7.842   3.779 -0.4758 -2.2155 -0.6028
23724SOL    HW273327   5.658   7.945   3.700 -0.5970  0.1794  2.2417
23725SOL     OW73328   8.039   5.128   9.271  0.7142  0.5407 -0.2138
23725SOL    HW173329   8.046   5.133   9.367 -0.2741  0.9452 -0.1555
23725SOL    HW273330   7.957   5.172   9.251 -0.3556 -1.6694 -1.0288
23726SOL     OW73331   6.039   7.396   1.621 -0.5443 -0.4253  0.4880
23726SOL    HW173332   5.984   7.464   1.660  0.2622  1.1237 -0.9284
23726SOL    HW273333   6.110   7.384   1.684 -1.5393 -1.1954  1.5161
23727SOL     OW73334   2.758   1.274   3.865  0.8132 -0.5767 -0.7173
23727SOL    HW173335   2.698   1.347   3.852 -0.2723 -1.5923 -1.5602
23727SOL    HW273336   2.702   1.197   3.870  1.9190 -1.3491  0.3820
23728SOL     OW73337   8.804   8.819   2.857 -0.1098 -0.4834  0.5224
23728SOL    HW173338   8.830   8.786   2.943  2.3530  1.5794  0.7027
23728SOL    HW273339   8.860   8.771   2.795  1.5837  1.3279  0.5646
23729SOL     OW73340   5.643   4.346   3.175  0.2361  0.2611 -0.3023
23729SOL    HW173341   5.631   4.284   3.248 -1.4446 -0.3908 -1.0782
23729SOL    HW273342   5.628   4.432   3.213 -2.0555 -0.1671 -0.1049
23730SOL     OW73343   0.362   2.725   5.568 -0.3799 -0.2845  0.3998
23730SOL    HW173344   0.400   2.668   5.635  0.3415  0.1382  0.3613
23730SOL    HW273345   0.275   2.746   5.601 -0.5300 -1.1364  0.5695
23731SOL     OW73346   7.119   0.182   3.109 -0.2669  0.3809 -0.2217
23731SOL    HW173347   7.211   0.176   3.131 -0.2361 -0.3940 -0.5031
23731SOL    HW273348   7.117   0.181   3.013 -0.5251  1.1781 -0.2255
23732SOL     OW73349   3.471   7.206   4.689 -0.1098 -0.6198 -0.3071
23732SOL    HW173350   3.377   7.191   4.677 -0.4363  0.4600  0.7691
23732SOL    HW273351   3.503   7.125   4.729 -0.8433 -0.5201  0.5140
23733SOL     OW73352   2.542   4.234   1.771 -0.6021 -0.1387 -0.2983
23733SOL    HW173353   2.513   4.310   1.821 -2.1808 -1.4165  0.8125
23733SOL    HW273354   2.638   4.236   1.779 -0.7458 -0.0496  2.4787
23734SOL     OW73355   8.553   8.316   7.410 -0.3879 -0.0858  0.3538
23734SOL    HW173356   8.646   8.295   7.407 -0.6472 -1.4555  1.0596
23734SOL    HW273357   8.519   8.263   7.482 -2.1485 -1.5014 -1.4092
23735SOL     OW73358   0.093   5.159   3.970  0.4052 -0.1280  0.2863
23735SOL    HW173359   0.174   5.112   3.949  0.5612 -0.0646  0.7273
23735SOL    HW273360   0.081   5.145   4.064 -0.3467 -0.5211  0.1430
23736SOL     OW73361   4.930   1.333   5.879 -0.2474  0.4747  0.1778
23736SOL    HW173362   4.980   1.257   5.849 -0.2116  0.2562  0.7673
23736SOL    HW273363   4.967   1.407   5.832 -0.0699  0.1680 -0.1697
23737SOL     OW73364   2.903   2.032   6.739 -0.3037 -0.0973 -0.1235
23737SOL    HW173365   2.852   2.086   6.800 -0.3558 -0.0954 -0.1686
23737SOL    HW273366   2.954   2.095   6.688  0.5394 -0.1520  0.6341
23738SOL     OW73367   6.039   6.085   8.076  0.3048  0.4924  0.1267
23738SOL    HW173368   6.022   6.011   8.019 -0.4305  2.2917 -2.1540
23738SOL    HW273369   6.108   6.055   8.135  1.2889 -1.4274 -1.8631
23739SOL     OW73370   9.377   1.588   9.525  0.4231  0.4098  0.6040
23739SOL    HW173371   9.458   1.538   9.533  0.3181  0.1044 -0.0876
23739SOL    HW273372   9.404   1.680   9.531  0.7867  0.3017  0.6351
23740SOL     OW73373   7.981   2.322   0.292  0.0930  0.0227 -0.5421
23740SOL    HW173374   7.919   2.373   0.344  0.7964  0.9068 -0.5327
23740SOL    HW273375   8.035   2.276   0.356  0.0607  0.0198 -0.5172
23741SOL     OW73376   9.011   1.690   6.055  0.2176 -0.3353 -0.0536
23741SOL    HW173377   8.921   1.664   6.036 -0.4297  1.6340  0.1516
23741SOL    HW273378   9.027   1.657   6.143  0.1731 -1.8206 -0.5752
23742SOL     OW73379   5.079   8.239   0.891 -0.2446 -1.0114 -0.0008
23742SOL    HW173380   5.139   8.300   0.935 -0.4686 -1.9000  1.5872
23742SOL    HW273381   5.090   8.259   0.797 -0.9072  2.0027  0.4619
23743SOL     OW73382   2.366   5.468   8.717  0.6483 -0.3104  0.1943
23743SOL    HW173383   2.379   5.393   8.776 -1.6993 -0.3713  0.7124
23743SOL    HW273384   2.288   5.511   8.750  1.0235  1.4418 -1.0960
23744SOL     OW73385   6.135   9.494   8.061 -0.1523 -0.3983  0.3424
23744SOL    HW173386   6.111   9.529   7.976  0.0862  0.8147  0.7594
23744SOL    HW273387   6.174   9.408   8.042  1.7205  0.6661 -0.9660
23745SOL     OW73388   4.731   9.242   4.142 -0.1238 -0.2620  0.3542
23745SOL    HW173389   4.689   9.316   4.098  0.2966  0.1361  0.6210
23745SOL    HW273390   4.691   9.240   4.229 -0.5013 -0.6663  0.1787
23746SOL     OW73391   6.955   5.182   4.401  0.6004 -0.0088 -0.5252
23746SOL    HW173392   6.944   5.092   4.431  1.2334 -0.0076 -0.2729
23746SOL    HW273393   6.878   5.199   4.348 -0.1483 -0.2774  0.4532
23747SOL     OW73394   5.597   7.526   1.886 -0.0556 -0.2338 -0.4351
23747SOL    HW173395   5.506   7.526   1.855 -0.3125 -0.0229  0.2844
23747SOL    HW273396   5.618   7.618   1.901  0.3808 -0.2582 -0.8833
23748SOL     OW73397   8.370   7.562   7.815 -0.0137 -0.2003  0.1146
23748SOL    HW173398   8.326   7.535   7.895 -2.6815  1.7058 -0.5694
23748SOL    HW273399   8.397   7.652   7.831  0.9404 -0.3442 -0.5712
23749SOL     OW73400   4.904   5.209   9.604 -0.2195 -0.5704  0.2145
23749SOL    HW173401   4.842   5.246   9.667 -0.8704  0.3337 -0.9154
23749SOL    HW273402   4.963   5.156   9.657 -1.9809 -1.5268  1.3274
23750SOL     OW73403   5.812   6.915   3.160 -0.1673  0.5122 -0.0473
23750SOL    HW173404   5.760   6.838   3.141  0.6851 -0.3946  1.1445
23750SOL    HW273405   5.846   6.900   3.248  0.4564  1.9989 -0.0045
23751SOL     OW73406   7.334   5.560   0.908 -0.0942  0.0785  0.3993
23751SOL    HW173407   7.290   5.481   0.939  0.2255  0.1378  1.0124
23751SOL    HW273408   7.275   5.596   0.842  0.3076 -1.3340 -0.7990
23752SOL     OW73409   4.545   2.901   2.427 -0.1444  0.1392  0.5894
23752SOL    HW173410   4.535   2.878   2.520 -1.3460  0.1210  0.4669
23752SOL    HW273411   4.545   2.997   2.426  0.8540  0.1530  0.6924
23753SOL     OW73412   8.815   1.734   1.225 -0.0459  0.2784  0.0925
23753SOL    HW173413   8.752   1.698   1.288 -1.3083 -0.4227 -1.4807
23753SOL    HW273414   8.881   1.666   1.214 -0.8210 -0.3710 -0.6721
23754SOL     OW73415   5.606   6.692   2.775 -0.3204 -0.3293  0.3145
23754SOL    HW173416   5.567   6.736   2.700  0.0674  0.3132  0.4782
23754SOL    HW273417   5.532   6.663   2.828 -0.5850 -0.3171 -0.0458
23755SOL     OW73418   2.332   7.329   4.901  0.6762 -0.2256 -0.4715
23755SOL    HW173419   2.408   7.317   4.844  0.6963  0.5998 -0.6409
23755SOL    HW273420   2.339   7.259   4.965  1.5205 -0.2359 -0.5546
23756SOL     OW73421   9.592   9.602   6.089  0.0535 -0.5452  0.0298
23756SOL    HW173422   9.541   9.671   6.048 -1.1495 -1.5227 -0.1695
23756SOL    HW273423   9.671   9.646   6.121  0.9318  0.3590 -3.0133
23757SOL     OW73424   1.557   4.318   9.072 -0.2514 -0.1356  0.3609
23757SOL    HW173425   1.466   4.303   9.046  0.2393 -2.0547 -0.5092
23757SOL    HW273426   1.553   4.341   9.165 -1.5664 -1.3884  0.6519
23758SOL     OW73427   8.362   7.931   5.212 -0.7129 -0.8454  0.2208
23758SOL    HW173428   8.426   7.889   5.269 -0.6593  0.1211  0.8821
23758SOL    HW273429   8.345   7.865   5.144 -0.4471 -1.8348  1.0851
23759SOL     OW73430   8.944   0.238   8.510 -0.3940  0.1445 -0.1369
23759SOL    HW173431   8.849   0.232   8.506 -0.5120  1.7394 -0.4424
23759SOL    HW273432   8.974   0.147   8.506 -1.8585 -0.3331 -0.9541
23760SOL     OW73433   1.838   1.500   3.303  0.3311 -0.9128 -0.3418
23760SOL    HW173434   1.826   1.563   3.374 -2.3505 -1.4211 -0.2612
23760SOL    HW273435   1.916   1.531   3.257  0.0364  1.5252  0.6538
23761SOL     OW73436   4.624   3.490   8.506 -0.5230  0.1097  0.2049
23761SOL    HW173437   4.546   3.458   8.459 -0.8271  1.1580 -0.0411
23761SOL    HW273438   4.669   3.544   8.441 -0.2994  0.5836  0.7526
23762SOL     OW73439   7.031   8.802   9.372 -0.3807  0.5716  0.1868
23762SOL    HW173440   7.008   8.891   9.345 -1.7427  0.5896  1.2718
23762SOL    HW273441   6.963   8.746   9.334 -1.3503  0.4080  2.0022
23763SOL     OW73442   1.015   7.103   0.144 -0.1400 -0.3964  0.1552
23763SOL    HW173443   1.098   7.128   0.184  0.9309 -0.9070 -1.6332
23763SOL    HW273444   1.031   7.106   0.049 -2.0523 -0.8531 -0.2404
23764SOL     OW73445   2.358   9.523   6.524  0.1603  0.4052  0.1564
23764SOL    HW173446   2.438   9.559   6.564  1.0923  1.1244 -2.1268
23764SOL    HW273447   2.360   9.430   6.546  1.6116  0.4223  0.2175
23765SOL     OW73448   5.619   2.488   2.228  0.4114 -0.0203  0.4556
23765SOL    HW173449   5.707   2.468   2.195  0.0180  0.1503 -0.7488
23765SOL    HW273450   5.625   2.577   2.263  0.6711  0.0655  0.1921
23766SOL     OW73451   8.884   9.171   6.414 -0.1809  1.0141  0.7361
23766SOL    HW173452   8.954   9.116   6.448 -0.9261  1.4276  3.1281
23766SOL    HW273453   8.804   9.133   6.449 -1.0733  1.3401 -0.8405
23767SOL     OW73454   6.541   6.161   3.563  0.2118 -0.1532 -0.0344
23767SOL    HW173455   6.600   6.236   3.570 -0.5612  0.4922 -0.3358
23767SOL    HW273456   6.474   6.176   3.630 -1.9619  1.3087 -2.3625
23768SOL     OW73457   1.301   8.123   8.291  0.5941  0.2385 -0.3074
23768SOL    HW173458   1.360   8.077   8.231  1.6301  2.5077 -1.1458
23768SOL    HW273459   1.272   8.200   8.242 -1.3636  0.3178  0.8935
23769SOL     OW73460   7.090   0.998   7.946 -0.0540  0.1627  0.2472
23769SOL    HW173461   7.154   0.970   7.880 -0.4801 -0.1509 -0.0391
23769SOL    HW273462   7.037   1.063   7.901 -1.2525 -1.0677 -0.1928
23770SOL     OW73463   4.118   3.982   8.273  0.1380  0.2080 -0.0949
23770SOL    HW173464   4.177   4.053   8.299 -0.0613  0.3104  0.0801
23770SOL    HW273465   4.061   4.022   8.207 -0.8870  0.6110  1.0044
23771SOL     OW73466   4.294   8.822   8.718 -0.4455  0.1454 -0.3782
23771SOL    HW173467   4.224   8.883   8.741 -0.3428 -0.0028  0.3766
23771SOL    HW273468   4.321   8.847   8.630  1.2731  2.8336  0.7723
23772SOL     OW73469   3.070   6.004   9.360 -0.2274  0.2646  0.1895
23772SOL    HW173470   3.069   5.991   9.265  0.1681 -1.4312  0.3960
23772SOL    HW273471   3.133   6.075   9.373 -0.9895  1.1757 -0.8692
23773SOL     OW73472   2.063   6.089   9.538 -0.3779  0.6487 -0.5018
23773SOL    HW173473   2.148   6.128   9.517 -0.3092  1.7892  1.6174
23773SOL    HW273474   2.058   6.011   9.483  1.4761  1.2464 -1.5980
23774SOL     OW73475   6.314   1.806   4.330 -0.1532 -0.3345  0.1700
23774SOL    HW173476   6.241   1.753   4.363 -0.9822  0.2545 -0.6689
23774SOL    HW273477   6.276   1.892   4.313  1.3511  0.8816  2.3625
23775SOL     OW73478   6.071   7.972   4.800 -0.1158 -0.7742  0.1220
23775SOL    HW173479   6.077   8.004   4.710  0.6368  2.6606  1.2540
23775SOL    HW273480   6.079   7.877   4.792 -0.1955 -0.6125 -3.4161
23776SOL     OW73481   3.029   5.321   1.544  0.4408  0.0097 -0.2464
23776SOL    HW173482   2.985   5.387   1.490 -0.6458 -0.9717 -0.6198
23776SOL    HW273483   2.972   5.244   1.538  1.2785 -0.7196  0.7928
23777SOL     OW73484   5.532   0.925   5.908 -0.0999  0.8320 -0.1563
23777SOL    HW173485   5.598   0.934   5.977  0.0700  1.0471 -0.3470
23777SOL    HW273486   5.449   0.919   5.955  0.2212 -1.8956  0.2449
23778SOL     OW73487   6.354   1.898   9.220 -0.1949 -0.0582 -0.0228
23778SOL    HW173488   6.404   1.879   9.300 -1.3538  0.8827  0.9721
23778SOL    HW273489   6.421   1.911   9.152  0.7942 -3.7590  0.0195
23779SOL     OW73490   5.517   5.426   9.017 -0.0039 -0.0081  0.1265
23779SOL    HW173491   5.422   5.416   9.029  0.1123 -2.1772 -0.3303
23779SOL    HW273492   5.527   5.511   8.975 -1.9312 -0.5745 -1.6350
23780SOL     OW73493   6.972   0.575   0.882 -0.3901  0.4210  0.3070
23780SOL    HW173494   7.057   0.535   0.901  0.4378  2.3215  0.8264
23780SOL    HW273495   6.929   0.582   0.967 -0.4405  0.8282  0.2477
23781SOL     OW73496   5.166   8.571   1.388 -0.4651 -0.2355 -0.2871
23781SOL    HW173497   5.079   8.612   1.382 -0.6321 -0.6615 -0.9122
23781SOL    HW273498   5.208   8.614   1.463 -0.8679  0.6284 -0.5461
23782SOL     OW73499   3.977   5.417   2.817 -0.0333  0.0827  0.2078
23782SOL    HW173500   4.039   5.402   2.888  0.7539  0.7950 -0.3200
23782SOL    HW273501   3.949   5.508   2.828 -0.1486  0.0982 -0.2153
23783SOL     OW73502   8.247   8.872   8.624  0.2041  0.2176  0.3352
23783SOL    HW173503   8.218   8.786   8.655  1.2920 -0.2998 -0.0079
23783SOL    HW273504   8.319   8.895   8.682  0.0832  0.7728  0.2617
23784SOL     OW73505   2.565   6.758   3.299 -0.0284 -0.3207  0.1825
23784SOL    HW173506   2.615   6.781   3.221  1.3544 -1.6493  0.6266
23784SOL    HW273507   2.504   6.691   3.270 -0.3696  0.0642  0.0002
23785SOL     OW73508   7.937   6.453   9.214 -0.1760 -0.9816  0.1967
23785SOL    HW173509   7.873   6.492   9.273 -1.2105 -2.4273  0.1093
23785SOL    HW273510   8.022   6.470   9.254 -0.8174 -1.5185  1.8808
23786SOL     OW73511   6.587   7.902   5.517 -0.1387  1.0324  0.2820
23786SOL    HW173512   6.555   7.838   5.453 -0.3285  0.7496  0.6591
23786SOL    HW273513   6.508   7.932   5.562 -0.2959  2.8931 -1.1198
23787SOL     OW73514   3.769   2.969   7.745  0.4081  1.0636  0.1029
23787SOL    HW173515   3.812   2.896   7.701 -2.3356 -0.5536 -0.1175
23787SOL    HW273516   3.732   3.021   7.674 -1.3570  0.1798  0.3229
23788SOL     OW73517   7.052   9.213   5.514 -0.3892  0.3572  0.1899
23788SOL    HW173518   6.958   9.204   5.530 -0.5580  0.2065 -0.8373
23788SOL    HW273519   7.091   9.135   5.552 -0.8537 -0.3345 -0.7258
23789SOL     OW73520   8.786   9.135   3.021 -0.0001  0.1101  0.1059
23789SOL    HW173521   8.821   9.072   2.958 -0.4275  0.8207 -0.8792
23789SOL    HW273522   8.846   9.210   3.015 -0.5398  0.5325 -0.1128
23790SOL     OW73523   0.969   2.221   5.336  0.1424  0.1523 -0.0052
23790SOL    HW173524   1.021   2.196   5.259  0.8947 -0.3996  0.6599
23790SOL    HW273525   0.920   2.141   5.358 -0.5084  0.4778 -0.2382
23791SOL     OW73526   2.878   9.192   1.558  0.2642  0.0887  0.4997
23791SOL    HW173527   2.902   9.285   1.555  1.8975 -0.3219 -0.3328
23791SOL    HW273528   2.891   9.162   1.468  0.3519 -1.0795  0.8917
23792SOL     OW73529   5.965   6.814   8.177  0.1455 -0.4385  0.2979
23792SOL    HW173530   6.039   6.848   8.127 -1.1876  0.5815 -1.0704
23792SOL    HW273531   5.973   6.719   8.170  0.5019 -0.3245 -1.1188
23793SOL     OW73532   5.802   9.441   4.822  0.6820 -0.6022 -0.2147
23793SOL    HW173533   5.896   9.433   4.839  0.0453 -1.0333  4.1447
23793SOL    HW273534   5.780   9.530   4.848 -0.0289 -0.0714 -2.4029
23794SOL     OW73535   3.081   2.049   0.862  0.1941  0.1140 -0.0262
23794SOL    HW173536   3.068   2.133   0.907 -0.9310  0.3812 -0.8193
23794SOL    HW273537   3.059   1.983   0.928  0.0015  0.4683  0.2677
23795SOL     OW73538   7.945   4.356   0.448 -0.1424 -0.0980 -0.0945
23795SOL    HW173539   7.860   4.318   0.427  0.0035  0.5805 -2.1718
23795SOL    HW273540   8.003   4.281   0.460 -0.9291 -0.5569  1.0040
23796SOL     OW73541   8.349   0.451   4.797  0.5978  0.3032 -0.4663
23796SOL    HW173542   8.310   0.510   4.861 -0.4712  1.0087 -1.7374
23796SOL    HW273543   8.422   0.501   4.759  0.9530  0.0454 -0.1398
23797SOL     OW73544   4.777   4.783   2.355 -0.3226  0.1209  0.1698
23797SOL    HW173545   4.796   4.691   2.340 -0.6494 -0.0387  0.6755
23797SOL    HW273546   4.831   4.831   2.292 -0.9138 -0.4563 -0.7936
23798SOL     OW73547   9.047   9.441   9.254 -0.0775  0.5080 -0.2026
23798SOL    HW173548   8.953   9.460   9.250  0.0596  0.9929 -1.4610
23798SOL    HW273549   9.078   9.450   9.164  1.1385  0.0977  0.1460
23799SOL     OW73550   2.504   1.575   5.903  0.4764 -0.2965 -0.0443
23799SOL    HW173551   2.567   1.522   5.952 -0.7240 -0.0673  1.8582
23799SOL    HW273552   2.443   1.512   5.866  1.6108 -0.4999 -1.6669
23800SOL     OW73553   3.315   4.446   7.671 -0.3645  0.0707  0.1140
23800SOL    HW173554   3.347   4.398   7.594 -0.3383 -0.6982  0.5993
23800SOL    HW273555   3.363   4.529   7.669  0.3112 -0.3205 -0.1914
23801SOL     OW73556   5.272   3.963   3.784  0.6899 -0.4751 -0.1669
23801SOL    HW173557   5.177   3.967   3.796  0.7784 -0.7990  0.7140
23801SOL    HW273558   5.294   3.870   3.794  1.2021 -0.2876  0.5179
23802SOL     OW73559   1.128   7.600   2.247 -0.3965 -0.2476 -0.2104
23802SOL    HW173560   1.162   7.559   2.327 -0.0301  0.1720 -0.1466
23802SOL    HW273561   1.083   7.529   2.201 -0.5546 -0.5077  0.3390
23803SOL     OW73562   8.443   3.607   3.113  0.1043 -0.8241 -0.3243
23803SOL    HW173563   8.367   3.571   3.067  0.1201 -0.2006 -0.8541
23803SOL    HW273564   8.477   3.674   3.054 -0.4455  0.6843  0.9959
23804SOL     OW73565   0.804   6.747   7.963  0.3377  0.0163 -0.1041
23804SOL    HW173566   0.833   6.697   7.887  2.2324  0.7828  0.0562
23804SOL    HW273567   0.760   6.824   7.926  0.6485  0.0483 -0.4066
23805SOL     OW73568   0.244   0.264   5.341 -0.3616 -0.4198 -0.4952
23805SOL    HW173569   0.159   0.273   5.299 -1.2595  2.4977  1.6179
23805SOL    HW273570   0.304   0.313   5.284 -0.9037  0.7251 -0.1082
23806SOL     OW73571   0.333   4.314   1.438  0.0488  0.1286 -0.2513
23806SOL    HW173572   0.410   4.328   1.384 -0.6503 -1.1208 -1.6477
23806SOL    HW273573   0.364   4.261   1.511  0.6226  0.0756 -0.5272
23807SOL     OW73574   9.442   2.655   5.900  0.4234  0.4455  0.1291
23807SOL    HW173575   9.450   2.636   5.994 -1.1468  3.2914  0.9571
23807SOL    HW273576   9.490   2.737   5.888 -0.1112  0.5724 -1.3879
23808SOL     OW73577   7.418   9.313   1.941  0.5703  0.8022 -0.3380
23808SOL    HW173578   7.470   9.243   1.979  0.7412  1.3654  0.4873
23808SOL    HW273579   7.364   9.270   1.874 -0.4684 -0.3974  1.2027
23809SOL     OW73580   2.009   6.108   0.201  0.0055  0.2048 -0.2103
23809SOL    HW173581   1.984   6.031   0.150  0.5090 -0.1668  0.0964
23809SOL    HW273582   1.983   6.182   0.147 -1.8748 -0.1490  0.1507
23810SOL     OW73583   1.741   8.711   2.768 -0.4405 -0.2137  0.8329
23810SOL    HW173584   1.762   8.619   2.756  2.2036  0.2597  1.1340
23810SOL    HW273585   1.757   8.751   2.682  0.0314  0.1890  1.0994
23811SOL     OW73586   2.506   6.263   2.389  0.1896 -0.0317 -0.7245
23811SOL    HW173587   2.513   6.249   2.483 -2.0161 -0.5260 -0.5908
23811SOL    HW273588   2.569   6.202   2.351  3.9582  2.7665  0.4256
23812SOL     OW73589   3.752   8.022   1.218  0.1040  0.4105  0.0901
23812SOL    HW173590   3.765   7.959   1.147 -1.7587 -0.2088  0.2177
23812SOL    HW273591   3.774   7.974   1.297  1.3243  0.8208  0.0197
23813SOL     OW73592   5.339   5.914   0.160  0.8524  0.2417  0.2815
23813SOL    HW173593   5.410   5.979   0.156  0.4466  0.6146 -1.3511
23813SOL    HW273594   5.363   5.849   0.094  0.6961 -0.7389  1.1555
23814SOL     OW73595   3.479   6.371   0.613 -0.7824 -0.0754 -0.1793
23814SOL    HW173596   3.456   6.404   0.526 -2.7902 -0.5780  0.1141
23814SOL    HW273597   3.568   6.403   0.628 -1.3548  2.2765 -1.3277
23815SOL     OW73598   5.170   3.661   2.744  0.0006 -0.1624  0.1278
23815SOL    HW173599   5.256   3.679   2.780 -0.3781  2.8068 -0.1988
23815SOL    HW273600   5.125   3.612   2.813  1.3017 -0.0086  1.1174
23816SOL     OW73601   1.413   7.152   1.098 -0.2921 -0.0857 -0.2604
23816SOL    HW173602   1.457   7.128   1.179  0.5885  0.8272 -0.4519
23816SOL    HW273603   1.413   7.072   1.046  0.0039 -0.4236  0.2537
23817SOL     OW73604   2.395   4.918   4.056  0.3896 -0.2270  0.4500
23817SOL    HW173605   2.327   4.961   4.005 -1.0227  0.1045  2.4851
23817SOL    HW273606   2.370   4.826   4.057 -0.3339 -0.0351  1.5836
23818SOL     OW73607   8.685   5.473   5.088  0.4629  0.4146 -0.6372
23818SOL    HW173608   8.709   5.485   5.180  3.9300 -0.8817 -1.2049
23818SOL    HW273609   8.608   5.417   5.090  0.9006 -0.2015  1.4666
23819SOL     OW73610   7.484   9.509   9.217  0.1762 -0.0269 -0.0472
23819SOL    HW173611   7.475   9.557   9.135 -1.5354 -0.1596  0.0341
23819SOL    HW273612   7.530   9.570   9.275 -0.6948  0.9789 -0.3881
23820SOL     OW73613   6.419   1.112   8.125  0.3944  0.0698  0.2534
23820SOL    HW173614   6.383   1.131   8.039  0.4401 -0.4702  0.1154
23820SOL    HW273615   6.344   1.118   8.185 -0.3726 -2.9383 -0.2745
23821SOL     OW73616   9.632   0.416   9.488 -0.0894 -0.0851 -0.3286
23821SOL    HW173617   9.698   0.358   9.527  1.1037  1.5476  0.2301
23821SOL    HW273618   9.671   0.504   9.495 -2.3727  0.9699  0.0960
23822SOL     OW73619   6.689   9.042   0.316 -0.0859 -0.2971  0.1315
23822SOL    HW173620   6.758   9.071   0.375  1.7931 -2.8099 -0.6927
23822SOL    HW273621   6.660   9.123   0.272 -0.6000  1.4241  3.3275
23823SOL     OW73622   7.004   3.056   8.676  0.0693 -0.4394  0.6776
23823SOL    HW173623   7.007   3.012   8.761 -1.1300 -0.8718  0.5238
23823SOL    HW273624   6.926   3.019   8.634 -0.2728  0.9489  0.0480
23824SOL     OW73625   6.932   2.583   6.836  0.3866 -0.0664  0.0243
23824SOL    HW173626   7.003   2.634   6.799  0.2916 -0.2711 -0.4440
23824SOL    HW273627   6.860   2.646   6.847 -0.1671 -0.3338 -1.7442
23825SOL     OW73628   4.729   7.987   5.579  0.1749 -0.3951  0.3179
23825SOL    HW173629   4.667   8.011   5.648  1.1661 -1.9425  1.8398
23825SOL    HW273630   4.802   8.047   5.591 -0.2989  0.3512 -0.4198
23826SOL     OW73631   5.405   1.445   3.126  0.0915  0.2000 -0.0694
23826SOL    HW173632   5.399   1.540   3.131  1.8892  0.3404  0.2222
23826SOL    HW273633   5.345   1.413   3.193  1.1308  1.2247  1.4095
23827SOL     OW73634   2.497   2.227   8.683  0.0474  0.3050  0.3859
23827SOL    HW173635   2.462   2.264   8.602 -0.5922 -0.5420  0.2565
23827SOL    HW273636   2.587   2.202   8.661  0.3686  1.4293  0.3771
23828SOL     OW73637   6.240   0.400   3.014 -0.0119 -1.3423 -0.5993
23828SOL    HW173638   6.302   0.466   2.982  1.0974 -1.9883  0.1410
23828SOL    HW273639   6.164   0.409   2.957 -0.1804  1.0355 -0.1120
23829SOL     OW73640   8.539   0.578   6.254 -0.3809  0.4408  0.6555
23829SOL    HW173641   8.510   0.510   6.194 -1.1096  0.0114  1.4704
23829SOL    HW273642   8.476   0.576   6.326  1.6859 -0.6141  2.5743
23830SOL     OW73643   0.252   3.619   7.143 -0.2099 -0.4238  0.6812
23830SOL    HW173644   0.257   3.591   7.234  0.1688 -1.9443  0.2114
23830SOL    HW273645   0.236   3.539   7.094  2.1763 -0.0646 -0.8355
23831SOL     OW73646   1.724   5.121   8.534 -0.2305 -0.0089  0.5353
23831SOL    HW173647   1.646   5.142   8.482 -0.0919  1.0501  0.7409
23831SOL    HW273648   1.695   5.050   8.592 -0.8449 -0.0889  0.1499
23832SOL     OW73649   1.853   2.718   3.408  0.1649 -0.4919  0.2283
23832SOL    HW173650   1.846   2.785   3.340  0.4434  0.0860  0.7634
23832SOL    HW273651   1.937   2.735   3.451  1.3161 -2.5223 -1.0304
23833SOL     OW73652   8.139   3.708   8.627  0.1691 -0.0189  0.1338
23833SOL    HW173653   8.102   3.792   8.655 -0.3386  0.1045 -0.8620
23833SOL    HW273654   8.081   3.642   8.666  1.2155  0.0153  1.8656
23834SOL     OW73655   6.686   2.420   4.366  0.0054  0.1368 -0.2986
23834SOL    HW173656   6.731   2.354   4.313  1.1791 -0.3424  1.2358
23834SOL    HW273657   6.744   2.436   4.440 -0.6284  2.3128 -0.1889
23835SOL     OW73658   1.791   8.418   5.222  0.1001 -0.2662  0.2838
23835SOL    HW173659   1.826   8.400   5.135  1.3631 -0.1844  0.7592
23835SOL    HW273660   1.724   8.350   5.235  0.3450 -0.6660 -0.4857
23836SOL     OW73661   4.733   9.481   4.837 -0.5492  0.0570  0.1711
23836SOL    HW173662   4.825   9.456   4.828 -0.4796  0.2479  0.3390
23836SOL    HW273663   4.700   9.485   4.747 -0.7269 -1.2289  0.1653
23837SOL     OW73664   0.885   1.086   4.057 -0.0719  0.1720 -0.4031
23837SOL    HW173665   0.975   1.055   4.070 -0.6070 -0.9681  0.7943
23837SOL    HW273666   0.876   1.094   3.962  0.8870 -1.0103 -0.6257
23838SOL     OW73667   8.359   8.795   3.273  0.1713 -0.4046 -0.3775
23838SOL    HW173668   8.446   8.829   3.293  0.2159 -0.8819  0.2744
23838SOL    HW273669   8.315   8.790   3.358 -0.9647  1.0802 -0.8275
23839SOL     OW73670   8.949   4.824   3.538 -0.4120  0.3971 -0.6694
23839SOL    HW173671   8.938   4.817   3.443 -1.0309 -0.8142 -0.5356
23839SOL    HW273672   8.932   4.735   3.570  0.4766  0.6356  0.5147
23840SOL     OW73673   7.385   5.617   1.186 -0.3191 -0.3242  0.0442
23840SOL    HW173674   7.348   5.601   1.099  0.2716  1.4494 -0.5818
23840SOL    HW273675   7.320   5.581   1.246 -0.9159 -1.2590 -1.1182
23841SOL     OW73676   9.539   2.740   6.565  0.4392 -0.4131 -0.0883
23841SOL    HW173677   9.601   2.811   6.548 -0.6580  0.7044  0.4316
23841SOL    HW273678   9.574   2.694   6.641  0.1706  0.7935  0.7871
23842SOL     OW73679   4.718   3.470   3.661 -0.0029  0.0925  0.4160
23842SOL    HW173680   4.716   3.375   3.674  0.4479 -0.0539 -0.5054
23842SOL    HW273681   4.651   3.486   3.595  1.1931  0.1730 -0.8044
23843SOL     OW73682   4.613   5.066   4.252 -0.5993  0.1257  0.0255
23843SOL    HW173683   4.698   5.031   4.226 -1.3657 -0.8336 -1.2739
23843SOL    HW273684   4.606   5.045   4.345 -0.1616 -1.3280 -0.2525
23844SOL     OW73685   8.233   4.425   4.201  0.0650  0.3841 -0.5491
23844SOL    HW173686   8.316   4.456   4.238 -1.1383  0.5988  2.2181
23844SOL    HW273687   8.228   4.334   4.229 -1.3068  0.8080  0.6950
23845SOL     OW73688   7.562   4.300   5.785  0.3846  0.1711  0.1628
23845SOL    HW173689   7.513   4.285   5.704  0.0060  1.1256  0.2094
23845SOL    HW273690   7.610   4.382   5.769  1.8039 -0.6183  0.1992
23846SOL     OW73691   8.509   6.036   4.626 -0.4990 -0.8468 -0.7811
23846SOL    HW173692   8.498   6.106   4.691  0.4681 -2.2542  1.0023
23846SOL    HW273693   8.483   6.076   4.543  1.4997  2.1284 -0.1267
23847SOL     OW73694   2.596   5.343   8.596 -0.2045 -0.0229 -0.2869
23847SOL    HW173695   2.563   5.313   8.512 -0.4301 -0.7440  0.0543
23847SOL    HW273696   2.521   5.387   8.637  0.1933  1.2625 -0.8894
23848SOL     OW73697   4.454   0.263   9.415 -0.1574 -0.0689 -0.6044
23848SOL    HW173698   4.431   0.186   9.364 -0.1031  0.1428 -0.9513
23848SOL    HW273699   4.550   0.259   9.422  0.1070  1.1938 -2.6291
23849SOL     OW73700   3.997   6.277   3.009  0.1882 -0.2381 -0.2151
23849SOL    HW173701   3.999   6.189   3.047  3.6457  0.2874  1.1724
23849SOL    HW273702   4.033   6.266   2.921 -1.0109 -0.3839 -0.7162
23850SOL     OW73703   8.729   6.407   3.814  0.4477 -0.0590  0.3519
23850SOL    HW173704   8.813   6.373   3.784 -0.5724 -1.1435 -1.4478
23850SOL    HW273705   8.751   6.464   3.888  2.6072 -1.5855  0.9907
23851SOL     OW73706   0.535   8.490   3.949  0.2392 -0.0295  0.8373
23851SOL    HW173707   0.599   8.496   3.878  0.1607 -2.2322  0.5127
23851SOL    HW273708   0.582   8.521   4.026  1.3943 -0.6166  0.3990
23852SOL     OW73709   3.860   9.279   4.597  0.4840  0.7350  0.7673
23852SOL    HW173710   3.803   9.226   4.653  0.8122 -0.5915 -0.1001
23852SOL    HW273711   3.817   9.364   4.592 -1.7019 -0.3430 -0.1916
23853SOL     OW73712   8.053   1.582   0.688  0.0779  0.2805  0.0264
23853SOL    HW173713   8.079   1.521   0.757 -0.8113  0.1066  0.2255
23853SOL    HW273714   8.060   1.531   0.607 -0.6726 -0.1043  0.1933
23854SOL     OW73715   8.301   8.230   0.672  0.1113 -0.0636 -0.3767
23854SOL    HW173716   8.233   8.297   0.663  0.3293  0.0395 -1.3563
23854SOL    HW273717   8.350   8.234   0.590  2.5994  1.2662  1.0657
23855SOL     OW73718   4.332   8.756   5.468  0.6014  0.0703  0.6010
23855SOL    HW173719   4.390   8.787   5.398  1.3397 -1.2994  0.5722
23855SOL    HW273720   4.348   8.817   5.540  1.6204  0.0943  0.3810
23856SOL     OW73721   0.571   9.228   5.156  0.4978 -0.6403  0.4288
23856SOL    HW173722   0.628   9.299   5.186  2.1013 -0.5075 -2.5884
23856SOL    HW273723   0.482   9.263   5.165  1.1103  0.8169  1.1587
23857SOL     OW73724   4.464   0.305   1.720  0.1318  0.2700 -0.3713
23857SOL    HW173725   4.494   0.274   1.805 -0.5354 -0.3181 -0.3425
23857SOL    HW273726   4.542   0.343   1.679  0.5757  0.0757  0.2806
23858SOL     OW73727   7.918   0.439   9.574 -0.0728  0.0671 -0.2771
23858SOL    HW173728   7.982   0.499   9.613 -0.9387  0.1578  1.0934
23858SOL    HW273729   7.858   0.496   9.526 -0.0152  0.1434 -0.2593
23859SOL     OW73730   2.481   1.879   2.669  0.5066  0.6043 -0.1488
23859SOL    HW173731   2.529   1.953   2.708  0.2820 -0.5029  2.4348
23859SOL    HW273732   2.389   1.898   2.687  0.4179 -0.1077  0.1633
23860SOL     OW73733   3.408   7.205   1.937  0.0649 -0.0379  0.1454
23860SOL    HW173734   3.331   7.244   1.897  0.0119 -0.5567 -0.2676
23860SOL    HW273735   3.411   7.241   2.026  0.0309  0.9108 -0.2337
23861SOL     OW73736   4.309   7.618   6.290 -0.7520 -0.1241  0.6179
23861SOL    HW173737   4.267   7.582   6.368 -1.9142 -0.1240  0.0170
23861SOL    HW273738   4.278   7.562   6.219 -1.2412  1.0343 -0.0978
23862SOL     OW73739   9.334   2.074   7.261  0.2746  0.3397  0.1364
23862SOL    HW173740   9.321   1.986   7.225 -0.2187  0.7595 -0.7259
23862SOL    HW273741   9.392   2.117   7.199 -1.0432  1.2601 -0.4978
23863SOL     OW73742   6.744   3.610   8.545 -0.1911  0.1558  0.4603
23863SOL    HW173743   6.725   3.564   8.463  0.7506  0.6343 -0.0465
23863SOL    HW273744   6.658   3.631   8.581 -0.7625  2.5943 -1.9475
23864SOL     OW73745   7.479   6.306   5.039 -0.3628  0.4938 -0.3002
23864SOL    HW173746   7.508   6.224   5.000 -0.3391  0.1854  0.3538
23864SOL    HW273747   7.426   6.280   5.114 -0.3825  1.0744 -0.1060
23865SOL     OW73748   4.655   4.966   7.210 -0.3751  0.0838  0.2255
23865SOL    HW173749   4.613   4.898   7.263 -1.3050  2.1240  2.2484
23865SOL    HW273750   4.716   5.009   7.270 -0.3044  1.4698 -0.7943
23866SOL     OW73751   6.212   6.800   2.439 -0.0184 -0.1700  0.7853
23866SOL    HW173752   6.184   6.786   2.530 -1.7755  0.3416  0.3613
23866SOL    HW273753   6.135   6.777   2.387  0.3643  1.2712 -0.4738
23867SOL     OW73754   0.786   1.440   9.302 -0.4443 -0.3138  0.1486
23867SOL    HW173755   0.875   1.416   9.326  0.0288  0.5984 -0.6210
23867SOL    HW273756   0.730   1.390   9.362  0.4621 -2.8596 -0.9885
23868SOL     OW73757   4.857   5.195   0.825  0.1004  0.0775  0.5522
23868SOL    HW173758   4.799   5.122   0.806  0.9355 -0.5946  0.5573
23868SOL    HW273759   4.914   5.201   0.749  0.7278  0.0532  1.0144
23869SOL     OW73760   4.064   4.756   3.802  0.3644 -0.4074  0.3637
23869SOL    HW173761   4.119   4.680   3.823  0.8526 -0.3779 -0.7322
23869SOL    HW273762   3.976   4.719   3.793  0.7019 -0.9911 -0.8190
23870SOL     OW73763   8.734   2.028   5.821  0.3871  0.1646  0.0400
23870SOL    HW173764   8.683   2.064   5.749  0.9736 -0.3374 -0.6384
23870SOL    HW273765   8.795   1.967   5.780  0.6976 -0.1732  0.9650
23871SOL     OW73766   7.261   7.585   7.026 -0.1792  0.3171  0.4461
23871SOL    HW173767   7.221   7.613   6.943  1.2689  2.3054  0.3556
23871SOL    HW273768   7.267   7.664   7.078 -1.6728 -1.0051  2.8164
23872SOL     OW73769   6.079   6.481   2.294 -0.3104 -0.1324  0.1175
23872SOL    HW173770   6.025   6.403   2.280  2.1719 -1.7777 -0.9530
23872SOL    HW273771   6.101   6.478   2.387 -0.8600 -0.2849  0.2443
23873SOL     OW73772   2.705   3.084   3.311  0.0207  0.4326 -0.1422
23873SOL    HW173773   2.717   2.992   3.334 -1.0994 -0.2738 -2.0952
23873SOL    HW273774   2.720   3.132   3.392  1.1801 -1.4214  0.7970
23874SOL     OW73775   9.065   4.007   6.993  0.1709 -0.0933 -0.0505
23874SOL    HW173776   9.010   3.955   6.935 -0.2638 -0.6362  0.8217
23874SOL    HW273777   9.003   4.059   7.045  0.6128  2.1896 -1.6589
23875SOL     OW73778   6.976   4.217   4.732 -0.5739  0.2557  0.7917
23875SOL    HW173779   6.989   4.128   4.763 -2.7701 -0.2294  0.4414
23875SOL    HW273780   7.021   4.272   4.796  0.9644 -1.0849  0.9036
23876SOL     OW73781   7.080   7.771   7.793 -0.1966 -0.4018 -0.5371
23876SOL    HW173782   7.068   7.737   7.704 -0.5280 -2.1433  0.1273
23876SOL    HW273783   7.114   7.696   7.842  0.3951  0.6561  0.7150
23877SOL     OW73784   5.526   4.510   9.284 -0.6776  0.8168  0.5170
23877SOL    HW173785   5.549   4.560   9.206 -3.1212  0.4133 -0.5431
23877SOL    HW273786   5.523   4.419   9.254  1.7504  0.1514  1.9560
23878SOL     OW73787   3.482   7.250   7.441 -0.2251  0.3636  0.3974
23878SOL    HW173788   3.528   7.328   7.410 -1.3468  0.7836 -0.2810
23878SOL    HW273789   3.530   7.177   7.401  1.1045  0.6536  1.3999
23879SOL     OW73790   3.759   6.511   0.579 -0.1864 -0.6155 -0.4365
23879SOL    HW173791   3.854   6.509   0.562 -0.2966 -1.8217 -1.0461
23879SOL    HW273792   3.736   6.604   0.577  1.4135 -0.0305  2.3417
23880SOL     OW73793   0.197   6.981   5.147  0.2859 -0.0248  0.2100
23880SOL    HW173794   0.212   7.024   5.063 -0.4460  2.7496  1.3747
23880SOL    HW273795   0.285   6.965   5.182  0.6444  1.6477  0.1840
23881SOL     OW73796   9.286   2.402   6.967 -0.5015  0.0509  0.4808
23881SOL    HW173797   9.374   2.395   7.003 -0.3558 -0.0533  0.1106
23881SOL    HW273798   9.251   2.313   6.971 -0.5494  0.0720  0.5286
23882SOL     OW73799   6.815   8.766   5.737  0.4385 -0.8442  0.1664
23882SOL    HW173800   6.792   8.855   5.711  1.7963 -0.9684 -1.5936
23882SOL    HW273801   6.734   8.716   5.727 -0.0485 -0.0536  0.0798
23883SOL     OW73802   7.305   8.849   7.845  0.0425 -0.1803  0.3286
23883SOL    HW173803   7.211   8.839   7.859  0.2465  0.8730  3.1923
23883SOL    HW273804   7.323   8.941   7.867  1.9890 -0.8836  1.9889
23884SOL     OW73805   1.340   0.854   3.053 -0.4497 -0.2014  0.3517
23884SOL    HW173806   1.273   0.817   2.996  0.2345 -1.3658  0.2618
23884SOL    HW273807   1.314   0.826   3.141 -1.3696  1.3849  0.6171
23885SOL     OW73808   2.049   0.347   5.226  0.4860 -0.0695  0.2289
23885SOL    HW173809   1.954   0.335   5.221 -0.0348  3.0360  0.4394
23885SOL    HW273810   2.070   0.335   5.319  0.3910 -1.1699  0.1170
23886SOL     OW73811   2.296   5.805   0.082  0.3066  0.3464  0.1721
23886SOL    HW173812   2.361   5.866   0.047 -1.6669  2.5465  0.0565
23886SOL    HW273813   2.339   5.763   0.156  1.9379  1.4756 -0.0860
23887SOL     OW73814   5.628   4.657   0.444 -0.0636  0.0920  0.6997
23887SOL    HW173815   5.578   4.675   0.524 -0.1145  0.9673  0.4811
23887SOL    HW273816   5.561   4.643   0.377 -0.0497 -2.0913  1.0831
23888SOL     OW73817   5.715   0.956   6.183  0.2725 -0.0466  0.2737
23888SOL    HW173818   5.698   1.013   6.258  0.5659 -1.3046  1.3344
23888SOL    HW273819   5.717   0.867   6.220 -0.0252 -0.7466 -1.2974
23889SOL     OW73820   6.919   2.960   3.332  0.1294 -0.0046 -0.2249
23889SOL    HW173821   7.013   2.943   3.329 -0.0499 -0.9671 -0.6788
23889SOL    HW273822   6.886   2.902   3.401  0.1539  1.8536  1.4291
23890SOL     OW73823   6.495   9.527   0.615 -0.3911  0.1149 -0.1324
23890SOL    HW173824   6.426   9.572   0.663 -0.1313  0.5914 -0.1889
23890SOL    HW273825   6.534   9.596   0.561 -0.5530 -0.3664 -0.8778
23891SOL     OW73826   2.489   9.518   7.557  0.0632 -1.0373 -0.4240
23891SOL    HW173827   2.452   9.606   7.566 -0.5809 -1.2344 -1.0721
23891SOL    HW273828   2.570   9.520   7.608  1.2424  0.5983 -2.2453
23892SOL     OW73829   1.163   6.243   6.479 -0.5070  0.0468 -0.2291
23892SOL    HW173830   1.120   6.291   6.409 -1.0238  1.6720  1.1604
23892SOL    HW273831   1.246   6.289   6.493 -0.0194 -0.7761 -0.3155
23893SOL     OW73832   8.991   7.130   2.873 -0.0660 -0.2171 -0.1450
23893SOL    HW173833   8.897   7.143   2.874 -0.0645 -0.2081 -0.0804
23893SOL    HW273834   9.027   7.215   2.846 -0.0871 -0.2922 -0.4074
23894SOL     OW73835   2.110   1.741   9.239 -0.4379 -0.1708  0.0810
23894SOL    HW173836   2.015   1.734   9.228 -0.4208  0.0094 -0.1817
23894SOL    HW273837   2.121   1.806   9.309 -0.4535  1.8663 -1.7186
23895SOL     OW73838   3.334   3.038   2.657  0.7795  0.0759  0.3739
23895SOL    HW173839   3.307   3.036   2.565 -0.4775  0.8049  0.6910
23895SOL    HW273840   3.397   3.110   2.661 -1.6272  2.3116  0.6295
23896SOL     OW73841   5.340   7.795   1.695  0.3068 -0.1743  0.0454
23896SOL    HW173842   5.337   7.751   1.610  0.2154 -2.4037  1.1435
23896SOL    HW273843   5.277   7.866   1.687  0.9980  0.2726 -2.0471
23897SOL     OW73844   1.598   7.147   6.774  0.0310  0.4925 -0.8400
23897SOL    HW173845   1.656   7.075   6.799  0.2534  1.0180  0.2157
23897SOL    HW273846   1.657   7.219   6.754 -0.1908  1.9105  2.9100
23898SOL     OW73847   8.636   6.180   8.423  0.2921 -0.2712 -0.0346
23898SOL    HW173848   8.671   6.125   8.353 -0.1841  1.2205 -1.5101
23898SOL    HW273849   8.597   6.254   8.377  0.0407  0.8002  1.8438
23899SOL     OW73850   7.317   6.437   2.716  0.2983 -0.1994  1.1659
23899SOL    HW173851   7.268   6.386   2.782 -1.3754 -1.3539 -0.8486
23899SOL    HW273852   7.388   6.379   2.689 -0.0702 -0.4524  0.7209
23900SOL     OW73853   3.072   7.496   0.555  0.0032 -0.3556  0.2085
23900SOL    HW173854   3.055   7.420   0.612 -0.5968 -0.6274 -0.3188
23900SOL    HW273855   3.160   7.481   0.521  0.1261 -0.5044  0.5814
23901SOL     OW73856   0.141   5.359   8.111 -0.0947  0.3659 -0.1621
23901SOL    HW173857   0.225   5.405   8.113 -0.2328  0.6151 -0.0203
23901SOL    HW273858   0.163   5.268   8.130  0.3623  0.0880 -1.8493
23902SOL     OW73859   4.171   2.775   7.656  0.7431  0.2601  0.4473
23902SOL    HW173860   4.213   2.819   7.730 -0.6579  0.3786  1.2050
23902SOL    HW273861   4.128   2.699   7.695  1.2626 -0.5357 -0.5022
23903SOL     OW73862   6.405   8.452   1.721 -0.2173  0.0054 -0.0789
23903SOL    HW173863   6.475   8.421   1.663  2.1340  2.1665  1.3792
23903SOL    HW273864   6.375   8.533   1.679  0.5143  0.8238  0.9263
23904SOL     OW73865   7.820   0.002   3.339 -0.1389 -0.2042 -0.3794
23904SOL    HW173866   7.864  -0.059   3.280 -0.1030  1.2803 -1.9550
23904SOL    HW273867   7.776   0.064   3.281  2.6837  3.3804  0.9456
23905SOL     OW73868   4.950   2.566   7.318 -0.2110  0.0670 -0.1966
23905SOL    HW173869   4.993   2.638   7.273 -1.3674 -0.5580 -2.4320
23905SOL    HW273870   4.858   2.594   7.327 -0.1995 -0.2104  0.9908
23906SOL     OW73871   0.003   2.145   6.223  0.2150  0.5994 -0.0653
23906SOL    HW173872  -0.030   2.145   6.133  0.6026 -1.0617 -0.2375
23906SOL    HW273873   0.089   2.186   6.217 -0.1489  1.3636 -0.2686
23907SOL     OW73874   4.899   0.347   6.402  0.0892 -0.5416  0.2321
23907SOL    HW173875   4.843   0.383   6.334  0.7481 -0.3870 -0.2377
23907SOL    HW273876   4.896   0.412   6.472 -0.1931 -0.4589  0.1427
23908SOL     OW73877   1.444   8.628   7.259 -0.3924  0.0361 -0.3492
23908SOL    HW173878   1.399   8.595   7.181  0.0862  1.0919 -1.0955
23908SOL    HW273879   1.438   8.723   7.252 -0.3796  0.1498  0.9347
23909SOL     OW73880   3.659   4.571   7.401  0.1292  0.3334  0.6229
23909SOL    HW173881   3.730   4.615   7.447  0.5214 -0.7142  1.0637
23909SOL    HW273882   3.627   4.506   7.464 -0.3906 -0.0356 -0.0157
23910SOL     OW73883   4.195   6.862   7.271 -0.3188  0.0541 -0.2750
23910SOL    HW173884   4.207   6.908   7.354  0.0730  1.2232 -0.9590
23910SOL    HW273885   4.201   6.769   7.294  1.2194  0.3847  0.8055
23911SOL     OW73886   0.203   4.024   6.770 -0.1870 -0.7126 -0.1169
23911SOL    HW173887   0.181   3.953   6.831 -0.9955  0.6472  1.2322
23911SOL    HW273888   0.296   4.041   6.785 -0.3316 -0.5238  0.6064
23912SOL     OW73889   0.575   5.691   6.009  0.2591  0.7948  0.1961
23912SOL    HW173890   0.499   5.641   5.979  0.0914  0.9713  0.3272
23912SOL    HW273891   0.556   5.710   6.101  0.5214  0.7256  0.2632
23913SOL     OW73892   6.553   2.780   5.916  0.2906  0.7308  0.1643
23913SOL    HW173893   6.618   2.730   5.965  0.1887 -1.8725 -2.0879
23913SOL    HW273894   6.604   2.833   5.855  0.3902 -0.3301 -0.7101
23914SOL     OW73895   3.317   4.743   9.490  0.4553  0.7183  0.0627
23914SOL    HW173896   3.253   4.672   9.493  0.8977  0.3168  0.1335
23914SOL    HW273897   3.402   4.699   9.483  0.7492  1.2321  0.2974
23915SOL     OW73898   9.586   2.615   5.395  0.5748  0.2920  0.2882
23915SOL    HW173899   9.537   2.671   5.335  1.0905  0.6306  0.1737
23915SOL    HW273900   9.678   2.640   5.382  0.9571 -1.4961 -0.7205
23916SOL     OW73901   8.640   8.092   7.097 -0.3558 -0.2753 -0.1298
23916SOL    HW173902   8.734   8.073   7.093 -0.1219  0.9357 -1.9395
23916SOL    HW273903   8.636   8.182   7.131 -1.1199 -1.4439  3.2336
23917SOL     OW73904   0.013   7.001   7.261 -0.7248  0.0310  0.4235
23917SOL    HW173905  -0.013   6.942   7.332 -1.4983  0.0744  0.1839
23917SOL    HW273906   0.083   6.954   7.215  0.5158  0.4444  1.8267
23918SOL     OW73907   0.344   2.341   1.470  0.0547  0.3753  0.3579
23918SOL    HW173908   0.348   2.395   1.391 -0.6789  0.0627  0.1012
23918SOL    HW273909   0.351   2.251   1.438 -1.5851  0.1603  0.4937
23919SOL     OW73910   3.482   8.078   4.537  0.2067  0.1852  0.4693
23919SOL    HW173911   3.443   8.051   4.454  0.7214 -0.9978  0.5970
23919SOL    HW273912   3.575   8.089   4.518  0.4864 -0.9549  1.0563
23920SOL     OW73913   1.864   0.715   5.429  0.0581  0.2865 -0.0386
23920SOL    HW173914   1.869   0.804   5.466  0.8214  0.4357 -0.4780
23920SOL    HW273915   1.902   0.659   5.497 -0.4015  0.2878  0.2288
23921SOL     OW73916   0.863   2.440   5.990 -0.4359 -0.2962 -0.1496
23921SOL    HW173917   0.867   2.346   5.975 -2.7767 -0.2787 -1.3647
23921SOL    HW273918   0.818   2.448   6.074  1.7168 -0.2275  1.0635
23922SOL     OW73919   1.627   5.559   8.022 -0.7182  0.2075  0.4374
23922SOL    HW173920   1.646   5.554   8.116 -1.5585  2.1114  0.7462
23922SOL    HW273921   1.698   5.611   7.986 -0.1053 -0.9652 -0.1120
23923SOL     OW73922   3.867   0.796   6.171  0.1006  0.0836 -0.0450
23923SOL    HW173923   3.892   0.881   6.208 -2.2998  0.6366  0.4806
23923SOL    HW273924   3.849   0.815   6.079 -0.2542  0.1111  0.0294
23924SOL     OW73925   1.353   3.347   8.597  0.3863  0.2498  0.0839
23924SOL    HW173926   1.339   3.395   8.516  1.0800  0.5504  0.1409
23924SOL    HW273927   1.337   3.411   8.666 -0.6055 -0.1079  0.2049
23925SOL     OW73928   7.585   8.977   5.070 -0.6041 -0.3338  0.3819
23925SOL    HW173929   7.498   9.016   5.078 -0.0997  1.1938 -0.9699
23925SOL    HW273930   7.597   8.965   4.976  1.0717  0.5908  0.4297
23926SOL     OW73931   6.039   1.004   4.461 -0.4066 -0.4128 -0.0618
23926SOL    HW173932   6.072   1.092   4.476 -0.4400 -0.1412 -1.4544
23926SOL    HW273933   5.984   0.985   4.537 -0.8931  1.0102 -0.0457
23927SOL     OW73934   2.665   5.409   8.002  0.3770 -0.8960 -0.3912
23927SOL    HW173935   2.575   5.388   8.028  0.6657 -0.4233  1.1033
23927SOL    HW273936   2.719   5.376   8.075  1.2984 -0.0185 -0.6542
23928SOL     OW73937   4.821   6.610   4.196 -0.5261 -0.2940  0.0204
23928SOL    HW173938   4.852   6.697   4.172 -0.1142 -0.2167  0.8123
23928SOL    HW273939   4.736   6.626   4.237 -0.0015 -0.1471  1.0929
23929SOL     OW73940   2.274   9.000   6.408 -0.5753  0.0706 -0.0079
23929SOL    HW173941   2.209   8.975   6.473  0.0915  0.0548  0.6682
23929SOL    HW273942   2.357   8.997   6.455 -0.2464  1.5183 -0.4656
23930SOL     OW73943   8.214   6.531   7.064 -0.2619 -0.0798  0.2767
23930SOL    HW173944   8.211   6.619   7.027 -0.0334 -0.2264 -0.0957
23930SOL    HW273945   8.274   6.539   7.139  0.1466 -0.0257 -0.0512
23931SOL     OW73946   3.276   5.065   2.410  0.2785 -0.0032  0.3430
23931SOL    HW173947   3.310   4.976   2.400  0.4920 -0.0523  1.4219
23931SOL    HW273948   3.255   5.073   2.503 -1.4077  0.4920 -0.0537
23932SOL     OW73949   5.616   0.153   0.710 -0.4875  0.4139 -0.5683
23932SOL    HW173950   5.616   0.160   0.805 -1.3253 -0.8803 -0.4553
23932SOL    HW273951   5.658   0.234   0.680 -1.3259  1.4050  0.8485
23933SOL     OW73952   1.232   8.298   4.366 -0.6736  0.7832  0.5683
23933SOL    HW173953   1.264   8.336   4.285 -0.5591 -0.0068  0.2389
23933SOL    HW273954   1.283   8.342   4.435 -1.3663  2.0706  0.2952
23934SOL     OW73955   1.660   4.585   0.433  0.1381  0.4425 -0.5974
23934SOL    HW173956   1.653   4.536   0.351 -1.3385 -1.9823  0.8446
23934SOL    HW273957   1.725   4.537   0.485 -0.0558  1.0371  0.2201
23935SOL     OW73958   9.216   6.889   2.514  0.3476  0.1194  0.1904
23935SOL    HW173959   9.227   6.980   2.539  1.7384  0.5604 -1.7953
23935SOL    HW273960   9.122   6.874   2.517  0.2497  0.9437  2.6479
23936SOL     OW73961   4.751   7.669   5.097 -0.9987  0.1976  0.1941
23936SOL    HW173962   4.775   7.760   5.116 -0.0820 -0.0463  0.2418
23936SOL    HW273963   4.830   7.631   5.059 -0.8011 -1.0497  1.7606
23937SOL     OW73964   8.948   3.480   3.151 -0.5620 -0.3703 -0.6140
23937SOL    HW173965   8.909   3.394   3.135 -1.6879 -0.0318  0.2086
23937SOL    HW273966   8.873   3.540   3.157  0.0714  0.3024  0.9678
23938SOL     OW73967   1.703   2.296   0.487  0.4376  0.9077  0.1637
23938SOL    HW173968   1.697   2.321   0.394  1.3604 -1.3842 -0.5730
23938SOL    HW273969   1.615   2.311   0.521 -0.6359 -0.5883 -1.7533
23939SOL     OW73970   3.141   3.118   2.205  0.5087 -0.2677  0.4034
23939SOL    HW173971   3.069   3.059   2.227 -0.2259  0.0717 -0.9532
23939SOL    HW273972   3.170   3.090   2.119  0.6027  0.9062  0.0278
23940SOL     OW73973   4.091   0.573   6.418 -0.1772 -0.5855  0.5136
23940SOL    HW173974   4.184   0.587   6.399 -0.4257  0.4046 -0.0410
23940SOL    HW273975   4.069   0.492   6.373  0.0598 -0.0036 -0.7053
23941SOL     OW73976   7.683   3.749   9.308  0.2115 -0.5275  0.6091
23941SOL    HW173977   7.611   3.809   9.288 -0.4221 -1.4755 -0.0671
23941SOL    HW273978   7.641   3.673   9.348  1.0664 -0.2901  2.0214
23942SOL     OW73979   2.274   8.822   8.663  0.6720  0.3982 -0.8206
23942SOL    HW173980   2.351   8.831   8.607  1.4650  0.6010  0.2524
23942SOL    HW273981   2.294   8.877   8.739  0.2539 -0.9404  0.2926
23943SOL     OW73982   4.354   2.954   8.182  0.2207 -0.2157  0.2356
23943SOL    HW173983   4.323   2.874   8.224  1.8721 -0.5949  0.8167
23943SOL    HW273984   4.274   3.003   8.162 -0.7669 -1.4823  0.9091
23944SOL     OW73985   0.118   3.646   5.559  0.3931 -0.0114  0.2737
23944SOL    HW173986   0.208   3.665   5.587  0.1711  1.0063  0.3228
23944SOL    HW273987   0.102   3.556   5.589  1.0173  0.1837  1.2246
23945SOL     OW73988   1.297   3.299   7.197  0.3172 -0.1162  0.0686
23945SOL    HW173989   1.377   3.293   7.145 -0.4437 -0.1314 -1.1396
23945SOL    HW273990   1.256   3.380   7.167 -0.8641 -0.8870 -0.4261
23946SOL     OW73991   9.401   2.726   4.263 -0.1855  0.9608  1.1286
23946SOL    HW173992   9.352   2.665   4.207  0.1758  1.3727  0.3525
23946SOL    HW273993   9.342   2.801   4.273  0.1365  1.3073  0.4814
23947SOL     OW73994   7.077   0.159   2.232 -0.0756 -0.4628 -0.1869
23947SOL    HW173995   7.024   0.185   2.307 -0.0588 -2.1177  0.4433
23947SOL    HW273996   7.030   0.195   2.156 -0.3099  0.8841  0.5609
23948SOL     OW73997   9.591   4.659   3.909 -0.0541  0.3186  0.5029
23948SOL    HW173998   9.514   4.661   3.852  0.1158 -0.7178  0.2063
23948SOL    HW273999   9.580   4.580   3.962 -1.1425  2.1928  3.2910
23949SOL     OW74000   4.028   3.183   4.035  0.1489  0.7362 -0.4980
23949SOL    HW174001   4.058   3.230   4.113  0.7159 -0.6462  0.1585
23949SOL    HW274002   3.937   3.158   4.056  0.6471 -0.5808  0.2207
23950SOL     OW74003   4.702   8.068   7.935  1.2352 -0.3058  0.6947
23950SOL    HW174004   4.674   7.977   7.926  1.3109 -0.1468 -1.4565
23950SOL    HW274005   4.771   8.079   7.870 -0.1856  1.8170 -0.5815
23951SOL     OW74006   2.524   8.301   3.505  0.4882 -0.1039 -0.1709
23951SOL    HW174007   2.482   8.328   3.423 -2.9459 -1.3235  0.9868
23951SOL    HW274008   2.569   8.380   3.536 -1.1492  1.4486 -1.5206
23952SOL     OW74009   2.972   1.723   7.985 -0.3558  0.4280 -0.5177
23952SOL    HW174010   2.988   1.641   8.032  1.6353  1.1662  0.1808
23952SOL    HW274011   3.029   1.719   7.909 -2.4512 -0.0823 -2.1382
23953SOL     OW74012   1.716   6.011   1.300  0.2318  0.3860  0.3186
23953SOL    HW174013   1.788   6.050   1.349  0.9354  0.2076 -0.5345
23953SOL    HW274014   1.677   6.084   1.251  0.2710  0.3622  0.2519
23954SOL     OW74015   6.935   0.044   0.050 -0.6985  0.1621 -0.5498
23954SOL    HW174016   7.000  -0.025   0.036  1.5743  2.0225  0.1639
23954SOL    HW274017   6.897   0.059  -0.036  0.8803 -0.0200 -1.3295
23955SOL     OW74018   6.961   4.568   5.393  0.9334 -0.6634 -0.0484
23955SOL    HW174019   6.969   4.479   5.426 -0.9249 -0.7963  0.1328
23955SOL    HW274020   6.867   4.584   5.386  1.2165  1.1424 -0.4838
23956SOL     OW74021   7.543   0.487   0.078  0.0038 -0.4795 -0.2314
23956SOL    HW174022   7.619   0.455   0.127  0.5369 -0.7512 -1.2189
23956SOL    HW274023   7.475   0.421   0.091 -0.1520 -0.1349  0.8252
23957SOL     OW74024   5.832   4.401   2.217  0.4919 -0.4580  0.4218
23957SOL    HW174025   5.917   4.412   2.174  0.1232  0.3541 -0.1213
23957SOL    HW274026   5.816   4.484   2.261 -1.7923  1.0014 -2.7230
23958SOL     OW74027   8.607   4.367   0.879 -0.1776 -0.2684 -0.0739
23958SOL    HW174028   8.690   4.321   0.894 -0.5305 -0.7084  0.6361
23958SOL    HW274029   8.595   4.365   0.784  0.2733 -0.8424 -0.1277
23959SOL     OW74030   4.744   1.251   2.006 -0.0193 -0.3982 -0.0536
23959SOL    HW174031   4.696   1.314   2.060 -0.5736 -0.8038 -0.0567
23959SOL    HW274032   4.681   1.225   1.938  0.9180  0.6807 -1.3653
23960SOL     OW74033   6.680   8.222   8.166 -0.2219 -0.5792  0.1032
23960SOL    HW174034   6.649   8.178   8.244 -0.8926  0.0928  0.2311
23960SOL    HW274035   6.745   8.285   8.197  0.2224 -0.9889  0.0045
23961SOL     OW74036   0.204   3.125   6.063  0.0925 -0.0526 -0.2057
23961SOL    HW174037   0.208   3.048   6.121  1.7551 -0.6442 -1.0523
23961SOL    HW274038   0.153   3.095   5.988  1.2606 -0.5535 -0.8184
23962SOL     OW74039   4.279   1.727   4.938 -0.3164  0.1633 -0.5751
23962SOL    HW174040   4.285   1.798   5.002 -1.1751 -0.5675  0.3216
23962SOL    HW274041   4.368   1.692   4.933 -0.7270 -1.6074  2.3543
23963SOL     OW74042   6.558   3.181   7.500 -0.1948  0.4216 -0.1432
23963SOL    HW174043   6.641   3.159   7.459 -0.6748 -0.0041 -0.9155
23963SOL    HW274044   6.574   3.263   7.547  0.2308  1.2242 -1.6338
23964SOL     OW74045   6.991   9.558   8.176  0.5696  0.0936 -0.7280
23964SOL    HW174046   7.001   9.645   8.138 -2.3925  0.5199 -0.7448
23964SOL    HW274047   6.939   9.573   8.256  2.4708 -1.3614  0.8772
23965SOL     OW74048   3.321   8.598   1.217  0.2053  0.2309 -0.1090
23965SOL    HW174049   3.295   8.538   1.147  1.4459 -0.0067 -0.3806
23965SOL    HW274050   3.310   8.686   1.179  0.6475  0.1076 -0.5306
23966SOL     OW74051   9.333   1.442   3.875  0.1910  0.6754 -0.1152
23966SOL    HW174052   9.273   1.368   3.868  0.0866  0.6818  0.6556
23966SOL    HW274053   9.342   1.474   3.785  0.2470 -0.2722 -0.4642
23967SOL     OW74054   4.380   1.531   4.608 -0.0049 -0.7698  0.2268
23967SOL    HW174055   4.427   1.606   4.645 -1.3095 -0.9789  2.5267
23967SOL    HW274056   4.314   1.569   4.551  0.7998 -0.3056 -0.4090
23968SOL     OW74057   8.131   7.234   8.118 -0.3236  0.0589 -0.4091
23968SOL    HW174058   8.061   7.273   8.066 -1.4374 -0.3417  0.7510
23968SOL    HW274059   8.183   7.309   8.148  1.0205  0.2481 -2.9529
23969SOL     OW74060   8.586   1.484   5.333 -0.5774 -0.4524 -0.0143
23969SOL    HW174061   8.536   1.441   5.402  0.7406 -1.7956  0.1532
23969SOL    HW274062   8.625   1.560   5.376 -2.2180  0.4669 -0.0855
23970SOL     OW74063   5.946   3.110   5.467 -0.2128 -0.0765 -0.3926
23970SOL    HW174064   6.029   3.069   5.443 -0.8190  0.1015 -3.0695
23970SOL    HW274065   5.931   3.082   5.558  3.9581  1.9852  1.1764
23971SOL     OW74066   1.423   4.603   1.695 -0.7271 -0.0863  0.0828
23971SOL    HW174067   1.344   4.579   1.647 -0.8881 -0.9812  0.7647
23971SOL    HW274068   1.440   4.528   1.752  0.9523 -0.1669 -0.4793
23972SOL     OW74069   3.957   5.480   3.472 -0.1184  0.4419 -0.3296
23972SOL    HW174070   3.970   5.471   3.378 -0.4960  1.5475 -0.5001
23972SOL    HW274071   3.991   5.398   3.509  2.8677  1.2003 -1.1257
23973SOL     OW74072   5.784   8.467   8.982  0.3814  0.1618 -0.2909
23973SOL    HW174073   5.745   8.498   8.901 -2.1402 -2.7267 -0.3862
23973SOL    HW274074   5.823   8.382   8.959  0.1301 -0.4500  1.3468
23974SOL     OW74075   5.792   2.942   4.207  0.1783 -0.5603 -0.6711
23974SOL    HW174076   5.864   2.936   4.269 -0.5316 -1.1907  0.1288
23974SOL    HW274077   5.786   2.855   4.168 -0.5428 -0.7187 -0.2442
23975SOL     OW74078   3.470   3.732   6.535 -0.6285 -0.1043  0.4543
23975SOL    HW174079   3.421   3.674   6.593  0.3832 -1.5442 -0.0979
23975SOL    HW274080   3.562   3.716   6.556 -0.3193  1.8050  0.7458
23976SOL     OW74081   2.237   9.463   3.492 -0.1813  0.1098  0.4520
23976SOL    HW174082   2.196   9.404   3.556 -0.2910  1.1470  1.3546
23976SOL    HW274083   2.163   9.503   3.446 -0.1078 -1.3857 -1.0858
23977SOL     OW74084   4.060   1.836   0.971  0.1232  0.2233 -0.5577
23977SOL    HW174085   3.968   1.861   0.977  0.1142  0.1883 -0.5495
23977SOL    HW274086   4.083   1.811   1.060  0.2626  0.6631 -0.4660
23978SOL     OW74087   9.168   2.288   5.171 -0.0185 -0.3599 -0.1843
23978SOL    HW174088   9.264   2.291   5.171 -0.0344  1.6480  0.3231
23978SOL    HW274089   9.144   2.268   5.081  0.9006  2.8282 -1.2794
23979SOL     OW74090   2.485   2.100   3.281  0.3773 -0.1293 -0.0119
23979SOL    HW174091   2.402   2.145   3.293 -0.0052 -1.1448  1.5023
23979SOL    HW274092   2.468   2.035   3.213  0.0628 -0.0408 -0.0153
23980SOL     OW74093   8.210   9.384   6.134 -0.1086  0.1602  0.5208
23980SOL    HW174094   8.250   9.300   6.112 -0.3970 -0.2320  1.4377
23980SOL    HW274095   8.164   9.410   6.055  1.9939  0.6838 -0.5988
23981SOL     OW74096   0.669   7.603   4.265  0.1110 -0.4689  0.3312
23981SOL    HW174097   0.731   7.583   4.195  0.0371  1.0225 -0.1992
23981SOL    HW274098   0.724   7.625   4.340  0.2238  0.0852  0.0896
23982SOL     OW74099   4.508   8.459   1.268  0.6087 -0.0382 -0.0870
23982SOL    HW174100   4.528   8.548   1.297  0.7953  0.0821 -0.5687
23982SOL    HW274101   4.587   8.409   1.288  0.6449 -0.0100 -0.1572
23983SOL     OW74102   7.033   3.738   7.084  0.0449  0.7051  0.1098
23983SOL    HW174103   7.024   3.718   7.177 -1.1295 -0.1983 -0.1673
23983SOL    HW274104   7.023   3.833   7.078  0.7764  0.8466  0.9650
23984SOL     OW74105   2.168   0.976   3.383  0.0183 -0.0464 -0.2042
23984SOL    HW174106   2.252   1.015   3.356  0.3301  0.2804  1.1647
23984SOL    HW274107   2.130   0.943   3.302  1.9847 -1.2172 -0.7131
23985SOL     OW74108   5.730   6.359   5.376  0.1812 -0.4961  0.2222
23985SOL    HW174109   5.637   6.347   5.394 -0.0112 -2.0913 -1.5074
23985SOL    HW274110   5.740   6.453   5.359 -1.1659 -0.3462  0.1671
23986SOL     OW74111   8.548   7.774   8.707 -0.0491 -0.2667 -0.3031
23986SOL    HW174112   8.496   7.842   8.664  0.0175  0.3491  0.5399
23986SOL    HW274113   8.636   7.785   8.671 -0.1511 -0.2395 -0.5461
23987SOL     OW74114   0.594   4.574   8.507 -0.3041  0.2502  0.2151
23987SOL    HW174115   0.578   4.498   8.451 -0.9382 -1.1409  2.1911
23987SOL    HW274116   0.684   4.601   8.484  0.0313 -1.2360 -0.3595
23988SOL     OW74117   7.896   9.170   4.613  0.4513 -0.0853 -0.0978
23988SOL    HW174118   7.919   9.105   4.679 -0.5400 -0.0807  0.2739
23988SOL    HW274119   7.800   9.169   4.611  0.4369  1.0465 -0.4081
23989SOL     OW74120   4.696   5.882   4.311  0.2914 -0.0705 -0.0163
23989SOL    HW174121   4.738   5.880   4.397  0.4650 -0.8174 -0.1124
23989SOL    HW274122   4.737   5.810   4.262  1.5597  1.5255 -1.3849
23990SOL     OW74123   0.724   0.581   0.347 -0.3853  0.1643  0.2333
23990SOL    HW174124   0.766   0.656   0.389 -0.1457  0.2911 -0.2306
23990SOL    HW274125   0.747   0.589   0.255  0.1055 -0.7829  0.2646
23991SOL     OW74126   1.668   4.067   8.959 -0.5985 -0.2238 -0.1941
23991SOL    HW174127   1.695   4.156   8.983 -2.6236  0.3235  0.2040
23991SOL    HW274128   1.590   4.050   9.012 -0.5556 -2.0541 -0.6439
23992SOL     OW74129   2.913   0.027   1.134 -0.5161  0.4397  0.0469
23992SOL    HW174130   3.004   0.031   1.164 -0.6279 -0.0209  0.4602
23992SOL    HW274131   2.861   0.038   1.214 -0.8703  2.9452 -0.4253
23993SOL     OW74132   5.386   0.539   8.092  0.2831 -0.3259  0.0134
23993SOL    HW174133   5.426   0.457   8.064 -0.4881 -0.5262 -0.5272
23993SOL    HW274134   5.294   0.531   8.067  0.2690  0.8333 -0.3583
23994SOL     OW74135   6.918   8.292   0.898 -0.7471  0.6893 -0.3275
23994SOL    HW174136   6.981   8.236   0.944  0.0323  0.5843 -1.4754
23994SOL    HW274137   6.856   8.319   0.966 -0.3689 -0.4790  0.5198
23995SOL     OW74138   2.484   9.204   3.979  0.4998 -0.2322  0.5409
23995SOL    HW174139   2.422   9.170   4.044  3.7749 -1.1992  3.4609
23995SOL    HW274140   2.512   9.126   3.931 -1.3229  0.3792 -1.6922
23996SOL     OW74141   7.291   8.889   3.418 -0.2914 -0.0052  0.0760
23996SOL    HW174142   7.330   8.966   3.377  0.4877  0.0174  0.8431
23996SOL    HW274143   7.345   8.816   3.387  0.1435 -0.0175  0.8616
23997SOL     OW74144   4.655   1.972   2.304 -0.0378 -0.6291  0.2617
23997SOL    HW174145   4.692   1.973   2.215  0.3313 -0.2003  0.4128
23997SOL    HW274146   4.561   1.985   2.291  0.3430  2.9068  0.0627
23998SOL     OW74147   6.759   5.411   0.228 -0.3097  0.0580  0.6936
23998SOL    HW174148   6.781   5.441   0.316  1.4414  0.3754  0.1960
23998SOL    HW274149   6.838   5.427   0.177 -0.9634 -0.9907 -0.7250
23999SOL     OW74150   6.394   3.542   4.592 -0.0947  0.4369  0.0746
23999SOL    HW174151   6.433   3.488   4.524  0.5498 -0.4724  1.1315
23999SOL    HW274152   6.381   3.483   4.666 -0.8090  1.3877  0.7423
24000SOL     OW74153   9.242   6.591   1.083 -0.0769  0.2582 -0.8422
24000SOL    HW174154   9.203   6.505   1.101  0.3694  0.3232  0.5514
24000SOL    HW274155   9.337   6.575   1.082 -0.0165  0.6274 -1.1241
24001SOL     OW74156   7.050   3.636   0.582 -0.3594  0.7275 -0.3148
24001SOL    HW174157   6.995   3.579   0.528 -0.7898  1.3339 -0.5222
24001SOL    HW274158   7.096   3.691   0.520  0.2672  0.4306 -0.1264
24002SOL     OW74159   5.219   1.133   6.399 -0.4670  0.0714  0.9824
24002SOL    HW174160   5.126   1.116   6.388 -0.2110 -0.8875  0.2087
24002SOL    HW274161   5.248   1.167   6.315  0.3521 -1.9784  0.3651
24003SOL     OW74162   3.418   2.209   5.447 -0.2501 -0.1259  0.3610
24003SOL    HW174163   3.483   2.278   5.456 -0.9348  0.5029  0.5321
24003SOL    HW274164   3.406   2.200   5.352 -0.7030  0.5195  0.3487
24004SOL     OW74165   2.329   1.883   7.155  0.3013  0.3006  0.0274
24004SOL    HW174166   2.363   1.867   7.243  0.7960 -1.0536 -0.3912
24004SOL    HW274167   2.234   1.868   7.163  0.5861 -1.8647 -0.0747
24005SOL     OW74168   7.139   3.279   0.998  0.5795  0.0158 -0.0031
24005SOL    HW174169   7.130   3.327   1.081 -4.5558  0.9945 -0.7961
24005SOL    HW274170   7.135   3.346   0.931  3.1539 -0.9161 -1.2331
24006SOL     OW74171   1.076   0.395   5.804  0.1266 -0.3745  0.7137
24006SOL    HW174172   1.158   0.418   5.847  1.1733  1.1741 -1.8804
24006SOL    HW274173   1.084   0.301   5.786  1.2475 -0.2855  0.6768
24007SOL     OW74174   4.905   1.499   5.200  0.3949  0.3808 -0.5968
24007SOL    HW174175   4.856   1.568   5.245 -1.9190 -1.0472 -0.7729
24007SOL    HW274176   4.854   1.420   5.215  2.1070 -1.0223 -1.7701
24008SOL     OW74177   6.439   0.350   5.631 -0.2966 -0.8347 -0.2573
24008SOL    HW174178   6.398   0.432   5.658 -0.2093 -0.7749 -0.3081
24008SOL    HW274179   6.453   0.303   5.713 -0.8904 -1.0550 -0.2739
24009SOL     OW74180   2.226   8.639   4.579 -0.0884  0.1021 -0.0495
24009SOL    HW174181   2.239   8.550   4.612  0.3477 -0.2133 -1.0557
24009SOL    HW274182   2.265   8.695   4.646  0.6777 -0.5256  0.0465
24010SOL     OW74183   5.494   5.454   6.437 -0.2541 -0.5703 -0.1315
24010SOL    HW174184   5.587   5.448   6.415  0.0289  1.2633  0.3392
24010SOL    HW274185   5.449   5.410   6.365  0.9411 -0.5779 -0.9017
24011SOL     OW74186   9.621   3.751   4.593  0.1669 -0.2081 -0.4001
24011SOL    HW174187   9.613   3.842   4.564 -3.5390 -0.1605  0.2222
24011SOL    HW274188   9.682   3.755   4.667 -1.6441  2.3218  1.1564
24012SOL     OW74189   8.001   9.132   6.912  0.1184  0.5333  0.0664
24012SOL    HW174190   7.940   9.202   6.933 -1.5756 -0.9826  0.4477
24012SOL    HW274191   7.955   9.078   6.848  0.4536 -1.4130  1.3594
24013SOL     OW74192   1.201   9.020   8.310  0.2416 -0.1777  0.5054
24013SOL    HW174193   1.292   8.996   8.331  0.0210  0.2719  2.0764
24013SOL    HW274194   1.161   8.938   8.281  0.8479 -0.6264  0.9136
24014SOL     OW74195   3.699   2.463   8.482 -0.0044 -0.6501 -0.1013
24014SOL    HW174196   3.775   2.483   8.537 -0.0332 -1.2466  0.1537
24014SOL    HW274197   3.656   2.548   8.470  0.5552 -0.3497 -0.0345
24015SOL     OW74198   7.372   7.998   2.865  0.2488 -0.1950 -0.6704
24015SOL    HW174199   7.406   8.030   2.782  1.1682  0.7354  0.0239
24015SOL    HW274200   7.332   8.075   2.906  1.9521 -0.0200  0.7793
24016SOL     OW74201   4.165   2.161   7.536  0.0712 -0.3130  0.2957
24016SOL    HW174202   4.083   2.190   7.576 -0.7244 -0.4033 -1.2119
24016SOL    HW274203   4.219   2.240   7.533  0.4147 -0.4423  2.1123
24017SOL     OW74204   7.493   9.207   5.442  0.2374 -0.0020  0.3720
24017SOL    HW174205   7.497   9.112   5.445 -0.1603 -0.0353 -0.0646
24017SOL    HW274206   7.525   9.235   5.528  4.1601 -0.3812 -0.7698
24018SOL     OW74207   7.399   3.834   9.020  0.1121  0.0531  0.3293
24018SOL    HW174208   7.420   3.842   9.114  1.2942 -2.9300  0.4378
24018SOL    HW274209   7.330   3.767   9.017  0.7257 -0.5424 -0.9633
24019SOL     OW74210   9.345   0.837   2.053 -0.1534  0.0386  0.0613
24019SOL    HW174211   9.433   0.875   2.053 -0.2840  0.7207 -3.6770
24019SOL    HW274212   9.293   0.897   2.106  0.8576  1.9430 -0.9974
24020SOL     OW74213   6.269   6.944   2.898 -0.1383 -0.3701  0.1736
24020SOL    HW174214   6.329   6.934   2.972  0.4158  1.8718  0.1313
24020SOL    HW274215   6.189   6.979   2.937 -0.8650 -1.7962  0.0172
24021SOL     OW74216   0.310   1.347   0.656 -0.4404  0.0606 -0.1021
24021SOL    HW174217   0.336   1.255   0.646 -1.1769 -0.0012 -2.0350
24021SOL    HW274218   0.387   1.390   0.692  0.3453 -1.1054 -0.3218
24022SOL     OW74219   5.024   2.330   9.629  0.3665 -0.7402 -0.1123
24022SOL    HW174220   5.066   2.298   9.549  0.4389 -1.7706  0.3322
24022SOL    HW274221   5.097   2.359   9.684  0.2693  1.0408 -0.8320
24023SOL     OW74222   8.034   0.783   6.032 -0.0928 -0.4528  0.1226
24023SOL    HW174223   8.008   0.870   6.062  0.7228  0.0873 -0.6905
24023SOL    HW274224   8.105   0.799   5.971 -1.1678 -1.5643 -1.5019
24024SOL     OW74225   6.189   1.502   0.147  0.2677  0.0658  0.2395
24024SOL    HW174226   6.136   1.439   0.195  2.5689 -1.1645  1.3446
24024SOL    HW274227   6.188   1.471   0.056 -0.5553 -0.1579  0.3207
24025SOL     OW74228   4.764   0.155   4.704 -0.5330 -0.3853  0.2497
24025SOL    HW174229   4.682   0.141   4.751  0.2281 -0.3480  1.6501
24025SOL    HW274230   4.737   0.170   4.613 -2.1003  0.0577  0.7448
24026SOL     OW74231   6.397   1.045   4.842  0.4964 -0.2129  0.6272
24026SOL    HW174232   6.380   0.952   4.855  0.5787 -0.1624  1.1162
24026SOL    HW274233   6.310   1.083   4.825  0.4987 -0.4213  0.1382
24027SOL     OW74234   7.990   7.719   7.569  0.2506 -0.1203  0.2822
24027SOL    HW174235   8.037   7.797   7.542 -1.1076  1.1412  1.3935
24027SOL    HW274236   8.011   7.654   7.502  0.9324  1.3606 -1.0020
24028SOL     OW74237   4.120   4.942   3.567  0.2514  0.0519 -0.2562
24028SOL    HW174238   4.092   4.910   3.481 -1.0765  0.4568  0.0046
24028SOL    HW274239   4.113   4.867   3.625 -2.4194  0.5911  0.2562
24029SOL     OW74240   5.411   3.813   5.959  0.1920  0.8165 -0.1233
24029SOL    HW174241   5.474   3.797   5.889  1.8717 -0.2574  1.5163
24029SOL    HW274242   5.350   3.877   5.923  2.1136  1.7725 -1.8909
24030SOL     OW74243   9.041   6.087   9.616  0.0085  0.0304  0.1888
24030SOL    HW174244   9.099   6.013   9.599 -0.6695 -0.6552  0.7601
24030SOL    HW274245   9.033   6.089   9.712  1.1362  1.7353  0.2905
24031SOL     OW74246   5.280   9.503   1.731  0.0088  0.2819 -0.2498
24031SOL    HW174247   5.208   9.552   1.691  0.2610  0.7559 -0.1334
24031SOL    HW274248   5.240   9.421   1.760 -0.4024  0.3800 -0.5274
24032SOL     OW74249   1.046   7.799   1.438 -0.1363 -0.5569 -0.1339
24032SOL    HW174250   1.058   7.854   1.361 -1.0458  0.2595  0.2961
24032SOL    HW274251   1.111   7.729   1.427  0.5503  0.1903 -1.0447
24033SOL     OW74252   3.165   0.481   4.013 -0.3871  0.2496  0.3529
24033SOL    HW174253   3.181   0.478   3.919 -1.4820  1.5204  0.1051
24033SOL    HW274254   3.232   0.422   4.050 -1.2017 -1.8771 -1.3410
24034SOL     OW74255   5.734   0.322   6.113 -0.1788  0.2373  0.0291
24034SOL    HW174256   5.806   0.360   6.063  0.7382 -0.6377  0.6499
24034SOL    HW274257   5.752   0.346   6.203 -1.0977  0.6589  0.1159
24035SOL     OW74258   3.786   0.347   8.497  0.2326  0.1944 -0.6288
24035SOL    HW174259   3.742   0.327   8.580 -1.0517 -0.4367 -1.4383
24035SOL    HW274260   3.875   0.373   8.523  0.3616 -1.5118  0.8512
24036SOL     OW74261   5.561   2.924   5.491 -0.3408  0.0981  0.0310
24036SOL    HW174262   5.550   2.830   5.505  0.9420 -0.3534 -1.6920
24036SOL    HW274263   5.623   2.951   5.558  1.0106 -0.7576 -0.8375
24037SOL     OW74264   2.690   5.682   0.479 -0.0338 -0.8181 -0.0563
24037SOL    HW174265   2.652   5.660   0.564 -0.0794 -0.5770 -0.0154
24037SOL    HW274266   2.765   5.738   0.499 -1.2881  1.0138 -0.2764
24038SOL     OW74267   5.086   5.543   2.296 -0.1216  0.0149  0.1888
24038SOL    HW174268   5.132   5.472   2.340  1.3836  0.7971 -0.0517
24038SOL    HW274269   5.145   5.570   2.226 -1.5984  0.1104 -1.0742
24039SOL     OW74270   6.842   3.931   7.961 -0.0800 -0.3066 -0.4196
24039SOL    HW174271   6.833   4.004   7.899 -1.7774 -0.3881 -0.3272
24039SOL    HW274272   6.936   3.922   7.974  0.1814  2.4974  0.2720
24040SOL     OW74273   2.453   4.707   7.916 -0.0405 -0.0896  0.0943
24040SOL    HW174274   2.537   4.663   7.902  0.0576 -0.8045  2.5069
24040SOL    HW274275   2.470   4.768   7.988 -1.3859  0.4046  0.0199
24041SOL     OW74276   6.413   4.971   1.798  0.0480  0.0189  0.0064
24041SOL    HW174277   6.332   4.921   1.807  0.9060 -1.0188  3.1889
24041SOL    HW274278   6.482   4.910   1.823  1.3391  2.0676  1.8755
24042SOL     OW74279   0.959   8.721   1.138 -0.8743  0.3646 -0.2339
24042SOL    HW174280   0.998   8.661   1.075  0.2450  2.3502 -1.5317
24042SOL    HW274281   0.971   8.677   1.223  1.8143 -0.3512 -0.8734
24043SOL     OW74282   7.463   5.478   3.352  0.3113  0.0446  0.2613
24043SOL    HW174283   7.552   5.482   3.388  0.5675 -1.4408 -0.1344
24043SOL    HW274284   7.466   5.536   3.276  1.3045 -0.8214 -0.4052
24044SOL     OW74285   8.215   2.223   0.458  0.0812  0.3198  0.3115
24044SOL    HW174286   8.300   2.264   0.475  0.1791 -0.7501  2.7878
24044SOL    HW274287   8.236   2.138   0.419  0.1295  0.2553  0.4777
24045SOL     OW74288   0.342   1.827   3.137  0.4869  0.0008 -0.7103
24045SOL    HW174289   0.305   1.775   3.208  1.7983 -0.5150 -0.3809
24045SOL    HW274290   0.384   1.763   3.080  0.3397  0.5116 -1.4049
24046SOL     OW74291   8.657   3.182   9.292 -0.6365 -0.1212 -0.1933
24046SOL    HW174292   8.648   3.269   9.254 -1.2749 -0.4998 -0.9573
24046SOL    HW274293   8.609   3.186   9.375  0.0374  0.4778  0.1723
24047SOL     OW74294   9.044   8.976   9.461 -0.3348  0.2820  0.2023
24047SOL    HW174295   9.084   9.036   9.398  0.9262  0.8763  1.5003
24047SOL    HW274296   9.108   8.971   9.532 -0.7431 -2.0443  0.4757
24048SOL     OW74297   7.918   8.987   6.560 -0.8222  0.2869  0.1691
24048SOL    HW174298   8.000   9.028   6.586  0.6323 -1.0344 -2.0196
24048SOL    HW274299   7.906   8.915   6.621 -0.1580  0.2846  0.3025
24049SOL     OW74300   3.282   3.550   5.720 -0.8579 -0.3024  0.5538
24049SOL    HW174301   3.297   3.463   5.683 -2.8035  0.0640 -1.4010
24049SOL    HW274302   3.261   3.534   5.812  0.1827 -1.7320  0.5800
24050SOL     OW74303   9.095   2.636   7.631 -0.0799 -0.2607  0.2945
24050SOL    HW174304   9.022   2.587   7.668 -0.4625 -0.3071 -0.5112
24050SOL    HW274305   9.071   2.650   7.540  0.6307  0.2756  0.1826
24051SOL     OW74306   1.473   2.349   9.028  0.6542 -0.0981  0.1476
24051SOL    HW174307   1.452   2.399   9.107  0.5600  1.3533 -0.7828
24051SOL    HW274308   1.524   2.275   9.061 -0.0470  0.0401  1.6583
24052SOL     OW74309   4.186   4.783   8.527 -0.1135  0.2288 -0.0374
24052SOL    HW174310   4.120   4.733   8.575 -0.3250  1.7636  1.3536
24052SOL    HW274311   4.206   4.857   8.584  0.1959  1.7300 -1.9937
24053SOL     OW74312   1.486   2.423   0.612 -1.0733 -0.1352  0.0918
24053SOL    HW174313   1.408   2.416   0.668 -1.8670  0.0143 -0.9734
24053SOL    HW274314   1.461   2.483   0.543 -0.2222 -0.5948 -0.6372
24054SOL     OW74315   1.391   6.420   1.685  0.2653 -0.5868 -0.6096
24054SOL    HW174316   1.367   6.502   1.727  1.5697 -0.8891  0.7956
24054SOL    HW274317   1.486   6.414   1.695  0.5914 -0.9659 -3.1236
24055SOL     OW74318   5.156   6.651   5.068 -0.4582  0.0841  0.1187
24055SOL    HW174319   5.226   6.716   5.069 -0.1601 -0.2290  1.0424
24055SOL    HW274320   5.202   6.567   5.059 -0.8582  0.0073 -1.4370
24056SOL     OW74321   4.229   7.943   9.279 -0.3818 -0.1492  0.1552
24056SOL    HW174322   4.215   7.941   9.374 -1.7625 -2.2056 -0.0113
24056SOL    HW274323   4.143   7.920   9.242 -0.0616  1.3200 -1.6476
24057SOL     OW74324   5.580   0.609   4.200  0.1148 -0.4115 -0.5809
24057SOL    HW174325   5.526   0.662   4.259  0.0992  0.8204 -1.6600
24057SOL    HW274326   5.525   0.596   4.123  0.8428 -0.3117 -1.1268
24058SOL     OW74327   2.206   7.291   0.967  0.5001  0.2776 -0.2924
24058SOL    HW174328   2.129   7.347   0.967  2.0562  2.5337 -1.2266
24058SOL    HW274329   2.220   7.270   1.060 -1.9192 -1.2988 -0.1939
24059SOL     OW74330   1.699   1.343   5.914 -0.0093 -0.0844  0.7117
24059SOL    HW174331   1.632   1.332   5.847 -0.4435 -1.3702  1.3241
24059SOL    HW274332   1.674   1.423   5.960 -0.4419  0.0932  0.1820
24060SOL     OW74333   5.414   3.954   4.982 -0.1480  0.3346  0.3111
24060SOL    HW174334   5.413   3.879   5.042 -0.0825 -0.1992 -0.3467
24060SOL    HW274335   5.454   3.920   4.902 -2.7120  0.2713 -1.0363
24061SOL     OW74336   5.782   5.901   6.923  0.0077 -0.4640 -0.0890
24061SOL    HW174337   5.864   5.856   6.944  0.3180 -0.0302 -0.3526
24061SOL    HW274338   5.801   5.947   6.841 -0.0593  0.7771  0.5707
24062SOL     OW74339   1.313   0.574   0.334 -0.3083 -0.4964  0.1413
24062SOL    HW174340   1.269   0.505   0.383  0.2147 -0.7586  0.2480
24062SOL    HW274341   1.402   0.542   0.321 -0.6386 -0.7847 -1.6552
24063SOL     OW74342   6.444   2.761   8.318 -0.3594  0.3403 -0.4825
24063SOL    HW174343   6.455   2.850   8.287  0.3259 -0.0441 -1.3968
24063SOL    HW274344   6.522   2.715   8.288 -0.0488 -0.2662  1.1267
24064SOL     OW74345   1.727   3.834   6.362  0.0644  0.6840 -0.8172
24064SOL    HW174346   1.748   3.801   6.275 -2.5306 -0.6440 -1.0326
24064SOL    HW274347   1.707   3.927   6.348 -1.6594  0.1884 -1.9451
24065SOL     OW74348   8.555   6.843   7.068 -0.7096  1.0200 -0.2873
24065SOL    HW174349   8.621   6.852   6.999 -0.5138  1.2453 -0.0724
24065SOL    HW274350   8.556   6.749   7.090  0.7234  1.2551  0.8605
24066SOL     OW74351   6.127   8.748   7.951  0.1352 -0.0731  0.3792
24066SOL    HW174352   6.167   8.784   8.030  0.6367 -2.4312  1.2850
24066SOL    HW274353   6.035   8.733   7.975  0.0079  0.2803  0.1197
24067SOL     OW74354   2.492   7.985   9.377  0.1566 -0.3686 -0.4963
24067SOL    HW174355   2.441   8.063   9.394 -1.9770 -1.1725 -2.5642
24067SOL    HW274356   2.526   7.958   9.462  1.0104  2.7560  0.2671
24068SOL     OW74357   7.280   4.793   3.984  0.3415 -0.4589 -0.4413
24068SOL    HW174358   7.302   4.741   3.906 -1.9942  0.3313 -1.7337
24068SOL    HW274359   7.300   4.883   3.958  0.7362 -0.3141  0.3599
24069SOL     OW74360   2.142   7.883   8.312  0.0415  0.1683  0.5658
24069SOL    HW174361   2.234   7.863   8.331  0.6449  1.9137 -0.3068
24069SOL    HW274362   2.125   7.840   8.228  1.3057  2.9454 -1.2595
24070SOL     OW74363   8.261   5.579   4.988 -0.0265 -0.1795  0.0123
24070SOL    HW174364   8.342   5.630   4.991  0.9890 -1.6996  0.0319
24070SOL    HW274365   8.224   5.596   4.902 -0.5967  1.8338  0.6190
24071SOL     OW74366   1.237   8.976   5.479 -0.0642 -0.0811 -0.4334
24071SOL    HW174367   1.295   8.905   5.508 -0.6920 -1.3677 -2.1368
24071SOL    HW274368   1.296   9.037   5.434  0.2142 -0.6220 -0.8255
24072SOL     OW74369   1.214   1.736   4.764  0.2822  0.1736 -0.7564
24072SOL    HW174370   1.174   1.740   4.851  1.6862  1.4037 -0.1149
24072SOL    HW274371   1.158   1.789   4.708 -0.2819 -0.0941 -0.4463
24073SOL     OW74372   6.915   1.814   7.424 -0.4093  0.1183 -0.2878
24073SOL    HW174373   6.893   1.901   7.457 -1.8183 -0.4910  0.4916
24073SOL    HW274374   6.988   1.784   7.478  0.3036  0.9375 -0.7847
24074SOL     OW74375   1.669   8.557   1.432 -0.2305  0.0958  0.1295
24074SOL    HW174376   1.763   8.547   1.413 -0.2394  0.7657 -0.3343
24074SOL    HW274377   1.633   8.594   1.351 -0.5589  1.6003  0.9249
24075SOL     OW74378   6.437   3.871   9.141 -0.4247 -0.6646  0.1718
24075SOL    HW174379   6.518   3.835   9.105  0.7852  1.7305  0.2467
24075SOL    HW274380   6.466   3.949   9.190 -2.8034  0.5798 -0.2529
24076SOL     OW74381   6.842   1.976   7.110  0.3786  0.2308  0.4032
24076SOL    HW174382   6.753   1.997   7.136  0.3900  1.4283 -0.5007
24076SOL    HW274383   6.896   2.044   7.150  0.8525 -0.2523  0.6087
24077SOL     OW74384   7.880   9.409   2.288 -0.1775  0.5545  0.1786
24077SOL    HW174385   7.874   9.338   2.352  0.2115 -0.7982 -1.2193
24077SOL    HW274386   7.958   9.388   2.237 -2.3005 -0.4402 -2.9863
24078SOL     OW74387   6.435   3.534   9.146 -0.5060  0.0741 -0.2887
24078SOL    HW174388   6.358   3.590   9.152  0.6175  1.6316  0.5752
24078SOL    HW274389   6.428   3.491   9.061 -2.3874  0.0524 -0.1461
24079SOL     OW74390   4.483   3.969   6.564 -0.4647  0.0443 -0.2053
24079SOL    HW174391   4.543   3.895   6.567  0.7170  0.9857  0.0327
24079SOL    HW274392   4.415   3.946   6.628  0.0259 -0.7126  0.0659
24080SOL     OW74393   5.119   3.278   2.572 -0.4596  0.3907  0.1949
24080SOL    HW174394   5.050   3.320   2.519 -1.5075 -0.2408  1.0205
24080SOL    HW274395   5.193   3.269   2.512 -0.5670  2.4227 -0.3145
24081SOL     OW74396   8.170   2.653   8.699  0.0459 -0.4913 -0.6533
24081SOL    HW174397   8.167   2.612   8.612 -0.1089 -0.9122 -0.4526
24081SOL    HW274398   8.248   2.614   8.740 -0.0087 -0.4603 -0.5216
24082SOL     OW74399   5.827   4.479   6.145 -0.2132 -0.6444 -0.1871
24082SOL    HW174400   5.853   4.516   6.230 -0.7110 -1.6106  0.3996
24082SOL    HW274401   5.868   4.537   6.080  0.4677 -0.0984  0.7084
24083SOL     OW74402   3.661   7.578   9.244 -0.1561  0.5050 -0.0571
24083SOL    HW174403   3.581   7.559   9.293 -0.6400  2.1188 -0.1488
24083SOL    HW274404   3.731   7.537   9.294 -0.9523 -0.2051  0.4904
24084SOL     OW74405   0.172   1.613   7.479  0.0617 -0.5823  0.1760
24084SOL    HW174406   0.244   1.555   7.453  0.2058 -0.6293  0.6777
24084SOL    HW274407   0.108   1.604   7.408  1.1752  0.5934 -1.0545
24085SOL     OW74408   5.422   1.567   3.775  0.2523  0.1673 -0.6880
24085SOL    HW174409   5.326   1.564   3.783  0.3500 -0.8081  0.2886
24085SOL    HW274410   5.443   1.494   3.717  0.2804  1.6379 -2.6377
24086SOL     OW74411   0.288   2.975   2.549 -0.1202  0.1282  0.3260
24086SOL    HW174412   0.238   2.897   2.570 -0.1830  0.1914  0.4140
24086SOL    HW274413   0.345   2.989   2.625 -0.5511  0.5211  0.5870
24087SOL     OW74414   3.341   2.653   7.371  0.1247  0.2568  0.3170
24087SOL    HW174415   3.357   2.560   7.387 -1.4363  0.2091  1.9153
24087SOL    HW274416   3.302   2.686   7.452  1.0041  2.4273 -0.0526
24088SOL     OW74417   3.193   7.585   2.832  0.1707  0.7869  0.4375
24088SOL    HW174418   3.264   7.521   2.841 -1.1771 -0.8505  0.1371
24088SOL    HW274419   3.142   7.553   2.758 -0.6106  2.1996  0.3352
24089SOL     OW74420   0.380   7.568   4.531 -0.4408 -0.2024 -0.1147
24089SOL    HW174421   0.356   7.634   4.465  0.6670  0.3228 -0.0080
24089SOL    HW274422   0.389   7.487   4.481 -3.4330 -0.7210 -0.0263
24090SOL     OW74423   9.634   9.395   4.232 -0.1944 -0.3065 -0.6362
24090SOL    HW174424   9.604   9.389   4.141 -1.4012  0.6281 -0.3223
24090SOL    HW274425   9.623   9.487   4.255  2.5532  0.0316 -0.3371
24091SOL     OW74426   4.491   0.136   4.758  0.6881 -0.2011  0.3032
24091SOL    HW174427   4.434   0.213   4.746  0.1155 -0.5407  0.7678
24091SOL    HW274428   4.437   0.063   4.728  1.1313 -0.4504  0.1224
24092SOL     OW74429   8.571   9.004   3.105 -0.1047 -0.6004 -0.0184
24092SOL    HW174430   8.648   9.057   3.085 -0.9571  0.2269 -1.2676
24092SOL    HW274431   8.548   8.963   3.022 -0.8492 -1.0689  0.4087
24093SOL     OW74432   2.783   8.216   5.484  0.3474 -0.2405 -0.5661
24093SOL    HW174433   2.718   8.286   5.477 -0.0199 -0.4125  0.7097
24093SOL    HW274434   2.866   8.262   5.501  0.6704 -0.0003 -2.6177
24094SOL     OW74435   9.106   4.634   8.144  0.1734  0.0941  0.2264
24094SOL    HW174436   9.047   4.708   8.163  1.0727  0.6475  0.9439
24094SOL    HW274437   9.062   4.587   8.073 -1.9359 -0.4319  1.7743
24095SOL     OW74438   3.752   1.350   8.559 -0.2662  0.4248 -0.0131
24095SOL    HW174439   3.784   1.320   8.474  2.4023  1.1270  0.6600
24095SOL    HW274440   3.667   1.307   8.569 -1.0672  0.9583 -3.3607
24096SOL     OW74441   2.697   0.281   1.726 -0.4254 -0.4566  0.1252
24096SOL    HW174442   2.691   0.233   1.808 -0.6976 -2.6862 -1.0953
24096SOL    HW274443   2.677   0.215   1.659  1.9958  0.6629 -1.8792
24097SOL     OW74444   0.696   3.593   2.786 -0.7454 -0.4110 -0.3264
24097SOL    HW174445   0.776   3.544   2.770  0.0138  0.6692 -0.0079
24097SOL    HW274446   0.650   3.542   2.852 -1.3287 -2.0973 -1.9542
24098SOL     OW74447   7.688   8.000   2.678  0.2667  0.7448 -0.3259
24098SOL    HW174448   7.641   8.083   2.683 -1.6952 -0.2213 -1.4573
24098SOL    HW274449   7.722   7.998   2.588  0.6068  0.4809 -0.1913
24099SOL     OW74450   3.621   7.059   4.207 -0.4792 -0.1273 -0.2123
24099SOL    HW174451   3.550   7.067   4.270  0.3380 -1.8154  1.0086
24099SOL    HW274452   3.701   7.055   4.260  0.3577 -0.2065 -1.4199
24100SOL     OW74453   5.930   3.767   0.111  0.4892 -0.4135 -0.1319
24100SOL    HW174454   6.017   3.749   0.147 -0.2244 -3.5484  0.3762
24100SOL    HW274455   5.914   3.693   0.051 -0.8740  1.3927 -2.1246
24101SOL     OW74456   8.744   1.247   1.639  0.0642  0.3356  0.3294
24101SOL    HW174457   8.782   1.299   1.568  0.2453  1.0187  0.9190
24101SOL    HW274458   8.700   1.310   1.695 -0.5179 -0.2617  0.5592
24102SOL     OW74459   7.239   9.408   5.479 -0.0142  0.0625  0.2969
24102SOL    HW174460   7.164   9.353   5.503  0.1199 -0.7463 -1.0677
24102SOL    HW274461   7.310   9.378   5.536 -0.0070 -1.0366 -0.2696
24103SOL     OW74462   1.301   6.646   7.225 -0.1168  0.0448  0.6093
24103SOL    HW174463   1.289   6.553   7.203  1.4071  0.2688 -1.4167
24103SOL    HW274464   1.222   6.689   7.192  0.3228 -0.2096 -0.8422
24104SOL     OW74465   3.998   4.067   8.056  0.0271 -0.1284 -0.3815
24104SOL    HW174466   4.062   4.120   8.007  0.1897 -0.1566 -0.2018
24104SOL    HW274467   3.941   4.031   7.989  1.9297 -2.4938 -0.8658
24105SOL     OW74468   1.629   6.014   5.392  0.2072  0.1509 -0.1727
24105SOL    HW174469   1.634   6.104   5.360  1.0859  0.3634  0.5068
24105SOL    HW274470   1.572   5.969   5.330 -3.0242  1.9378  1.2283
24106SOL     OW74471   6.867   1.513   5.931 -0.6830 -0.0693 -0.6157
24106SOL    HW174472   6.812   1.435   5.927  0.3225 -0.7680 -1.4793
24106SOL    HW274473   6.956   1.480   5.925 -0.2325  1.1409 -0.9594
24107SOL     OW74474   1.510   1.091   4.668  0.0915  0.4465  0.2203
24107SOL    HW174475   1.538   1.097   4.759  0.3469  1.1724  0.1031
24107SOL    HW274476   1.452   1.015   4.665  1.5753 -0.7334  0.5929
24108SOL     OW74477   8.571   7.487   9.192 -0.2857  0.1187 -0.0025
24108SOL    HW174478   8.649   7.517   9.145  0.2753 -0.0649  0.7825
24108SOL    HW274479   8.588   7.395   9.209  0.5401  0.6403  2.4339
24109SOL     OW74480   6.774   9.395   5.279 -0.2224 -0.4920 -0.3226
24109SOL    HW174481   6.842   9.457   5.254 -1.2829  1.5813  1.6023
24109SOL    HW274482   6.724   9.440   5.347 -1.8263 -3.0111  0.3007
24110SOL     OW74483   5.583   7.881   6.389  0.1500  0.5575 -0.7366
24110SOL    HW174484   5.557   7.817   6.454  1.1301  0.7161 -0.1621
24110SOL    HW274485   5.652   7.932   6.432 -0.3218  1.7291 -1.3211
24111SOL     OW74486   5.571   0.310   5.908 -0.2572 -0.1704  0.0199
24111SOL    HW174487   5.612   0.336   5.990  1.2714  0.6425 -0.9397
24111SOL    HW274488   5.620   0.232   5.880 -0.4234 -0.1373 -0.3700
24112SOL     OW74489   2.774   0.610   3.324  0.4858  0.0778 -0.2610
24112SOL    HW174490   2.740   0.522   3.304  0.5307  0.0619 -0.2683
24112SOL    HW274491   2.729   0.635   3.404  0.5379  0.0114 -0.2107
24113SOL     OW74492   4.511   3.148   4.599  0.0922 -0.6387 -0.5151
24113SOL    HW174493   4.489   3.216   4.663  0.6124 -0.4432 -0.5453
24113SOL    HW274494   4.428   3.131   4.554 -0.5699 -1.6087  0.9917
24114SOL     OW74495   3.278   9.090   3.790  0.0186 -0.0251  0.0111
24114SOL    HW174496   3.217   9.103   3.717  1.4099 -0.7134 -1.3201
24114SOL    HW274497   3.243   9.015   3.838 -1.0568  0.6018  0.2498
24115SOL     OW74498   8.741   1.863   4.280 -0.0882 -0.1960  0.3333
24115SOL    HW174499   8.836   1.879   4.278 -0.1942  0.7387  1.9429
24115SOL    HW274500   8.704   1.940   4.321 -1.6045 -0.4717 -0.4420
24116SOL     OW74501   1.684   2.250   8.624  0.4108  0.2949 -0.5643
24116SOL    HW174502   1.631   2.315   8.579 -0.3438 -0.4670 -0.8100
24116SOL    HW274503   1.621   2.200   8.676  1.0879  0.2850  0.2573
24117SOL     OW74504   9.226   2.959   2.632  0.0903 -0.3159  0.7875
24117SOL    HW174505   9.228   3.039   2.685 -1.7135  0.0468  0.3728
24117SOL    HW274506   9.169   2.980   2.558 -0.5880 -2.0323  0.7635
24118SOL     OW74507   4.495   3.722   9.363  0.0932  0.0033  0.1835
24118SOL    HW174508   4.586   3.749   9.351  0.7023 -1.6681  0.6497
24118SOL    HW274509   4.447   3.803   9.379  1.8816  0.7790  2.1857
24119SOL     OW74510   8.390   2.690   9.082  0.2020 -0.0674  0.0358
24119SOL    HW174511   8.435   2.762   9.038  1.4577  0.6291  2.2911
24119SOL    HW274512   8.434   2.611   9.050 -0.1273  0.2566 -1.2692
24120SOL     OW74513   6.880   2.295   6.843 -0.1692  0.0944  0.2790
24120SOL    HW174514   6.875   2.231   6.772 -0.2251 -0.8392  1.0963
24120SOL    HW274515   6.798   2.285   6.891  0.5027 -0.4149  1.3814
24121SOL     OW74516   0.193   3.070   9.017  0.3142  0.1481 -0.3902
24121SOL    HW174517   0.157   3.152   8.983  0.1153  0.0547 -0.4077
24121SOL    HW274518   0.288   3.078   9.003  0.4573  0.9676  0.8917
24122SOL     OW74519   1.596   0.583   0.563 -0.6822  0.0205  0.1088
24122SOL    HW174520   1.550   0.536   0.632  0.9137 -1.0800  0.4746
24122SOL    HW274521   1.592   0.675   0.590  0.5094 -0.4380  2.1113
24123SOL     OW74522   8.260   8.339   2.182  0.2661  0.3068  0.1437
24123SOL    HW174523   8.321   8.397   2.228  1.0114  0.5973 -1.1570
24123SOL    HW274524   8.243   8.268   2.243  0.6144  1.0689  1.1489
24124SOL     OW74525   3.477   6.277   7.440  0.0189  0.5266  0.1952
24124SOL    HW174526   3.547   6.217   7.415  1.0037  1.3863  0.7763
24124SOL    HW274527   3.448   6.247   7.526 -0.0492  0.3905  0.1230
24125SOL     OW74528   2.367   7.281   8.612 -0.2872  0.3756 -0.1495
24125SOL    HW174529   2.336   7.294   8.522 -0.4474  0.1793 -0.1238
24125SOL    HW274530   2.366   7.369   8.650 -2.3136  0.1945  0.3281
24126SOL     OW74531   6.745   6.556   8.292 -0.0681  0.1734 -0.4516
24126SOL    HW174532   6.822   6.604   8.263 -1.0695  2.6381  0.7325
24126SOL    HW274533   6.715   6.509   8.214  1.8254  0.2063 -1.2567
24127SOL     OW74534   3.045   8.719   9.003  0.1330 -0.6547  0.2738
24127SOL    HW174535   3.122   8.704   8.949  0.7084 -0.4713  1.0226
24127SOL    HW274536   3.041   8.641   9.060 -0.4443 -0.8325 -0.0056
24128SOL     OW74537   0.777   5.726   7.092 -0.0474  0.4787 -0.1137
24128SOL    HW174538   0.683   5.709   7.088  0.1235 -0.3401 -1.2773
24128SOL    HW274539   0.791   5.800   7.032 -0.3790  3.0172  2.7101
24129SOL     OW74540   8.984   4.913   2.570  0.1814 -0.0176  0.0987
24129SOL    HW174541   9.014   4.944   2.655 -0.1614 -2.4937  1.2239
24129SOL    HW274542   9.050   4.848   2.544  0.5915  1.1106 -1.8450
24130SOL     OW74543   4.313   6.623   4.948 -0.1630 -0.2168 -0.0060
24130SOL    HW174544   4.220   6.609   4.965 -0.1163 -1.8090 -0.8570
24130SOL    HW274545   4.331   6.712   4.980 -1.9162  0.0334  0.3492
24131SOL     OW74546   5.195   1.888   1.191  0.0317 -0.7716  0.0734
24131SOL    HW174547   5.191   1.912   1.283  2.3894 -0.9469  0.2785
24131SOL    HW274548   5.247   1.808   1.188 -0.6513 -1.2011 -1.3451
24132SOL     OW74549   3.292   2.675   4.579  0.0898  0.1005 -0.6123
24132SOL    HW174550   3.287   2.707   4.489 -0.8128 -0.7014 -0.8638
24132SOL    HW274551   3.209   2.629   4.593  0.7121 -0.8112  0.2303
24133SOL     OW74552   5.692   1.586   4.433  0.1462  0.2101 -0.0231
24133SOL    HW174553   5.676   1.661   4.375  0.7563  0.9798  0.7678
24133SOL    HW274554   5.683   1.510   4.376 -0.0093  0.9048 -0.9660
24134SOL     OW74555   7.714   6.274   4.330  0.5864  0.1007  0.2137
24134SOL    HW174556   7.743   6.186   4.305  0.7580 -0.8050  3.2754
24134SOL    HW274557   7.738   6.282   4.422 -1.0658  2.6753  0.5066
24135SOL     OW74558   7.476   8.775   0.354  0.2846  0.0522 -0.4913
24135SOL    HW174559   7.549   8.835   0.338 -0.3227  1.8760  2.7136
24135SOL    HW274560   7.403   8.832   0.380 -1.5139 -1.8829 -1.0361
24136SOL     OW74561   1.530   3.478   3.535  0.3012  0.8633  0.3365
24136SOL    HW174562   1.551   3.473   3.442 -2.0232  1.7814 -0.2929
24136SOL    HW274563   1.574   3.557   3.566 -0.4768  1.6112 -0.4434
24137SOL     OW74564   1.332   8.985   5.880  0.0195 -0.2963  0.4134
24137SOL    HW174565   1.244   9.021   5.871  0.0735 -0.5878 -1.6121
24137SOL    HW274566   1.362   9.018   5.965 -1.2619  1.4940  0.2363
24138SOL     OW74567   6.429   3.450   8.608  0.5207 -0.1340 -0.0085
24138SOL    HW174568   6.417   3.373   8.553 -0.4389 -0.0986  0.1341
24138SOL    HW274569   6.429   3.523   8.547 -0.5358 -0.0948  0.0293
24139SOL     OW74570   6.738   7.153   7.438 -0.5090  0.7449 -0.5052
24139SOL    HW174571   6.692   7.167   7.355 -0.2978  1.2877 -0.5312
24139SOL    HW274572   6.739   7.058   7.448  1.6847  0.4714 -2.4138
24140SOL     OW74573   7.035   8.940   4.390 -0.0677  0.4773 -0.2525
24140SOL    HW174574   7.004   8.850   4.389 -0.5015  0.6261 -0.0849
24140SOL    HW274575   7.114   8.937   4.445 -1.4873  0.6531  1.9150
24141SOL     OW74576   6.426   9.343   0.413  0.0944  0.3359 -0.3304
24141SOL    HW174577   6.382   9.416   0.369 -1.3781  0.1744  0.8124
24141SOL    HW274578   6.450   9.378   0.499  1.1132  0.0395 -0.4818
24142SOL     OW74579   3.663   9.529   2.498 -0.0025 -0.5481  0.0963
24142SOL    HW174580   3.643   9.589   2.569 -0.1681  0.2851 -0.6403
24142SOL    HW274581   3.749   9.493   2.521 -0.7242 -1.4720  1.4825
24143SOL     OW74582   6.755   1.102   3.369  0.7183 -0.2077 -0.5965
24143SOL    HW174583   6.767   1.008   3.354  0.2055 -0.5194  0.7914
24143SOL    HW274584   6.664   1.111   3.394  0.6393  0.7429 -1.1750
24144SOL     OW74585   5.726   2.068   8.422 -0.5752  0.0624 -0.1798
24144SOL    HW174586   5.652   2.041   8.367 -2.3128  1.7190  1.2126
24144SOL    HW274587   5.773   2.132   8.369 -1.0937  0.1920 -0.4930
24145SOL     OW74588   8.507   2.188   0.869 -0.1168 -0.0012 -0.2814
24145SOL    HW174589   8.501   2.261   0.808  1.3290 -1.4191 -2.2407
24145SOL    HW274590   8.452   2.120   0.830 -0.5663 -0.3602  0.9378
24146SOL     OW74591   3.768   8.397   6.926 -0.3011 -0.3340 -0.1462
24146SOL    HW174592   3.755   8.389   6.832 -2.4602  3.0846 -0.3433
24146SOL    HW274593   3.817   8.479   6.937  1.8079 -1.7306  1.6966
24147SOL     OW74594   7.787   0.001   2.430  0.0256 -0.0383 -0.1865
24147SOL    HW174595   7.759   0.045   2.350 -0.0228  0.1096 -0.0906
24147SOL    HW274596   7.810  -0.087   2.403 -1.9601 -0.6507 -0.0526
24148SOL     OW74597   8.215   2.866   5.886 -0.4469  0.0611 -0.3016
24148SOL    HW174598   8.283   2.902   5.829 -2.1510  2.0532 -1.1809
24148SOL    HW274599   8.258   2.855   5.971  1.2716  0.1007 -1.1187
24149SOL     OW74600   5.606   3.023   4.047  0.0301 -0.0083 -0.8647
24149SOL    HW174601   5.674   2.995   4.109 -0.2553  0.7337 -0.2036
24149SOL    HW274602   5.593   2.947   3.990  0.4797 -0.6201 -0.1716
24150SOL     OW74603   8.451   6.813   7.714  0.4670  0.7674 -0.3690
24150SOL    HW174604   8.520   6.877   7.733  0.1471  1.0571 -0.1713
24150SOL    HW274605   8.375   6.866   7.689  0.5382  0.4266 -1.3418
24151SOL     OW74606   6.573   2.651   0.511 -0.1356  0.7260 -0.4598
24151SOL    HW174607   6.601   2.565   0.480  0.9143  0.7691  0.3472
24151SOL    HW274608   6.550   2.699   0.431  0.9820  0.2943 -1.0596
24152SOL     OW74609   7.521   0.752   2.637 -0.0337  0.3951  0.2978
24152SOL    HW174610   7.525   0.804   2.717  0.1431 -0.8705  1.1565
24152SOL    HW274611   7.607   0.763   2.597  0.3050  0.1044  0.9224
24153SOL     OW74612   7.832   2.754   7.617  0.2996  0.2884 -0.8612
24153SOL    HW174613   7.818   2.662   7.592 -1.1753  0.3722 -0.3867
24153SOL    HW274614   7.850   2.798   7.534  0.7388 -0.3753 -1.1292
24154SOL     OW74615   5.500   7.621   7.898  0.0534  0.2462  0.0558
24154SOL    HW174616   5.591   7.602   7.920 -0.3569 -0.8837  0.8169
24154SOL    HW274617   5.503   7.710   7.863  1.1470  1.0965  2.1266
24155SOL     OW74618   9.102   1.457   0.956 -0.3176 -0.5368  0.1642
24155SOL    HW174619   9.015   1.428   0.928 -0.3092 -1.7280  1.2553
24155SOL    HW274620   9.129   1.520   0.890 -2.2937  0.3827  0.1461
24156SOL     OW74621   2.773   3.271   2.427  0.0574 -0.5628 -1.2098
24156SOL    HW174622   2.867   3.253   2.429  0.0787 -0.5820  1.5211
24156SOL    HW274623   2.735   3.210   2.490 -1.4410  0.9814 -0.5270
24157SOL     OW74624   9.343   7.923   3.447 -0.1465  0.4269  0.0566
24157SOL    HW174625   9.304   7.835   3.446  3.3139 -1.2526 -0.2455
24157SOL    HW274626   9.379   7.932   3.535 -0.1265  1.4172 -0.0453
24158SOL     OW74627   8.456   6.790   0.295 -0.1481  0.5992  0.0586
24158SOL    HW174628   8.481   6.879   0.318 -0.0585  0.2667  1.2943
24158SOL    HW274629   8.539   6.741   0.297 -0.3175  0.3182  0.1951
24159SOL     OW74630   3.254   5.106   6.354  0.5065 -0.1456  0.6970
24159SOL    HW174631   3.271   5.151   6.437  1.2639 -0.9085  0.9693
24159SOL    HW274632   3.323   5.135   6.296  0.0162  0.3322  0.3461
24160SOL     OW74633   9.630   3.854   4.170  0.3765 -0.4810  0.2803
24160SOL    HW174634   9.686   3.928   4.194 -0.4493  0.1903  0.1871
24160SOL    HW274635   9.543   3.878   4.204  0.2141 -1.6596  0.7342
24161SOL     OW74636   5.256   0.808   0.784 -0.6589 -0.3316  0.3280
24161SOL    HW174637   5.215   0.869   0.845  2.3991  1.1175  1.0973
24161SOL    HW274638   5.216   0.828   0.699 -0.4644  2.0636  0.7501
24162SOL     OW74639   8.251   8.334   3.593 -0.1254 -1.1997  0.4152
24162SOL    HW174640   8.315   8.272   3.629  0.1629 -1.9109 -1.2132
24162SOL    HW274641   8.166   8.290   3.603 -0.2834 -0.6266  1.7893
24163SOL     OW74642   8.080   3.517   1.426 -0.2547  0.2997 -0.3077
24163SOL    HW174643   8.019   3.532   1.499  1.9274 -0.9601  1.9149
24163SOL    HW274644   8.092   3.422   1.425  1.4401  0.4899 -0.8553
24164SOL     OW74645   3.488   0.368   7.239  0.1839 -0.7656 -0.1733
24164SOL    HW174646   3.447   0.352   7.154 -0.6191 -1.0128  0.2515
24164SOL    HW274647   3.505   0.462   7.240  0.7376 -0.8550 -0.8440
24165SOL     OW74648   1.311   8.367   3.707 -0.6379 -0.3243 -0.2432
24165SOL    HW174649   1.281   8.429   3.641  0.1623  1.3154  0.8614
24165SOL    HW274650   1.253   8.381   3.782 -1.4162 -2.0164 -0.4964
24166SOL     OW74651   1.310   6.252   7.384 -0.4059  0.0722  0.3179
24166SOL    HW174652   1.313   6.337   7.427 -0.1587  0.4518 -0.4301
24166SOL    HW274653   1.241   6.204   7.430  0.6415  0.0120  1.9303
24167SOL     OW74654   7.053   9.455   9.574  0.0661  0.4416 -0.3495
24167SOL    HW174655   6.976   9.402   9.556  0.0797  0.0060  0.8184
24167SOL    HW274656   7.118   9.394   9.607  1.1631  0.6940 -1.9169
24168SOL     OW74657   3.707   1.364   7.447  0.1822 -0.6864 -0.5641
24168SOL    HW174658   3.721   1.441   7.391 -3.1244  0.1893 -0.3605
24168SOL    HW274659   3.708   1.399   7.536 -0.2736 -1.0697 -0.4082
24169SOL     OW74660   7.801   8.536   2.704 -0.1144 -0.0598  0.7467
24169SOL    HW174661   7.838   8.624   2.710  0.4569 -0.2034 -0.3320
24169SOL    HW274662   7.724   8.546   2.648  1.9582 -0.7417 -2.5402
24170SOL     OW74663   6.340   5.227   2.190 -0.0772 -0.3100 -0.2341
24170SOL    HW174664   6.318   5.242   2.098 -1.6722 -0.0581  0.1576
24170SOL    HW274665   6.392   5.146   2.189  0.2642 -0.0903 -1.3887
24171SOL     OW74666   9.195   8.531   8.374  0.2789 -0.1008 -0.5021
24171SOL    HW174667   9.166   8.439   8.377  0.4722 -0.1509  0.2056
24171SOL    HW274668   9.126   8.579   8.420  0.7574 -0.0648  0.1963
24172SOL     OW74669   1.874   0.528   4.086 -0.3094  0.4428 -0.2350
24172SOL    HW174670   1.827   0.455   4.046  0.1481 -0.3524  0.6565
24172SOL    HW274671   1.833   0.606   4.047  0.2718 -0.2680 -2.4300
24173SOL     OW74672   6.382   5.302   0.965 -0.0871 -0.4685 -0.2986
24173SOL    HW174673   6.456   5.329   1.020 -0.1795 -0.1937 -0.3082
24173SOL    HW274674   6.414   5.226   0.917  0.8546  0.7879 -1.7556
24174SOL     OW74675   0.796   4.609   3.772 -0.1878  0.1247 -0.4119
24174SOL    HW174676   0.749   4.530   3.746  1.2009 -0.4376 -1.2869
24174SOL    HW274677   0.881   4.578   3.801 -0.7293  0.9966  2.4041
24175SOL     OW74678   0.136   8.062   4.297  0.2593 -0.2748 -0.2765
24175SOL    HW174679   0.071   7.994   4.276 -1.3911  0.9025  0.7397
24175SOL    HW274680   0.206   8.048   4.234 -0.5719 -2.1626 -0.8715
24176SOL     OW74681   0.468   9.614   8.905  0.1950 -0.0561 -0.1295
24176SOL    HW174682   0.559   9.638   8.888 -0.2089  0.1068 -2.3619
24176SOL    HW274683   0.443   9.560   8.830 -1.5932 -0.0097  0.3864
24177SOL     OW74684   6.325   0.102   8.836  0.2887 -0.1318  0.7525
24177SOL    HW174685   6.241   0.145   8.823  0.5279  0.2843  0.5856
24177SOL    HW274686   6.317   0.058   8.920 -0.5136 -1.0692  0.2138
24178SOL     OW74687   3.884   5.437   4.070  0.5161  0.0631  0.3272
24178SOL    HW174688   3.899   5.366   4.132  0.5402  0.3890  0.6973
24178SOL    HW274689   3.869   5.393   3.986  2.5300 -0.3179  0.1329
24179SOL     OW74690   0.062   0.437   1.555 -0.4574  0.1589  0.6024
24179SOL    HW174691   0.009   0.496   1.608  0.5685  1.6400  0.0245
24179SOL    HW274692   0.151   0.451   1.585 -0.1344 -0.7349  0.1004
24180SOL     OW74693   5.138   0.611   5.561 -0.0595  0.2509  0.1208
24180SOL    HW174694   5.172   0.639   5.476 -0.0030 -1.8013 -0.6045
24180SOL    HW274695   5.093   0.688   5.596  1.4872  1.7012 -0.9089
24181SOL     OW74696   5.020   4.230   4.023 -0.2107 -0.2420  0.1840
24181SOL    HW174697   5.039   4.311   3.975 -0.3969  0.5239  1.3487
24181SOL    HW274698   4.931   4.243   4.055  0.3169 -0.2201  1.6934
24182SOL     OW74699   6.249   8.900   2.897  0.8680 -0.0572  0.0025
24182SOL    HW174700   6.278   8.809   2.890 -0.4779 -0.4725 -0.5680
24182SOL    HW274701   6.158   8.894   2.928  0.5854  1.0538 -0.5621
24183SOL     OW74702   3.402   9.557   6.937  0.1129 -0.5344 -0.1632
24183SOL    HW174703   3.355   9.598   6.865  0.9116  1.2483  0.2706
24183SOL    HW274704   3.367   9.468   6.941 -0.8274 -0.2911 -1.9363
24184SOL     OW74705   8.400   6.590   4.954 -1.1189  0.5447  0.0434
24184SOL    HW174706   8.320   6.641   4.973 -1.7910 -0.8171  1.0539
24184SOL    HW274707   8.429   6.623   4.869 -1.2712  2.9013  0.8107
24185SOL     OW74708   7.566   8.870   2.075  0.1281 -0.2938  0.2423
24185SOL    HW174709   7.529   8.828   2.152 -0.8714 -1.7383 -0.9635
24185SOL    HW274710   7.529   8.958   2.075 -2.7072 -1.3902 -0.4201
24186SOL     OW74711   2.379   6.862   5.175  0.3807  0.1555  0.1016
24186SOL    HW174712   2.335   6.868   5.260 -1.2402 -0.7956 -0.6392
24186SOL    HW274713   2.424   6.778   5.178 -1.4738 -0.9276 -0.7507
24187SOL     OW74714   7.404   5.994   6.511  0.0521  0.2893 -0.0797
24187SOL    HW174715   7.409   6.036   6.597  0.2423  0.2285 -0.0593
24187SOL    HW274716   7.496   5.981   6.486  0.0805  2.3876 -1.3266
24188SOL     OW74717   3.308   1.579   4.482  0.1449  0.9152 -0.3555
24188SOL    HW174718   3.371   1.568   4.553  0.8851  1.1600 -0.9555
24188SOL    HW274719   3.240   1.636   4.518  0.6282  1.2237  0.0799
24189SOL     OW74720   4.880   1.079   2.197 -0.3885 -0.4097 -0.3498
24189SOL    HW174721   4.971   1.074   2.169 -0.1689 -1.7219  0.5096
24189SOL    HW274722   4.837   1.131   2.129  1.1208  0.8424 -0.3982
24190SOL     OW74723   9.280   8.476   0.317 -0.0110  0.0152  0.5184
24190SOL    HW174724   9.337   8.450   0.244  2.6982 -1.0674  2.8429
24190SOL    HW274725   9.315   8.560   0.345 -1.0551  0.4332  0.6048
24191SOL     OW74726   2.394   3.234   8.790  0.4734  0.5306 -0.3027
24191SOL    HW174727   2.439   3.150   8.779 -1.0506 -0.5504  1.2809
24191SOL    HW274728   2.385   3.267   8.700 -0.7142 -2.0159 -1.2358
24192SOL     OW74729   5.893   0.821   6.536 -0.6251  0.3114 -0.0819
24192SOL    HW174730   5.881   0.905   6.491 -3.3446  0.0151 -0.0662
24192SOL    HW274731   5.930   0.844   6.621  1.0008  1.2088 -0.9677
24193SOL     OW74732   4.219   5.067   8.610  0.1165 -0.1578  0.3044
24193SOL    HW174733   4.145   5.070   8.550  1.3450 -0.3068 -1.2583
24193SOL    HW274734   4.209   5.145   8.664 -0.6890  0.2985 -0.4867
24194SOL     OW74735   1.109   8.755   4.351 -0.3604  0.5272 -0.3254
24194SOL    HW174736   1.166   8.832   4.360  0.6737 -0.2177 -0.2468
24194SOL    HW274737   1.021   8.790   4.345 -0.0443  1.6737  1.1260
24195SOL     OW74738   2.340   8.322   2.844  0.1772 -0.6591  0.2247
24195SOL    HW174739   2.370   8.394   2.900 -0.2598  0.2998 -0.7239
24195SOL    HW274740   2.250   8.347   2.821  0.8496 -0.1811 -2.1695
24196SOL     OW74741   0.219   6.355   4.960 -0.0445  0.3242 -0.3179
24196SOL    HW174742   0.196   6.418   4.892 -0.0215  0.5569 -0.1106
24196SOL    HW274743   0.271   6.405   5.023 -0.1315  0.1283 -0.0893
24197SOL     OW74744   3.371   3.011   3.270 -0.1415  0.1985 -0.0529
24197SOL    HW174745   3.414   2.988   3.352 -1.6274  2.0960  1.3407
24197SOL    HW274746   3.440   3.049   3.216  0.4000  1.2323  1.3044
24198SOL     OW74747   2.706   9.013   1.770 -0.1365  0.2022  0.1060
24198SOL    HW174748   2.733   9.057   1.689 -1.0613 -0.4050 -0.5588
24198SOL    HW274749   2.707   8.920   1.747  0.0093 -0.0017  0.9312
24199SOL     OW74750   0.678   1.453   0.098  0.3565  0.3732  0.1515
24199SOL    HW174751   0.640   1.391   0.160  0.5681 -0.4912 -0.5657
24199SOL    HW274752   0.614   1.525   0.093 -0.3449 -0.2339  0.2839
24200SOL     OW74753   7.198   9.594   4.243  0.4629 -0.0339  0.3709
24200SOL    HW174754   7.137   9.667   4.257  0.6745  0.1138  0.5196
24200SOL    HW274755   7.169   9.554   4.161  1.0568  0.9211 -0.3080
24201SOL     OW74756   4.470   6.499   6.463 -0.6435 -0.1431 -0.3304
24201SOL    HW174757   4.450   6.592   6.452  0.2034  0.0074 -0.6090
24201SOL    HW274758   4.393   6.454   6.426 -2.8494  0.4057  3.0874
24202SOL     OW74759   7.935   8.637   7.008  0.0901  0.4785  0.7286
24202SOL    HW174760   8.008   8.695   7.028  2.4281 -2.2090  0.5737
24202SOL    HW274761   7.912   8.656   6.918 -1.0834  2.9598  1.4609
24203SOL     OW74762   6.947   0.684   3.515 -0.3395  0.1869  0.0383
24203SOL    HW174763   7.024   0.720   3.560 -0.2176  0.0567 -0.0644
24203SOL    HW274764   6.873   0.706   3.572 -0.2759  0.6614 -0.0547
24204SOL     OW74765   2.667   8.739   3.321  0.1604 -0.9294  0.2959
24204SOL    HW174766   2.707   8.781   3.397  2.5104  0.1192 -1.3737
24204SOL    HW274767   2.591   8.793   3.301  0.2580 -0.4585  1.1552
24205SOL     OW74768   5.641   5.764   1.700  0.3584 -0.2150 -0.3139
24205SOL    HW174769   5.581   5.689   1.705  2.4566 -1.9604  0.8752
24205SOL    HW274770   5.663   5.770   1.608  1.0749 -1.9279 -0.3017
24206SOL     OW74771   8.105   0.247   0.924  0.2100  0.0544  0.0146
24206SOL    HW174772   8.149   0.288   0.850 -1.4793  0.1208 -0.9836
24206SOL    HW274773   8.064   0.169   0.887  0.7944 -0.8833  1.2626
24207SOL     OW74774   0.270   2.336   9.587  0.0054  0.0679  0.3826
24207SOL    HW174775   0.344   2.389   9.557  0.5832  0.7164  2.7196
24207SOL    HW274776   0.293   2.311   9.676 -1.6865 -1.5093  0.4490
24208SOL     OW74777   4.092   6.284   7.109 -0.5259  0.1109  0.2357
24208SOL    HW174778   4.099   6.346   7.036  1.1726  0.1015  0.3349
24208SOL    HW274779   4.129   6.331   7.184  2.2930 -1.4647 -0.0290
24209SOL     OW74780   7.666   7.540   2.434 -0.0005 -1.1384 -0.1754
24209SOL    HW174781   7.751   7.501   2.452  0.8469  0.3318 -0.8004
24209SOL    HW274782   7.614   7.520   2.512  1.4149 -0.7394  0.9289
24210SOL     OW74783   3.953   2.636   1.735  0.7150 -0.0362  0.4914
24210SOL    HW174784   4.046   2.613   1.736  0.8634  0.4624 -0.6486
24210SOL    HW274785   3.927   2.628   1.644 -0.4414 -0.4402  0.8434
24211SOL     OW74786   3.222   5.140   7.939 -0.5412  0.3112 -0.2573
24211SOL    HW174787   3.264   5.210   7.988  0.4896 -1.2205  1.1735
24211SOL    HW274788   3.154   5.106   7.998 -1.1920  0.2355 -1.0231
24212SOL     OW74789   0.344   8.944   3.244  0.5530 -0.3315  0.6599
24212SOL    HW174790   0.336   8.899   3.329  0.1304 -1.6303 -0.0315
24212SOL    HW274791   0.391   8.881   3.189 -0.5082 -0.1447 -0.4948
24213SOL     OW74792   0.673   2.053   4.507  0.0910  0.0794  0.1500
24213SOL    HW174793   0.640   2.015   4.425  1.2024  0.4859 -0.5230
24213SOL    HW274794   0.612   2.025   4.574 -1.5030  0.6748 -0.9996
24214SOL     OW74795   2.604   1.525   8.112 -0.2776  0.2775 -0.0014
24214SOL    HW174796   2.529   1.493   8.162  0.0939  0.3296  0.6044
24214SOL    HW274797   2.635   1.601   8.162  0.1290  0.3038 -0.2893
24215SOL     OW74798   5.876   6.924   1.457 -0.1497  0.1191 -0.1144
24215SOL    HW174799   5.876   6.864   1.532 -0.6628  1.8623  1.3414
24215SOL    HW274800   5.784   6.942   1.441 -0.0033  0.4656 -0.5881
24216SOL     OW74801   4.718   3.782   2.314  0.3618 -0.4339  0.6905
24216SOL    HW174802   4.719   3.704   2.370 -1.1054  0.6883  2.4007
24216SOL    HW274803   4.630   3.785   2.277  0.6330  0.0293  0.0550
24217SOL     OW74804   7.297   6.302   1.678 -0.1998 -0.0931 -0.7795
24217SOL    HW174805   7.346   6.350   1.745 -1.4895  1.3065 -0.7942
24217SOL    HW274806   7.257   6.229   1.725 -1.8521  1.3949  0.2243
24218SOL     OW74807   5.013   1.352   6.117 -0.2388 -0.1821 -0.1788
24218SOL    HW174808   4.995   1.344   6.023 -0.4786 -0.9171 -0.0715
24218SOL    HW274809   4.927   1.366   6.157 -0.1800 -0.2512 -0.0297
24219SOL     OW74810   6.235   8.457   0.677 -0.1831 -0.6200  0.6498
24219SOL    HW174811   6.245   8.534   0.622  1.7704 -0.8876  0.5466
24219SOL    HW274812   6.239   8.383   0.616 -2.0919 -0.8516  0.7372
24220SOL     OW74813   7.456   9.274   7.491 -0.4396  0.2542 -0.2286
24220SOL    HW174814   7.526   9.302   7.550  0.1956 -1.3412 -0.1925
24220SOL    HW274815   7.412   9.356   7.466  1.9696  1.4362 -0.9622
24221SOL     OW74816   0.921   1.863   9.477 -0.5826  0.0783 -0.3281
24221SOL    HW174817   0.837   1.909   9.466 -1.1455  0.1170  3.0392
24221SOL    HW274818   0.907   1.805   9.552  1.6798 -1.8778 -1.2863
24222SOL     OW74819   0.178   1.082   1.824  0.4434 -0.0851  0.2535
24222SOL    HW174820   0.143   1.097   1.911 -1.0582 -1.4083 -0.0880
24222SOL    HW274821   0.158   0.990   1.804  0.6460  0.2036 -1.5187
24223SOL     OW74822   2.751   0.394   4.035  0.3274 -0.3386 -0.4456
24223SOL    HW174823   2.738   0.359   4.124  0.3712  0.0278 -0.2943
24223SOL    HW274824   2.807   0.329   3.992  1.9752  0.4484  0.4188
24224SOL     OW74825   4.904   4.982   0.197 -0.3200  0.1466 -0.0004
24224SOL    HW174826   4.973   5.024   0.250 -0.0290  0.2462 -0.4555
24224SOL    HW274827   4.938   4.894   0.180 -0.4465  0.0904  0.0387
24225SOL     OW74828   4.008   2.678   3.382  0.6960 -0.4256  0.3857
24225SOL    HW174829   4.024   2.659   3.474 -2.7687 -4.1284  0.5286
24225SOL    HW274830   3.936   2.741   3.382  0.9942 -0.0837  0.2092
24226SOL     OW74831   6.510   7.169   3.642  0.4921 -0.0218  0.2959
24226SOL    HW174832   6.419   7.187   3.662 -0.6707 -2.2891 -2.3256
24226SOL    HW274833   6.517   7.073   3.647  2.4216  0.0174 -0.6263
24227SOL     OW74834   5.247   7.627   3.699 -0.0733  0.0239  0.0496
24227SOL    HW174835   5.289   7.656   3.781 -0.0919 -0.2235  0.1469
24227SOL    HW274836   5.298   7.669   3.630 -0.7025  1.0925  0.2120
24228SOL     OW74837   5.291   7.145   0.655 -0.1355  0.1048  0.0119
24228SOL    HW174838   5.235   7.105   0.720 -2.9953  1.4663 -1.4493
24228SOL    HW274839   5.261   7.108   0.571 -0.0239  2.0965 -0.9614
24229SOL     OW74840   8.505   2.641   8.654  0.2765 -0.5546 -0.2981
24229SOL    HW174841   8.578   2.629   8.594  0.5325  0.2285 -0.1557
24229SOL    HW274842   8.465   2.724   8.627 -1.6606 -1.8080 -1.5115
24230SOL     OW74843   6.894   4.789   8.954 -0.4373  0.5037  0.3022
24230SOL    HW174844   6.944   4.813   8.876 -0.9371  1.0190  0.1306
24230SOL    HW274845   6.822   4.852   8.956 -0.6292  0.2681  0.9839
24231SOL     OW74846   8.618   3.633   4.692  0.7086  0.0562  0.2148
24231SOL    HW174847   8.665   3.661   4.613  0.0218 -1.3470 -0.7348
24231SOL    HW274848   8.550   3.699   4.704 -0.3737 -0.6823 -1.5033
24232SOL     OW74849   4.134   5.000   0.547 -0.3628  0.4688  0.3570
24232SOL    HW174850   4.157   5.090   0.527 -0.3388  0.1292 -1.2687
24232SOL    HW274851   4.041   4.994   0.527  0.0137 -0.3015 -1.3525
24233SOL     OW74852   3.610   7.810   5.279  0.2714  0.6801  0.0107
24233SOL    HW174853   3.672   7.818   5.352 -0.4095  1.1444  0.5531
24233SOL    HW274854   3.524   7.805   5.322 -0.1178  0.7185 -0.7564
24234SOL     OW74855   4.824   5.762   8.937 -0.1394 -0.1919  0.0221
24234SOL    HW174856   4.774   5.815   8.875 -1.1888 -2.2745 -1.0435
24234SOL    HW274857   4.851   5.823   9.005 -1.9285  1.5347 -0.7098
24235SOL     OW74858   2.160   7.472   1.854  0.2247 -0.2506 -0.0676
24235SOL    HW174859   2.211   7.544   1.817  1.5392 -0.8767  0.4474
24235SOL    HW274860   2.164   7.487   1.949 -1.3152  0.1584 -0.0311
24236SOL     OW74861   5.903   3.857   8.962  0.1096  0.1310  0.1745
24236SOL    HW174862   5.948   3.835   9.043  0.0365  0.4087  0.2886
24236SOL    HW274863   5.880   3.772   8.924  1.1126 -0.0332 -0.1107
24237SOL     OW74864   1.015   4.238   8.508 -0.1417 -0.1584 -0.1423
24237SOL    HW174865   0.934   4.283   8.483  1.3516  1.9305 -1.5816
24237SOL    HW274866   1.032   4.176   8.438 -0.8490 -1.1528  0.5421
24238SOL     OW74867   6.753   8.383   4.157  0.1764  0.1177 -0.1520
24238SOL    HW174868   6.838   8.410   4.189  2.1463 -2.7236 -2.4303
24238SOL    HW274869   6.750   8.413   4.066 -1.4048  0.3704 -0.0596
24239SOL     OW74870   6.128   5.107   5.895  0.3071 -0.0821  0.1965
24239SOL    HW174871   6.215   5.078   5.922 -0.4206 -1.5910  1.0118
24239SOL    HW274872   6.139   5.135   5.804  1.8949  0.9529  0.6645
24240SOL     OW74873   1.250   9.543   8.266  0.2127 -0.1132  0.2054
24240SOL    HW174874   1.191   9.542   8.342  2.3174  1.4379  1.9652
24240SOL    HW274875   1.193   9.519   8.192 -1.8729 -1.9954  2.2430
24241SOL     OW74876   1.215   3.720   9.555  0.2400 -0.0627 -0.2743
24241SOL    HW174877   1.127   3.686   9.539 -0.0989  0.4565  0.4333
24241SOL    HW274878   1.216   3.741   9.649  0.5422  1.5474 -0.6082
24242SOL     OW74879   3.562   6.824   8.310  0.0872 -0.1325  0.2236
24242SOL    HW174880   3.492   6.854   8.251 -2.8227 -1.2049  2.8487
24242SOL    HW274881   3.611   6.761   8.257 -0.9294  0.6149 -1.7391
24243SOL     OW74882   1.182   0.918   0.887  0.3312 -0.3860 -0.0695
24243SOL    HW174883   1.231   0.877   0.816  0.5964  0.7483 -0.5749
24243SOL    HW274884   1.239   0.911   0.963  0.8369 -0.0042 -0.4071
24244SOL     OW74885   5.991   8.703   7.487 -0.6323 -0.4572 -0.6233
24244SOL    HW174886   6.028   8.729   7.572  0.4785 -2.8257 -0.3043
24244SOL    HW274887   5.995   8.783   7.434  0.5444  0.5836  0.9235
24245SOL     OW74888   3.681   3.773   9.067 -0.0158 -0.2663 -0.0879
24245SOL    HW174889   3.696   3.852   9.015 -0.0967  0.6434  1.2231
24245SOL    HW274890   3.686   3.802   9.158  0.8310 -1.9390  0.4534
24246SOL     OW74891   4.257   1.623   7.500 -0.0740 -0.1154  0.2651
24246SOL    HW174892   4.315   1.642   7.426  0.4890 -0.0023  0.7277
24246SOL    HW274893   4.187   1.570   7.462 -0.2959  0.7178 -0.5269
24247SOL     OW74894   8.348   9.191   7.742  0.2653 -0.1984 -0.1043
24247SOL    HW174895   8.395   9.198   7.659 -0.1238 -2.0803 -0.5376
24247SOL    HW274896   8.328   9.097   7.750 -0.8019  0.1290  1.5039
24248SOL     OW74897   6.153   8.703   9.472 -0.0350  0.6459 -0.0201
24248SOL    HW174898   6.139   8.612   9.446 -1.7685  0.0593  2.5573
24248SOL    HW274899   6.065   8.742   9.472  0.4149  1.7305  0.8414
24249SOL     OW74900   3.754   4.579   3.051 -0.1818  0.3372  0.1153
24249SOL    HW174901   3.813   4.505   3.065 -0.7452 -0.3992 -1.1881
24249SOL    HW274902   3.741   4.617   3.138  1.5282  0.0094  0.5547
24250SOL     OW74903   1.210   9.019   4.654  0.4495  0.4928 -0.5905
24250SOL    HW174904   1.156   9.073   4.712 -0.7049  0.1836 -1.3451
24250SOL    HW274905   1.268   9.082   4.611  0.0581  0.9665 -0.4450
24251SOL     OW74906   0.828   4.127   7.848 -0.3711  0.6711 -0.5780
24251SOL    HW174907   0.836   4.032   7.862 -1.0778  0.7694  0.5996
24251SOL    HW274908   0.796   4.136   7.759  0.3261 -0.1714 -0.9265
24252SOL     OW74909   5.373   1.338   5.112 -0.2306  0.2238  0.8177
24252SOL    HW174910   5.428   1.401   5.065 -1.5374  0.0489 -1.0682
24252SOL    HW274911   5.288   1.381   5.119 -0.3710 -0.2189  2.0689
24253SOL     OW74912   9.631   1.674   4.080 -0.3544 -0.1353  0.6901
24253SOL    HW174913   9.666   1.709   4.163 -1.0291  1.3853  0.3620
24253SOL    HW274914   9.641   1.746   4.018  1.8769 -1.8485 -1.0988
24254SOL     OW74915   1.355   8.411   1.247 -0.3940  0.3295  0.0111
24254SOL    HW174916   1.313   8.472   1.309  0.5691  0.4930  0.5325
24254SOL    HW274917   1.440   8.393   1.287  0.1494  0.2457 -1.1671
24255SOL     OW74918   6.000   7.745   4.353  0.2837 -0.3829 -0.1584
24255SOL    HW174919   6.032   7.791   4.275  0.7324 -0.1099  0.1780
24255SOL    HW274920   6.080   7.725   4.402  0.1073 -1.6057 -0.3385
24256SOL     OW74921   7.503   0.539   0.541  1.3683  0.2526 -0.1579
24256SOL    HW174922   7.478   0.600   0.472  0.8814  1.3601  0.9657
24256SOL    HW274923   7.583   0.576   0.578 -0.2577  1.7346  2.2225
24257SOL     OW74924   8.063   4.244   3.308 -0.4194 -0.4273  0.1586
24257SOL    HW174925   8.082   4.337   3.320 -1.8573 -0.1786  0.6274
24257SOL    HW274926   8.006   4.221   3.381 -1.0019 -1.3970 -0.5810
24258SOL     OW74927   9.298   0.118   4.081 -0.6475  0.2476  0.3733
24258SOL    HW174928   9.299   0.213   4.069 -0.0271  0.3729  1.3647
24258SOL    HW274929   9.382   0.097   4.121 -1.8114 -0.3808  2.6332
24259SOL     OW74930   9.191   5.800   1.323  0.2357  0.1108 -0.0075
24259SOL    HW174931   9.241   5.743   1.380  0.9913 -0.2884 -1.0416
24259SOL    HW274932   9.240   5.802   1.241  0.2054  2.1862 -0.0418
24260SOL     OW74933   9.354   1.243   2.333 -0.4341 -0.3382 -0.6300
24260SOL    HW174934   9.296   1.199   2.396 -1.2497 -0.5248 -1.4920
24260SOL    HW274935   9.430   1.186   2.327  0.0871  0.1304  0.8596
24261SOL     OW74936   7.283   2.272   1.214  0.6358 -0.6239  0.1580
24261SOL    HW174937   7.237   2.192   1.241  2.3852 -1.6168  0.4049
24261SOL    HW274938   7.375   2.254   1.234  0.8878  2.2834  2.2527
24262SOL     OW74939   0.779   0.347   3.514  0.2038  0.3086  0.0489
24262SOL    HW174940   0.735   0.397   3.583 -1.4208 -2.6214  1.3144
24262SOL    HW274941   0.844   0.295   3.561 -0.1726 -0.9154 -0.7508
24263SOL     OW74942   6.605   2.203   6.339  0.8306  0.5354  0.5660
24263SOL    HW174943   6.662   2.154   6.280  1.7164  1.3786  0.7075
24263SOL    HW274944   6.519   2.199   6.298  1.5975  1.8992 -1.3189
24264SOL     OW74945   3.446   9.068   1.540  0.3222 -0.2452  0.7821
24264SOL    HW174946   3.501   8.990   1.533  0.1808 -0.3211  0.5179
24264SOL    HW274947   3.504   9.141   1.519 -0.2292 -0.4959 -1.9325
24265SOL     OW74948   8.077   4.290   4.767  0.0409 -0.2553  0.3447
24265SOL    HW174949   8.151   4.258   4.714  0.3580  0.9810  0.0229
24265SOL    HW274950   8.003   4.290   4.707  0.2119  0.3413  0.1331
24266SOL     OW74951   6.535   5.095   7.726  0.4162  0.1128 -0.1448
24266SOL    HW174952   6.444   5.085   7.700  0.9509 -1.0789 -1.7096
24266SOL    HW274953   6.585   5.068   7.649  2.1002 -0.1677  0.9933
24267SOL     OW74954   8.475   3.806   6.639  0.0752 -0.1081 -0.1515
24267SOL    HW174955   8.568   3.832   6.639 -0.2802  1.4030  1.8275
24267SOL    HW274956   8.441   3.838   6.556  1.2394 -0.3134 -0.7225
24268SOL     OW74957   4.155   0.848   1.371  0.2086  0.4299  0.0982
24268SOL    HW174958   4.067   0.812   1.372  1.4029 -2.8512 -0.9803
24268SOL    HW274959   4.176   0.864   1.463 -1.2863  0.7744  0.3960
24269SOL     OW74960   0.179   9.567   8.349 -0.0918 -0.4259 -0.0579
24269SOL    HW174961   0.150   9.477   8.339  0.1457 -0.6107  0.8883
24269SOL    HW274962   0.274   9.561   8.360  0.2080  0.0966 -1.9975
24270SOL     OW74963   7.991   4.540   0.225  0.7305 -0.8464  0.6671
24270SOL    HW174964   7.983   4.491   0.306  1.1465 -0.3999  0.9872
24270SOL    HW274965   7.915   4.599   0.225  2.3582  1.4554  2.3571
24271SOL     OW74966   6.627   9.093   7.157  0.4977  0.7421 -0.2908
24271SOL    HW174967   6.673   9.090   7.240  0.4648  0.4570 -0.2827
24271SOL    HW274968   6.598   9.184   7.149  1.5383  1.0639 -0.5602
24272SOL     OW74969   0.492   4.905   8.212 -0.3918  0.0079 -0.5415
24272SOL    HW174970   0.569   4.858   8.244 -0.0611 -0.3996 -1.8571
24272SOL    HW274971   0.424   4.888   8.278  0.1184 -1.1744 -0.3010
24273SOL     OW74972   3.132   0.688   3.606  1.1200 -0.1840  0.6444
24273SOL    HW174973   3.197   0.752   3.577  1.1782 -0.2640  0.5969
24273SOL    HW274974   3.179   0.630   3.665  1.2921 -0.7119  0.0073
24274SOL     OW74975   7.230   6.167   2.329  0.1460 -0.0020 -0.0264
24274SOL    HW174976   7.158   6.187   2.269 -0.3857  2.3171  1.2937
24274SOL    HW274977   7.304   6.148   2.271 -0.6639  0.8705 -1.4146
24275SOL     OW74978   7.749   1.553   5.398 -0.3336  0.4000  0.3762
24275SOL    HW174979   7.662   1.545   5.357 -0.7250  0.9154  1.0846
24275SOL    HW274980   7.751   1.642   5.432  1.0874  0.9311 -0.9609
24276SOL     OW74981   3.704   7.923   4.701 -0.3650 -0.2271  0.5062
24276SOL    HW174982   3.773   7.943   4.763 -1.7607  1.4788  1.6118
24276SOL    HW274983   3.629   7.976   4.730 -2.4007 -2.5314 -0.1630
24277SOL     OW74984   0.504   5.000   3.489 -0.6453 -0.0615  0.0433
24277SOL    HW174985   0.464   5.035   3.409 -2.7291 -0.1402  0.9929
24277SOL    HW274986   0.526   5.078   3.540  2.0666  0.0624 -1.1435
24278SOL     OW74987   2.830   2.462   1.614  0.2754  0.4504  0.3881
24278SOL    HW174988   2.894   2.496   1.677  0.7274 -0.0400  0.2027
24278SOL    HW274989   2.777   2.538   1.590 -0.6828  0.4368  2.2443
24279SOL     OW74990   5.630   1.463   3.297 -0.2905  0.3744  0.3759
24279SOL    HW174991   5.549   1.458   3.246  0.9271 -2.9002 -1.5149
24279SOL    HW274992   5.692   1.507   3.239  0.1582 -0.1085  0.4922
24280SOL     OW74993   9.342   3.531   9.376 -0.1317  0.2225 -0.1833
24280SOL    HW174994   9.257   3.488   9.380  1.1201 -2.3755  0.5752
24280SOL    HW274995   9.375   3.530   9.466  0.5631  1.5231 -0.3928
24281SOL     OW74996   0.500   8.747   3.720  0.3055 -0.0940 -0.1747
24281SOL    HW174997   0.467   8.803   3.650 -0.5786  0.6903  0.8244
24281SOL    HW274998   0.430   8.683   3.734 -2.0170  2.7813  3.3220
24282SOL     OW74999   7.570   4.276   6.802 -0.0078 -0.1144 -0.0501
24282SOL    HW175000   7.564   4.192   6.758 -3.6937 -0.1540  0.2598
24282SOL    HW275001   7.600   4.255   6.891  0.2748 -0.9072 -0.3255
24283SOL     OW75002   3.446   7.205   4.418  0.1596  0.2738  0.2683
24283SOL    HW175003   3.402   7.120   4.412  1.0413 -0.2695  1.2200
24283SOL    HW275004   3.487   7.205   4.505 -2.2884  2.8891  1.5891
24284SOL     OW75005   4.925   6.762   5.779  0.0600 -0.1618 -0.4143
24284SOL    HW175006   4.991   6.791   5.843 -1.3172  0.8226  0.6168
24284SOL    HW275007   4.952   6.674   5.755  1.0169 -0.2871  1.0026
24285SOL     OW75008   4.677   2.189   6.974  0.4397 -0.0874 -0.0214
24285SOL    HW175009   4.704   2.261   7.031 -1.9768 -0.0678  1.2545
24285SOL    HW275010   4.637   2.233   6.898 -1.5750  0.0235  1.0295
24286SOL     OW75011   6.398   2.759   7.092 -0.5097  0.1121  0.0735
24286SOL    HW175012   6.460   2.831   7.086 -0.9209  0.4774  0.1148
24286SOL    HW275013   6.355   2.771   7.176 -0.7847 -0.0125 -0.0477
24287SOL     OW75014   7.943   2.294   5.176 -0.3343  0.3275  0.2126
24287SOL    HW175015   7.990   2.262   5.098 -2.4049 -0.7109 -0.6703
24287SOL    HW275016   8.011   2.336   5.228  1.1931  0.8475 -2.0220
24288SOL     OW75017   2.391   3.103   2.066 -0.0474 -0.3716 -0.2784
24288SOL    HW175018   2.319   3.149   2.109  0.0794 -2.1626  2.0064
24288SOL    HW275019   2.359   3.014   2.054  0.2433 -0.1891 -3.3183
24289SOL     OW75020   6.006   2.833   0.252  0.2162 -0.5223  0.3689
24289SOL    HW175021   6.036   2.791   0.172  0.2425 -0.1615  0.1894
24289SOL    HW275022   5.913   2.812   0.258 -0.4719  1.6981 -1.2035
24290SOL     OW75023   6.060   6.733   6.650 -0.2267  0.0008  0.7137
24290SOL    HW175024   5.991   6.667   6.642  1.4145 -2.2001  2.8173
24290SOL    HW275025   6.063   6.752   6.744  0.8099  1.4348  0.4172
24291SOL     OW75026   8.458   9.565   8.525  0.0313  0.3772  0.5913
24291SOL    HW175027   8.384   9.527   8.573 -0.1799 -0.1268 -0.1169
24291SOL    HW275028   8.531   9.505   8.543  0.4945  1.2676  1.8931
24292SOL     OW75029   0.518   4.738   4.201 -0.4415  0.3807  0.3268
24292SOL    HW175030   0.583   4.676   4.233  0.3663  1.1832  0.2772
24292SOL    HW275031   0.548   4.761   4.113 -0.8294  0.7043  0.2774
24293SOL     OW75032   5.503   5.419   5.639  0.2515  0.1088 -0.0534
24293SOL    HW175033   5.440   5.428   5.711  1.3138 -0.7444  1.0289
24293SOL    HW275034   5.589   5.425   5.681  0.9134 -1.2261 -1.1213
24294SOL     OW75035   8.456   8.756   2.542  0.4070  0.8416 -0.4183
24294SOL    HW175036   8.518   8.812   2.590 -0.6270  0.9296  0.8805
24294SOL    HW275037   8.370   8.793   2.564 -0.1231  0.6254 -2.0560
24295SOL     OW75038   4.898   3.962   2.404 -0.5701  0.5102  0.4468
24295SOL    HW175039   4.860   3.887   2.358 -2.0658  0.8739  1.0507
24295SOL    HW275040   4.985   3.933   2.430  0.1558  0.0962 -2.1224
24296SOL     OW75041   4.100   8.183   6.534  0.1557 -0.5041  0.2588
24296SOL    HW175042   4.068   8.239   6.605  1.0141  0.5257 -0.1448
24296SOL    HW275043   4.065   8.222   6.454 -1.8316 -2.3595  0.1348
24297SOL     OW75044   7.453   5.599   6.948 -0.7395  0.4252  0.0043
24297SOL    HW175045   7.396   5.671   6.974 -0.6199  0.2277  0.8264
24297SOL    HW275046   7.393   5.528   6.925 -0.8395  0.3903  0.3652
24298SOL     OW75047   0.395   6.085   1.572  0.4936 -0.3973  0.2185
24298SOL    HW175048   0.389   6.012   1.511 -0.6082 -1.2437  1.3191
24298SOL    HW275049   0.487   6.085   1.600  1.3585  0.7679 -2.2988
24299SOL     OW75050   7.598   4.739   8.177  1.0324 -0.6288 -0.0732
24299SOL    HW175051   7.551   4.803   8.122 -0.2570 -0.2450  1.4125
24299SOL    HW275052   7.541   4.662   8.179  0.7644 -0.4219  1.1708
24300SOL     OW75053   7.539   9.333   8.139  0.1334 -0.2376  0.4830
24300SOL    HW175054   7.473   9.400   8.159  1.8630  2.0701 -0.9255
24300SOL    HW275055   7.520   9.308   8.048  0.0838 -0.9262  0.6841
24301SOL     OW75056   2.381   9.111   0.671  0.1586 -0.2995  0.0751
24301SOL    HW175057   2.368   9.198   0.631 -0.0247 -0.4544 -0.2044
24301SOL    HW275058   2.298   9.092   0.715  0.7445  0.3789  1.5342
24302SOL     OW75059   4.844   7.605   1.420  0.0919  0.3957 -0.0687
24302SOL    HW175060   4.815   7.532   1.473  2.1579  0.3880  1.1851
24302SOL    HW275061   4.891   7.565   1.347  0.0293  0.4343 -0.1296
24303SOL     OW75062   6.111   2.780   9.541  0.0496 -0.0906  0.2596
24303SOL    HW175063   6.143   2.763   9.452  0.0183 -0.6122  0.3408
24303SOL    HW275064   6.065   2.699   9.565  0.6036 -0.1936  0.9906
24304SOL     OW75065   4.877   3.880   6.817 -0.8731  0.1464  0.4662
24304SOL    HW175066   4.827   3.824   6.876 -0.5051 -0.1489  0.4978
24304SOL    HW275067   4.950   3.826   6.787 -0.6833  0.5083  0.2601
24305SOL     OW75068   7.702   1.861   5.802 -0.0723 -0.4041 -0.3831
24305SOL    HW175069   7.715   1.777   5.758 -4.3452 -1.6620  0.2563
24305SOL    HW275070   7.638   1.906   5.747  0.1063  1.2823  0.7212
24306SOL     OW75071   2.843   6.345   6.398 -0.3992 -0.7170  0.0326
24306SOL    HW175072   2.846   6.419   6.459 -0.8885 -0.8820  0.2631
24306SOL    HW275073   2.895   6.277   6.441  0.2972 -0.4136 -0.3150
24307SOL     OW75074   2.956   5.881   1.832  0.8241  0.3701 -0.0457
24307SOL    HW175075   3.002   5.869   1.749 -0.9991 -0.2241 -1.0220
24307SOL    HW275076   2.897   5.955   1.816  2.3595  2.0527  1.6230
24308SOL     OW75077   5.403   0.647   3.990 -0.9190 -0.2772 -0.2875
24308SOL    HW175078   5.310   0.639   4.009 -0.7129  1.3737  1.7684
24308SOL    HW275079   5.410   0.722   3.932 -0.6488  2.6682  3.1977
24309SOL     OW75080   3.553   9.560   7.910 -0.4775  0.0192 -0.1508
24309SOL    HW175081   3.464   9.536   7.935 -1.0318  0.9010 -1.1708
24309SOL    HW275082   3.570   9.509   7.831 -0.8794  1.3586 -1.1371
24310SOL     OW75083   6.090   8.245   8.553 -0.3691  0.0397  0.1069
24310SOL    HW175084   6.073   8.327   8.506  0.8120  0.2105 -0.0522
24310SOL    HW275085   6.169   8.262   8.603 -1.2143 -0.3802  1.6331
24311SOL     OW75086   7.870   6.146   0.942  0.3058 -0.1654 -0.1116
24311SOL    HW175087   7.873   6.109   0.853 -2.8633 -0.1744 -0.3335
24311SOL    HW275088   7.872   6.241   0.928 -1.0861 -0.1442 -0.3172
24312SOL     OW75089   7.729   8.483   1.049 -0.5702  0.2852 -0.5223
24312SOL    HW175090   7.653   8.436   1.015 -2.6704  0.9019  2.7953
24312SOL    HW275091   7.697   8.572   1.063  2.1100  1.7782 -2.8333
24313SOL     OW75092   3.886   2.992   3.434 -0.4579 -0.5896  0.3384
24313SOL    HW175093   3.859   3.065   3.490 -0.4409 -0.5735  0.3257
24313SOL    HW275094   3.981   3.002   3.428 -0.6284  0.4242 -1.1033
24314SOL     OW75095   1.158   0.241   0.413  0.5075 -0.3450  0.2918
24314SOL    HW175096   1.205   0.248   0.329  0.3665  0.5862  0.2822
24314SOL    HW275097   1.215   0.188   0.468  1.9243  1.3240  0.5092
24315SOL     OW75098   2.993   8.287   3.213 -0.2351  0.3839 -0.5856
24315SOL    HW175099   3.067   8.232   3.189  0.2387  1.7429 -2.5086
24315SOL    HW275100   3.028   8.347   3.280  0.1558  0.4272 -0.8257
24316SOL     OW75101   6.007   2.580   7.182  0.1141  0.0105 -0.8836
24316SOL    HW175102   6.016   2.487   7.159  0.2989 -0.0201 -0.6896
24316SOL    HW275103   5.926   2.584   7.234 -0.1637  0.0388 -1.3107
24317SOL     OW75104   0.172   8.401   2.330 -0.5510 -0.2440  0.3594
24317SOL    HW175105   0.135   8.405   2.241 -2.1107  0.9242  1.0139
24317SOL    HW275106   0.159   8.309   2.356 -2.0346 -0.1336  0.1278
24318SOL     OW75107   8.948   9.374   6.822  0.2411  0.0273  0.3151
24318SOL    HW175108   9.004   9.296   6.821 -0.3833 -0.4300 -0.1525
24318SOL    HW275109   8.882   9.356   6.755 -1.2413 -0.0179  1.7466
24319SOL     OW75110   7.424   7.147   1.893 -0.1853 -0.6309 -0.3409
24319SOL    HW175111   7.516   7.152   1.921 -0.0769 -1.6999 -0.4700
24319SOL    HW275112   7.380   7.217   1.942  0.3070 -1.4039  1.2898
24320SOL     OW75113   8.223   3.557   0.498 -0.5048  0.8912 -0.1239
24320SOL    HW175114   8.246   3.469   0.526 -0.2514  0.9538 -0.1372
24320SOL    HW275115   8.304   3.594   0.463 -0.8170  0.8058 -0.9651
24321SOL     OW75116   1.602   4.907   6.989  0.0527 -0.3810 -0.5815
24321SOL    HW175117   1.612   4.961   7.068 -0.5342 -3.1083  1.5008
24321SOL    HW275118   1.526   4.852   7.008 -0.4876 -0.7358 -3.3655
24322SOL     OW75119   6.673   0.395   9.513  0.2951 -0.5556 -0.2230
24322SOL    HW175120   6.601   0.335   9.534  0.2847 -0.0804  1.2032
24322SOL    HW275121   6.748   0.359   9.560 -0.0664  1.3435  1.9718
24323SOL     OW75122   3.998   4.457   0.974 -0.0006  0.3979 -0.5781
24323SOL    HW175123   4.031   4.546   0.990  0.4550 -0.2117  2.4739
24323SOL    HW275124   4.070   4.413   0.929  2.1572  0.1328  2.7752
24324SOL     OW75125   1.456   7.590   2.746 -0.5309  0.0416  0.4534
24324SOL    HW175126   1.501   7.528   2.803 -0.4687 -0.5955 -0.2597
24324SOL    HW275127   1.489   7.676   2.772  0.4173 -0.3392  0.5455
24325SOL     OW75128   0.888   8.901   6.975  0.0254  0.4135 -0.1949
24325SOL    HW175129   0.974   8.943   6.981  0.6664 -0.8809  0.1318
24325SOL    HW275130   0.889   8.858   6.889 -0.1011 -0.0113  0.0147
24326SOL     OW75131   4.064   4.972   9.590  0.4020 -0.4846  0.5352
24326SOL    HW175132   4.091   5.046   9.536  0.3799 -0.6320  0.3215
24326SOL    HW275133   4.140   4.953   9.645  0.5032 -0.4825  0.3949
24327SOL     OW75134   6.590   9.380   2.105 -0.3956  0.3347 -0.0227
24327SOL    HW175135   6.620   9.455   2.054  1.2657 -0.4580 -0.2894
24327SOL    HW275136   6.637   9.387   2.188 -2.4738  1.1708  1.1549
24328SOL     OW75137   4.561   0.570   3.711  0.0704  0.4949 -0.7750
24328SOL    HW175138   4.639   0.548   3.762 -0.8175  0.6382  0.7133
24328SOL    HW275139   4.585   0.649   3.662  0.6929  0.8481  0.0789
24329SOL     OW75140   0.924   5.884   0.069 -0.3504  0.0192 -0.1968
24329SOL    HW175141   0.913   5.842   0.155  1.3255 -0.6573 -0.2721
24329SOL    HW275142   0.863   5.838   0.012  0.2173 -1.1752  0.1182
24330SOL     OW75143   1.874   0.865   6.910  0.5496 -0.0322 -0.1868
24330SOL    HW175144   1.904   0.956   6.909  0.5408 -0.0234 -1.8303
24330SOL    HW275145   1.934   0.820   6.969  0.1536  1.1496  1.1825
24331SOL     OW75146   4.945   6.186   5.579 -0.2011 -0.3299  0.2304
24331SOL    HW175147   4.981   6.130   5.648 -1.5877 -0.9690  0.4596
24331SOL    HW275148   4.850   6.181   5.590 -0.4222  0.3447 -1.1144
24332SOL     OW75149   9.192   8.773   2.408  0.4174 -0.2756  0.4546
24332SOL    HW175150   9.142   8.853   2.392  0.7560 -0.1253  0.1208
24332SOL    HW275151   9.151   8.707   2.353 -0.3957 -0.5559  1.3626
24333SOL     OW75152   2.035   0.122   0.430 -0.4062 -0.0562  0.2357
24333SOL    HW175153   1.988   0.039   0.432  0.6102 -0.7257 -1.7919
24333SOL    HW275154   2.080   0.123   0.346  0.9991  1.7908  0.9350
24334SOL     OW75155   5.078   5.707   3.067  0.2164  0.1486  0.7052
24334SOL    HW175156   5.042   5.796   3.076  0.8174  0.5734 -0.7170
24334SOL    HW275157   5.094   5.679   3.157  0.6817  1.7722  1.1762
24335SOL     OW75158   6.522   0.471   4.504  0.2245  0.0645 -0.1383
24335SOL    HW175159   6.588   0.402   4.493 -0.8121 -0.8369 -0.9347
24335SOL    HW275160   6.561   0.548   4.462  0.2554 -0.8158 -1.8256
24336SOL     OW75161   0.959   8.105   2.881  0.0160 -0.3098  0.0532
24336SOL    HW175162   0.972   8.152   2.799  0.5391  1.1726  0.9250
24336SOL    HW275163   1.012   8.026   2.873 -0.4028 -0.4707 -1.2395
24337SOL     OW75164   8.208   1.776   7.113  0.6327  0.0577  0.4577
24337SOL    HW175165   8.192   1.775   7.019  0.2816  1.7945  0.4713
24337SOL    HW275166   8.124   1.802   7.151  1.0712  0.4548  1.1702
24338SOL     OW75167   0.032   7.224   2.806 -0.7486  0.3305 -0.1798
24338SOL    HW175168   0.100   7.200   2.869 -0.7721 -0.2942 -0.3932
24338SOL    HW275169  -0.050   7.198   2.848 -1.0097  2.4006  0.7231
24339SOL     OW75170   0.506   9.138   4.432  0.1709 -0.4354  0.0071
24339SOL    HW175171   0.485   9.195   4.358  3.9239  1.0220 -0.1583
24339SOL    HW275172   0.573   9.078   4.398  0.2817 -1.2988  1.6338
24340SOL     OW75173   1.535   1.890   8.872  0.2861  0.4401 -0.5193
24340SOL    HW175174   1.548   1.854   8.785  1.2133  0.3131 -0.3306
24340SOL    HW275175   1.546   1.985   8.861 -2.4464  0.7976 -1.0764
24341SOL     OW75176   3.794   8.853   9.589  0.0444 -0.0814 -0.6273
24341SOL    HW175177   3.764   8.917   9.525  2.3100 -1.4939 -3.3574
24341SOL    HW275178   3.887   8.874   9.602  0.0408 -0.8723  0.9788
24342SOL     OW75179   0.256   6.927   7.532  0.5168  0.2180  0.6967
24342SOL    HW175180   0.205   6.983   7.590 -0.5053  1.2440 -1.0986
24342SOL    HW275181   0.194   6.861   7.501  0.6254  0.5551 -0.3051
24343SOL     OW75182   2.958   5.185   6.331  0.7051  0.0841 -0.1497
24343SOL    HW175183   2.954   5.159   6.239  3.9197  0.3356 -0.4988
24343SOL    HW275184   3.048   5.164   6.357 -0.1522 -0.1588  3.0278
24344SOL     OW75185   1.982   9.623   4.263  0.3703  0.6237 -0.2690
24344SOL    HW175186   1.899   9.670   4.252 -0.2209 -0.4175 -0.3754
24344SOL    HW275187   2.047   9.692   4.275 -0.5141  1.4606 -0.1500
24345SOL     OW75188   5.938   7.505   7.028  0.2299 -0.2264 -0.0351
24345SOL    HW175189   5.868   7.532   7.087  1.0865 -0.0895  0.9491
24345SOL    HW275190   5.910   7.419   6.995 -1.8956  1.1450 -2.1768
24346SOL     OW75191   5.745   1.752   3.195  0.2061  0.1491  0.2839
24346SOL    HW175192   5.775   1.834   3.155  0.4174  0.3155  0.7762
24346SOL    HW275193   5.680   1.718   3.134 -1.5721  1.8199  1.1493
24347SOL     OW75194   1.424   6.136   0.821 -0.1267  0.6156  0.2535
24347SOL    HW175195   1.508   6.137   0.776 -0.2541  0.8489  0.0193
24347SOL    HW275196   1.385   6.221   0.801 -1.5535 -0.4363 -1.7890
24348SOL     OW75197   3.218   0.488   7.205 -0.6222  0.2580 -0.2978
24348SOL    HW175198   3.140   0.521   7.249  0.1704  0.2367  1.1729
24348SOL    HW275199   3.215   0.393   7.217 -0.0169  0.3189  0.3783
24349SOL     OW75200   8.911   9.144   0.981 -0.0387  0.5560  0.2231
24349SOL    HW175201   8.868   9.211   1.035 -2.4288 -1.3261  0.8223
24349SOL    HW275202   8.888   9.168   0.892 -2.6495 -0.4772  0.5343
24350SOL     OW75203   8.979   3.689   9.395 -0.4265  0.3033 -0.2926
24350SOL    HW175204   8.891   3.696   9.359 -1.5233  1.7778  2.3934
24350SOL    HW275205   9.033   3.743   9.337 -1.6899  1.0242 -0.8262
24351SOL     OW75206   7.734   8.460   3.799  0.6105  0.0074  0.3956
24351SOL    HW175207   7.667   8.429   3.738  1.9935 -1.0399 -0.6797
24351SOL    HW275208   7.739   8.554   3.784  0.0750 -0.0559 -0.2340
24352SOL     OW75209   8.046   7.087   0.393 -0.0968 -0.0934 -0.4153
24352SOL    HW175210   7.990   7.114   0.321  1.4275  1.1700 -1.1713
24352SOL    HW275211   8.063   7.167   0.442 -3.7202 -1.2873  3.4371
24353SOL     OW75212   3.555   7.282   8.334 -0.2854 -0.5247  0.3297
24353SOL    HW175213   3.609   7.314   8.406 -0.8106  0.1309  0.4328
24353SOL    HW275214   3.546   7.357   8.276 -0.6757 -0.7782  0.0629
24354SOL     OW75215   5.008   0.800   7.057  0.0626 -0.1142 -0.5145
24354SOL    HW175216   4.997   0.895   7.056 -1.1471 -0.2412 -2.5677
24354SOL    HW275217   5.000   0.777   7.150  1.5594  1.8737  0.1885
24355SOL     OW75218   0.589   2.196   3.034 -0.1347  0.9235  0.0790
24355SOL    HW175219   0.565   2.171   3.123  0.3366  3.4711  1.0343
24355SOL    HW275220   0.553   2.127   2.978 -0.7834 -0.5471  2.1959
24356SOL     OW75221   0.796   7.901   4.771  0.5246 -0.1238 -0.0387
24356SOL    HW175222   0.890   7.903   4.791  0.4781 -0.6501  0.2406
24356SOL    HW275223   0.774   7.993   4.755  1.1136 -0.0116 -0.2375
24357SOL     OW75224   0.759   7.573   1.269 -0.1443 -0.1886  0.6022
24357SOL    HW175225   0.814   7.514   1.218  0.6613  0.8637  0.2089
24357SOL    HW275226   0.792   7.660   1.248 -1.4671  0.4280  0.9697
24358SOL     OW75227   6.797   3.336   6.539  0.1132  1.5646 -0.7219
24358SOL    HW175228   6.794   3.297   6.452 -1.1041  0.6195 -0.2913
24358SOL    HW275229   6.750   3.274   6.595  4.7830 -0.2782  1.6306
24359SOL     OW75230   7.859   5.755   8.269 -0.1816 -0.0863 -0.4651
24359SOL    HW175231   7.819   5.761   8.183 -2.0905  0.3038  0.3838
24359SOL    HW275232   7.883   5.845   8.291  1.7375 -0.3872 -1.1868
24360SOL     OW75233   6.245   2.717   0.909 -0.1841 -0.1975  0.3592
24360SOL    HW175234   6.156   2.682   0.921 -0.0486 -0.2890  1.1263
24360SOL    HW275235   6.297   2.673   0.976  0.1810  0.7842  0.7392
24361SOL     OW75236   8.439   1.740   3.511 -0.1706 -0.6996  0.2515
24361SOL    HW175237   8.373   1.736   3.580 -0.0848 -2.1058  0.2758
24361SOL    HW275238   8.456   1.649   3.488 -0.2156 -0.2732 -1.6564
24362SOL     OW75239   1.000   8.580   8.631 -0.2836 -0.6008 -0.0644
24362SOL    HW175240   1.088   8.600   8.598  0.0678  0.2036  1.2876
24362SOL    HW275241   0.945   8.650   8.596 -0.3555 -0.9837 -0.7325
24363SOL     OW75242   8.460   8.658   1.783 -0.8419  0.1624 -0.1359
24363SOL    HW175243   8.553   8.656   1.806 -0.5015  0.0705 -1.4503
24363SOL    HW275244   8.426   8.573   1.813 -0.9268  0.8712  1.9150
24364SOL     OW75245   4.988   5.773   8.290 -0.2619  0.1666  0.0394
24364SOL    HW175246   4.995   5.786   8.195  0.8886 -0.7898 -0.0437
24364SOL    HW275247   4.968   5.860   8.325  1.0282  0.8985 -0.9375
24365SOL     OW75248   5.072   0.978   8.147  0.3485 -0.0113  0.0001
24365SOL    HW175249   5.091   0.906   8.207 -0.3834  0.3285  0.6564
24365SOL    HW275250   5.076   0.938   8.060 -1.1261 -1.1253  0.3924
24366SOL     OW75251   7.551   8.286   1.637  0.0163 -0.0137  0.2052
24366SOL    HW175252   7.544   8.379   1.657  0.9449  0.6504 -2.2745
24366SOL    HW275253   7.471   8.247   1.674 -0.8576  1.8950  0.4274
24367SOL     OW75254   5.230   4.485   6.185 -0.5755 -0.4319 -0.1360
24367SOL    HW175255   5.184   4.568   6.195  1.3123  0.7028 -0.3624
24367SOL    HW275256   5.161   4.418   6.189 -2.0012  1.0253  1.6127
24368SOL     OW75257   9.141   1.888   0.606 -0.7771 -0.0896 -0.2136
24368SOL    HW175258   9.223   1.865   0.563  0.5714 -0.5685  2.3884
24368SOL    HW275259   9.073   1.873   0.540  1.1661 -0.1112 -2.3050
24369SOL     OW75260   3.280   8.150   6.610 -0.5669  0.0322 -0.6697
24369SOL    HW175261   3.284   8.149   6.514  1.4013 -0.4876 -0.6327
24369SOL    HW275262   3.311   8.064   6.636 -1.1338  0.1509  0.4453
24370SOL     OW75263   3.127   7.905   1.833  0.0831 -0.1389 -0.1405
24370SOL    HW175264   3.141   7.953   1.751  0.8376  0.4583  0.3278
24370SOL    HW275265   3.090   7.821   1.805 -1.8706  0.9295 -0.9288
24371SOL     OW75266   8.004   7.201   7.440  0.2020 -0.2908  0.1609
24371SOL    HW175267   8.026   7.182   7.349 -0.2352  0.4532 -0.1106
24371SOL    HW275268   7.933   7.265   7.435  0.1553 -0.2548  1.0288
24372SOL     OW75269   0.122   1.328   3.969  0.0207  0.3977  0.0192
24372SOL    HW175270   0.129   1.410   3.921 -2.0735  1.9229  2.0597
24372SOL    HW275271   0.178   1.340   4.046 -0.2924 -0.0786  0.3294
24373SOL     OW75272   6.787   0.064   1.646 -0.3479 -0.4555  0.4079
24373SOL    HW175273   6.779   0.137   1.707 -1.0643  0.6821 -0.9947
24373SOL    HW275274   6.754  -0.012   1.694  0.5990  0.0716  1.9573
24374SOL     OW75275   5.016   5.568   5.705  0.1699 -0.7411 -0.0758
24374SOL    HW175276   5.041   5.476   5.710  1.1521 -0.5151 -0.6451
24374SOL    HW275277   5.090   5.616   5.741 -0.2019 -0.1449 -0.0827
24375SOL     OW75278   3.679   6.594   2.027  0.4053  0.4834  0.1495
24375SOL    HW175279   3.590   6.561   2.021  0.1000  0.8427  2.2223
24375SOL    HW275280   3.672   6.687   2.004  0.6835  0.0325 -2.0253
24376SOL     OW75281   7.024   0.160   4.320 -0.2180 -0.0559 -0.3924
24376SOL    HW175282   7.098   0.206   4.359 -0.4545 -0.4360  0.5413
24376SOL    HW275283   6.985   0.112   4.393 -0.8234 -0.6017 -1.0626
24377SOL     OW75284   9.350   8.502   3.045 -0.6496 -0.2543 -0.2212
24377SOL    HW175285   9.407   8.574   3.018 -1.5366 -0.4152 -2.8511
24377SOL    HW275286   9.261   8.537   3.038 -1.0269 -1.1113  0.0979
24378SOL     OW75287   8.408   7.901   0.199  0.5807  0.4806  0.8474
24378SOL    HW175288   8.327   7.850   0.193  0.0437  1.1569  2.0529
24378SOL    HW275289   8.449   7.890   0.113 -0.1484 -0.9144  0.6356
24379SOL     OW75290   6.113   3.836   6.956  0.2568  0.0716  0.1861
24379SOL    HW175291   6.177   3.874   6.895  0.0796 -0.3610 -0.2689
24379SOL    HW275292   6.029   3.875   6.931  0.0193 -0.8751 -0.4994
24380SOL     OW75293   4.096   2.656   5.520 -0.3174 -0.7351  0.5464
24380SOL    HW175294   4.174   2.652   5.575 -0.7165  1.0486  1.3286
24380SOL    HW275295   4.126   2.696   5.439 -0.4302  0.2655  0.9721
24381SOL     OW75296   1.610   8.092   3.812 -0.4395 -0.2777 -0.1212
24381SOL    HW175297   1.620   8.070   3.904 -0.9892  0.7946  0.2092
24381SOL    HW275298   1.670   8.033   3.766  0.1592 -0.5242  0.9567
24382SOL     OW75299   8.549   4.201   8.170 -0.4155  0.1651  0.2886
24382SOL    HW175300   8.491   4.246   8.109  0.2884 -0.9080 -1.2520
24382SOL    HW275301   8.526   4.108   8.160 -0.2254 -0.0411  1.6133
24383SOL     OW75302   1.593   5.642   8.444  0.0891 -0.4163  0.1765
24383SOL    HW175303   1.638   5.725   8.461 -1.8997  0.7527  0.1221
24383SOL    HW275304   1.515   5.667   8.395  0.1646 -2.5242 -1.1427
24384SOL     OW75305   0.203   2.066   7.008 -0.3410 -0.1945  0.0972
24384SOL    HW175306   0.143   2.117   6.954 -1.2111 -1.0725  0.2094
24384SOL    HW275307   0.199   1.978   6.972  0.4741 -0.3927  0.4612
24385SOL     OW75308   6.593   6.474   5.675  0.2011 -0.2014 -0.1997
24385SOL    HW175309   6.585   6.381   5.651  1.0925 -0.1008 -0.9485
24385SOL    HW275310   6.582   6.521   5.592  0.7534  0.3084  0.0116
24386SOL     OW75311   3.229   1.969   6.214  0.0075  0.1094 -0.1530
24386SOL    HW175312   3.274   1.914   6.278 -2.3211 -0.8160  0.7921
24386SOL    HW275313   3.164   1.911   6.175 -2.7725  2.2059  1.0995
24387SOL     OW75314   7.626   0.328   7.400  0.7681 -0.6588  0.1041
24387SOL    HW175315   7.536   0.341   7.373  1.0676  1.5506  0.0178
24387SOL    HW275316   7.626   0.344   7.495  0.8786 -1.8398  0.3186
24388SOL     OW75317   6.640   7.017   9.046 -0.1134  0.4291  0.2416
24388SOL    HW175318   6.557   6.981   9.075 -1.2714  1.5939 -1.4237
24388SOL    HW275319   6.671   6.956   8.979 -1.4892  1.7784 -1.7308
24389SOL     OW75320   8.203   8.292   4.112 -0.7319 -0.1767  0.3352
24389SOL    HW175321   8.169   8.372   4.071 -0.6643  0.2810  1.1511
24389SOL    HW275322   8.165   8.292   4.200 -0.9167 -1.1732  0.2629
24390SOL     OW75323   5.968   8.128   1.738  0.4191  0.3876 -0.1021
24390SOL    HW175324   6.054   8.169   1.732  0.2674  0.6348 -0.5757
24390SOL    HW275325   5.934   8.156   1.823  0.7321  0.4209  0.0148
24391SOL     OW75326   7.398   6.581   6.446  0.1000  0.5228  0.0857
24391SOL    HW175327   7.366   6.514   6.385 -0.4986  0.1806  0.7622
24391SOL    HW275328   7.452   6.533   6.508 -0.0064  0.7258  0.3361
24392SOL     OW75329   4.874   5.391   6.861 -0.7525 -0.5436 -0.1251
24392SOL    HW175330   4.820   5.312   6.854 -0.4672 -0.6826 -0.8487
24392SOL    HW275331   4.879   5.425   6.772  2.2390 -1.7943 -0.5526
24393SOL     OW75332   5.164   6.759   8.561 -0.0230 -0.4590 -0.3213
24393SOL    HW175333   5.158   6.687   8.499  1.2824 -2.2791  1.5497
24393SOL    HW275334   5.147   6.719   8.646 -0.3803  1.6771  0.6827
24394SOL     OW75335   1.456   2.954   2.500  0.0717  0.3579 -0.1165
24394SOL    HW175336   1.495   2.867   2.503  1.2737  0.8776  0.2530
24394SOL    HW275337   1.417   2.966   2.587  2.3325  1.1985  0.8725
24395SOL     OW75338   8.377   2.507   4.688 -0.0838 -0.8399 -0.2274
24395SOL    HW175339   8.328   2.572   4.739 -0.7932 -0.9835 -0.7138
24395SOL    HW275340   8.468   2.519   4.716 -0.1279  0.6864 -0.6524
24396SOL     OW75341   5.010   4.123   3.277  0.2069 -0.3646 -0.4037
24396SOL    HW175342   4.951   4.125   3.352  1.1453 -2.6075  0.4823
24396SOL    HW275343   5.065   4.201   3.288 -1.1212  0.5549 -0.0487
24397SOL     OW75344   4.641   4.052   2.513  0.0878  0.0748 -0.4757
24397SOL    HW175345   4.732   4.026   2.497  0.3202  2.1883 -3.5809
24397SOL    HW275346   4.641   4.146   2.499 -2.2379  0.4770  1.6718
24398SOL     OW75347   8.831   6.797   3.395  0.3136  0.0563 -0.5715
24398SOL    HW175348   8.842   6.707   3.428 -1.2176  1.0844  3.2500
24398SOL    HW275349   8.740   6.801   3.367 -0.0499  0.7467  0.6463
24399SOL     OW75350   2.267   8.862   2.459  0.1108 -0.0799  0.1500
24399SOL    HW175351   2.339   8.830   2.513 -0.0124 -1.5556 -0.5351
24399SOL    HW275352   2.237   8.941   2.505  1.2587 -0.2110  1.1815
24400SOL     OW75353   3.754   8.087   4.508 -0.3351  0.2148  0.3752
24400SOL    HW175354   3.812   8.042   4.447 -0.9740  0.3855 -0.3761
24400SOL    HW275355   3.730   8.020   4.572 -1.8463 -0.7630 -1.1297
24401SOL     OW75356   2.004   6.102   7.383 -0.2099  0.6931  0.1492
24401SOL    HW175357   2.034   6.149   7.461  3.2489  2.6352 -2.0834
24401SOL    HW275358   2.077   6.045   7.360 -1.4298 -0.3496 -1.3097
24402SOL     OW75359   4.917   3.781   6.449 -0.1712  0.0880  0.2021
24402SOL    HW175360   4.986   3.754   6.510  0.7731 -0.1452 -0.9288
24402SOL    HW275361   4.885   3.699   6.411  0.1181  0.2927 -0.5092
24403SOL     OW75362   9.120   2.834   2.034  0.3741  0.2037  0.2260
24403SOL    HW175363   9.124   2.813   1.941 -2.5610 -0.5793  0.1669
24403SOL    HW275364   9.145   2.926   2.039  1.3251  0.0596 -1.2045
24404SOL     OW75365   2.774   0.958   0.534 -0.0044 -0.5737 -0.1424
24404SOL    HW175366   2.794   0.884   0.477  0.7997 -0.8357  0.4773
24404SOL    HW275367   2.733   1.022   0.475  0.2829 -1.0686 -0.8968
24405SOL     OW75368   8.565   7.451   1.618 -0.0084 -0.1886  0.2577
24405SOL    HW175369   8.651   7.486   1.641  0.3524 -0.1148 -1.1217
24405SOL    HW275370   8.556   7.470   1.524 -1.7313  0.2354  0.4760
24406SOL     OW75371   2.036   0.398   9.593 -0.1456 -0.2528 -0.1864
24406SOL    HW175372   1.989   0.469   9.637  0.3004  0.0583 -0.2103
24406SOL    HW275373   2.025   0.416   9.499  2.1361  1.2755 -0.2383
24407SOL     OW75374   7.133   0.063   6.556 -0.1039 -0.3342 -0.1316
24407SOL    HW175375   7.189   0.071   6.479 -0.3775 -0.7229 -0.3778
24407SOL    HW275376   7.124  -0.031   6.569 -1.4203 -0.3043 -0.6385
24408SOL     OW75377   2.040   2.291   4.932  0.3634  0.2692  0.7529
24408SOL    HW175378   2.130   2.259   4.928  0.4236  0.3534  1.3314
24408SOL    HW275379   2.027   2.336   4.849  0.8700  0.2872  0.6817
24409SOL     OW75380   6.374   4.012   4.301  0.0201 -0.0052  0.0208
24409SOL    HW175381   6.469   3.998   4.306 -0.3054 -2.5323  0.6337
24409SOL    HW275382   6.354   4.012   4.208  0.5567 -0.2441 -0.0978
24410SOL     OW75383   5.542   1.064   4.892 -0.2564 -0.0096  0.4502
24410SOL    HW175384   5.530   0.970   4.881 -0.7118 -0.1470  1.9732
24410SOL    HW275385   5.473   1.103   4.839  0.1014 -0.5093 -0.4100
24411SOL     OW75386   2.253   0.791   9.133 -0.3866 -0.3823 -0.0269
24411SOL    HW175387   2.292   0.860   9.080 -0.8021 -1.5650 -1.9835
24411SOL    HW275388   2.159   0.795   9.113 -0.3371 -1.9238 -0.7857
24412SOL     OW75389   6.539   2.642   4.976  0.2365  0.8526 -0.3005
24412SOL    HW175390   6.536   2.615   4.884 -0.0898  1.7527 -0.5581
24412SOL    HW275391   6.613   2.593   5.012 -1.1277 -1.4471 -0.4087
24413SOL     OW75392   8.964   2.472   4.240  0.3481 -1.2090 -0.3675
24413SOL    HW175393   8.898   2.439   4.179 -0.6221 -1.6403  0.8757
24413SOL    HW275394   8.994   2.394   4.287  0.7785 -0.8268 -0.0050
24414SOL     OW75395   8.273   0.309   7.825  0.1654 -0.0340  0.3775
24414SOL    HW175396   8.216   0.340   7.754  2.0200 -0.0142 -1.2100
24414SOL    HW275397   8.294   0.219   7.800  2.5518  0.6275 -0.3682
24415SOL     OW75398   9.178   1.381   4.753  0.1848 -0.0264 -0.5063
24415SOL    HW175399   9.235   1.364   4.828 -0.1645 -0.3797 -0.3166
24415SOL    HW275400   9.209   1.321   4.686  0.2093 -0.0270 -0.4947
24416SOL     OW75401   2.382   5.747   8.405 -0.0216 -0.1452  0.2854
24416SOL    HW175402   2.475   5.751   8.386 -0.2207  0.2675 -0.6612
24416SOL    HW275403   2.350   5.670   8.358 -0.5373  0.9498 -1.2509
24417SOL     OW75404   5.638   1.921   5.302  0.3988 -0.0329  0.3192
24417SOL    HW175405   5.710   1.945   5.360  0.5158  0.0974  0.1206
24417SOL    HW275406   5.680   1.885   5.223  0.3003  1.3996 -0.4142
24418SOL     OW75407   9.246   8.081   6.441  0.1688  0.1034  0.2735
24418SOL    HW175408   9.190   8.010   6.408 -0.6504  1.3185 -1.0878
24418SOL    HW275409   9.186   8.154   6.455  1.4037  1.6172 -1.7123
24419SOL     OW75410   9.414   8.252   0.138 -0.2817 -0.4064  0.0399
24419SOL    HW175411   9.424   8.173   0.190 -1.5310 -2.3749 -2.5020
24419SOL    HW275412   9.489   8.251   0.078 -0.3083  0.3367 -0.0145
24420SOL     OW75413   5.295   5.406   2.972  0.0016 -0.3737  0.3013
24420SOL    HW175414   5.206   5.437   2.955 -0.1410  0.3792  2.1709
24420SOL    HW275415   5.352   5.476   2.939 -0.1059 -0.6548 -0.4922
24421SOL     OW75416   3.020   1.610   8.557  0.1549 -0.0877  0.1467
24421SOL    HW175417   2.936   1.588   8.517  0.4946  1.5502 -1.6392
24421SOL    HW275418   2.999   1.680   8.620  0.2196  0.7024 -0.6897
24422SOL     OW75419   2.461   1.750   0.528  0.3430 -0.1469 -0.0553
24422SOL    HW175420   2.389   1.721   0.585  0.1601  0.0511 -0.1854
24422SOL    HW275421   2.422   1.757   0.441  0.4149  0.3597 -0.0506
24423SOL     OW75422   3.807   7.301   8.831  0.0150 -0.4153  0.2686
24423SOL    HW175423   3.753   7.240   8.780  1.6278  0.3344 -2.5090
24423SOL    HW275424   3.828   7.372   8.770  1.1877  1.1128  2.3295
24424SOL     OW75425   4.526   6.450   7.701 -0.1197 -0.1578  0.3938
24424SOL    HW175426   4.619   6.466   7.681  0.5277 -1.8665  1.7879
24424SOL    HW275427   4.517   6.471   7.794 -0.9228 -0.8020  0.4741
24425SOL     OW75428   1.581   7.474   0.101 -0.1975  0.1522  0.0331
24425SOL    HW175429   1.504   7.458   0.154  0.9318 -3.8906  0.8060
24425SOL    HW275430   1.552   7.457   0.011 -0.8621  1.7517 -0.0835
24426SOL     OW75431   6.750   0.301   1.778 -0.7696 -0.3881 -0.2459
24426SOL    HW175432   6.766   0.318   1.870  0.0010 -2.2354  0.0042
24426SOL    HW275433   6.798   0.369   1.732 -0.9511  0.4000  0.6979
24427SOL     OW75434   0.180   8.782   0.491  0.3472 -0.5883  0.8253
24427SOL    HW175435   0.258   8.779   0.546  1.8867 -0.8373 -1.2642
24427SOL    HW275436   0.204   8.836   0.416 -1.2495 -1.2214 -0.2192
24428SOL     OW75437   4.780   0.968   3.755 -0.4146  0.6053 -0.1881
24428SOL    HW175438   4.864   0.933   3.786 -1.5297 -2.0365  0.0646
24428SOL    HW275439   4.747   1.018   3.829 -0.0822 -0.2424  0.5536
24429SOL     OW75440   7.537   1.101   8.376 -0.0814  0.3208 -0.0645
24429SOL    HW175441   7.605   1.140   8.320 -2.2172  0.5070 -2.7656
24429SOL    HW275442   7.522   1.166   8.444  2.0253  0.4995  0.2930
24430SOL     OW75443   0.244   3.185   4.115 -0.0711 -0.0033  0.0424
24430SOL    HW175444   0.157   3.193   4.155 -0.0094  1.4838 -0.0655
24430SOL    HW275445   0.259   3.269   4.072  0.9515 -0.6500 -0.9244
24431SOL     OW75446   5.222   0.421   1.187  0.3120  0.2752  0.4337
24431SOL    HW175447   5.165   0.491   1.219  0.4772  1.3342 -1.4290
24431SOL    HW275448   5.247   0.372   1.265 -2.4496  0.2735  1.4270
24432SOL     OW75449   5.652   7.392   5.457  0.0474 -0.6119  0.4875
24432SOL    HW175450   5.623   7.300   5.459 -0.8768 -0.3460  2.3110
24432SOL    HW275451   5.575   7.441   5.485  1.3950  0.3881  2.7757
24433SOL     OW75452   0.374   8.714   4.599 -0.0004 -0.0852 -0.0550
24433SOL    HW175453   0.405   8.784   4.540  1.2537  0.3427  1.0585
24433SOL    HW275454   0.349   8.759   4.679 -0.1199 -0.8251  0.3340
24434SOL     OW75455   2.983   2.251   6.547 -0.1745  0.0880  0.1937
24434SOL    HW175456   3.017   2.336   6.519 -2.9578  0.9101 -0.9881
24434SOL    HW275457   2.942   2.215   6.468 -1.5310 -1.0468  1.3729
24435SOL     OW75458   6.253   1.455   4.979  0.3808  0.4668  0.3403
24435SOL    HW175459   6.196   1.384   5.009 -0.0285  0.0037 -1.4353
24435SOL    HW275460   6.193   1.526   4.956  0.5886  0.4361 -0.3302
24436SOL     OW75461   6.710   3.031   4.928 -0.1068 -0.2950  0.5555
24436SOL    HW175462   6.719   3.095   4.999  0.0946 -0.1103  0.3651
24436SOL    HW275463   6.641   2.972   4.957 -1.6324  1.0988 -0.0727
24437SOL     OW75464   5.315   0.261   7.906  0.1163  0.1703 -0.4272
24437SOL    HW175465   5.336   0.301   7.821  0.1928 -0.6182 -0.7862
24437SOL    HW275466   5.264   0.328   7.952  1.2147  1.1251 -0.5574
24438SOL     OW75467   7.027   6.704   5.194 -0.4136 -0.0398  0.1906
24438SOL    HW175468   7.059   6.651   5.121 -1.3145  0.7748 -0.8274
24438SOL    HW275469   7.048   6.794   5.170  1.3727  0.1202  2.0387
24439SOL     OW75470   1.082   4.017   3.406  0.0634 -0.4494  0.3527
24439SOL    HW175471   1.020   4.027   3.478  1.6237  0.6657  1.6138
24439SOL    HW275472   1.166   4.044   3.443  0.8978  0.3029 -1.9365
24440SOL     OW75473   6.801   3.215   3.751  0.0970 -0.5756 -0.0635
24440SOL    HW175474   6.713   3.223   3.789  0.3871  0.1583  0.4764
24440SOL    HW275475   6.794   3.259   3.667  0.0442 -0.2003  0.1378
24441SOL     OW75476   5.363   3.089   3.507 -0.0484  0.1457 -0.3008
24441SOL    HW175477   5.345   3.183   3.513  0.8528  0.2836  0.3114
24441SOL    HW275478   5.401   3.078   3.420  0.6429  0.4941 -0.0511
24442SOL     OW75479   9.215   6.373   2.548 -0.1114 -0.3382 -0.3331
24442SOL    HW175480   9.173   6.441   2.601 -0.1532  0.1489 -0.9758
24442SOL    HW275481   9.221   6.297   2.607  0.0676  0.2614  0.4373
24443SOL     OW75482   1.946   7.756   7.256  0.1999 -0.2204  0.3463
24443SOL    HW175483   1.978   7.801   7.177 -0.4621  2.1639  1.3231
24443SOL    HW275484   1.906   7.826   7.307 -0.9009 -2.0099  2.0371
24444SOL     OW75485   0.175   9.612   3.321 -0.1068 -0.4228 -0.2963
24444SOL    HW175486   0.199   9.703   3.337 -0.1180 -0.3718 -0.5647
24444SOL    HW275487   0.170   9.573   3.408 -1.0733  0.0775 -0.1122
24445SOL     OW75488   8.548   0.145   1.783 -0.4449  0.7399  0.2757
24445SOL    HW175489   8.592   0.182   1.706 -0.6058  0.2699 -0.0446
24445SOL    HW275490   8.613   0.152   1.853 -0.7862  2.4575  0.4577
24446SOL     OW75491   8.549   7.348   2.872 -0.0347  0.1096 -0.0733
24446SOL    HW175492   8.498   7.413   2.921  0.8526  1.7747 -1.2606
24446SOL    HW275493   8.483   7.285   2.841 -1.1264  1.2020 -0.0698
24447SOL     OW75494   6.972   2.140   8.101  0.1091 -0.0308 -0.1179
24447SOL    HW175495   6.925   2.218   8.071  0.0737 -0.3711 -0.9624
24447SOL    HW275496   6.903   2.078   8.126  0.0993 -0.4022 -1.0311
24448SOL     OW75497   1.150   0.527   1.863  0.0340  0.1624  0.2717
24448SOL    HW175498   1.210   0.591   1.824  0.6334 -0.1552  0.6609
24448SOL    HW275499   1.152   0.453   1.802  0.7425 -0.2130  0.7322
24449SOL     OW75500   5.940   0.048   2.189 -0.0450  0.0091  1.0584
24449SOL    HW175501   5.878   0.067   2.260 -0.4227  1.3660  0.4001
24449SOL    HW275502   6.026   0.063   2.228 -0.2794  1.7388  0.9919
24450SOL     OW75503   4.546   5.910   9.304  0.3544 -0.0695  0.1103
24450SOL    HW175504   4.554   5.834   9.247  1.1305  0.1013 -0.0239
24450SOL    HW275505   4.628   5.913   9.353 -0.4842 -0.4876  1.6148
24451SOL     OW75506   1.455   8.612   2.226  0.3229 -0.1489  0.5794
24451SOL    HW175507   1.460   8.699   2.265 -0.8397  0.3952 -0.4159
24451SOL    HW275508   1.486   8.553   2.295  0.6601  0.9927  1.4410
24452SOL     OW75509   9.014   5.598   1.712  0.5577 -0.1356  0.0878
24452SOL    HW175510   9.085   5.547   1.751  1.7537  1.0912 -0.4336
24452SOL    HW275511   9.028   5.592   1.617  0.2528  0.5048 -0.0070
24453SOL     OW75512   9.247   3.097   8.548  0.7605  0.3495  0.2400
24453SOL    HW175513   9.181   3.065   8.487  1.0971  1.1710 -0.5784
24453SOL    HW275514   9.206   3.089   8.634  0.4532 -1.2587 -0.0294
24454SOL     OW75515   0.775   6.929   6.612  0.2069  0.1048 -0.4514
24454SOL    HW175516   0.814   6.842   6.614  0.0135  0.0107 -0.8451
24454SOL    HW275517   0.848   6.988   6.633  0.0927 -0.2302  1.0402
24455SOL     OW75518   4.595   9.242   4.394  0.0977  0.5448 -0.2272
24455SOL    HW175519   4.621   9.171   4.453 -2.0433 -0.0960  0.0466
24455SOL    HW275520   4.501   9.252   4.409  0.3776  3.7925  0.0917
24456SOL     OW75521   4.364   4.305   7.190  0.7715  0.7202  0.1614
24456SOL    HW175522   4.295   4.277   7.131  1.3685  0.8032 -0.5976
24456SOL    HW275523   4.319   4.348   7.263  0.0684  1.6494 -0.8015
24457SOL     OW75524   5.953   5.251   0.862  0.1789 -0.5127  0.0008
24457SOL    HW175525   5.989   5.326   0.911  0.1705 -1.9347  2.3384
24457SOL    HW275526   5.874   5.286   0.820  0.8300  1.0783  0.0334
24458SOL     OW75527   2.961   0.987   0.752 -0.2776 -0.1467  0.1272
24458SOL    HW175528   2.915   0.991   0.668  0.4217  2.5640 -0.2407
24458SOL    HW275529   2.901   1.029   0.814  0.6931  1.3739  0.1077
24459SOL     OW75530   7.229   0.695   9.557  0.3335 -0.1933 -0.5214
24459SOL    HW175531   7.157   0.643   9.593  1.2583 -0.6203  0.7686
24459SOL    HW275532   7.185   0.759   9.501 -0.8576 -2.2713 -2.1525
24460SOL     OW75533   7.510   6.930   9.432 -0.3507 -0.2352 -0.5503
24460SOL    HW175534   7.535   6.873   9.359  1.9980 -0.2973  0.2133
24460SOL    HW275535   7.417   6.950   9.417 -0.2692 -1.2935 -2.8174
24461SOL     OW75536   1.443   3.090   6.529 -0.1698 -0.9781  0.0431
24461SOL    HW175537   1.350   3.071   6.542 -0.1910 -0.0985  1.3769
24461SOL    HW275538   1.444   3.157   6.461 -0.4993 -0.9746  0.0384
24462SOL     OW75539   6.123   1.233   6.281 -0.4496  0.4865 -0.3832
24462SOL    HW175540   6.131   1.174   6.205 -1.3255  0.2240 -0.2840
24462SOL    HW275541   6.094   1.176   6.352  0.2840  0.7487  0.1342
24463SOL     OW75542   8.942   5.117   0.824 -0.1074  0.1529  0.1267
24463SOL    HW175543   8.987   5.195   0.792  1.6661 -1.8954 -3.0510
24463SOL    HW275544   8.864   5.149   0.869  0.5533  3.6950 -1.0036
24464SOL     OW75545   2.995   7.824   7.339 -0.0262 -0.3958 -0.0690
24464SOL    HW175546   2.918   7.767   7.344  0.5515 -1.1767  0.0650
24464SOL    HW275547   3.044   7.806   7.420 -0.3094  0.9950  0.4333
24465SOL     OW75548   9.521   6.315   5.103  0.1354  0.3489  0.2891
24465SOL    HW175549   9.589   6.257   5.137 -0.3709 -0.7329 -0.4838
24465SOL    HW275550   9.522   6.301   5.008 -1.6705 -0.3092  0.3108
24466SOL     OW75551   2.048   0.131   3.431  0.2584 -0.2153 -0.1170
24466SOL    HW175552   2.131   0.117   3.385 -0.7807 -2.6658 -1.4343
24466SOL    HW275553   2.073   0.166   3.516  2.5456  0.1594 -0.8663
24467SOL     OW75554   4.259   0.693   5.091  0.8467 -0.0941  0.0348
24467SOL    HW175555   4.284   0.669   5.002  0.9378  1.6030 -0.4401
24467SOL    HW275556   4.208   0.619   5.123 -0.8833  0.0464 -2.1525
24468SOL     OW75557   0.150   0.082   2.071 -0.4481 -0.1398 -0.0096
24468SOL    HW175558   0.196   0.112   2.149  0.4185 -2.0399  0.2804
24468SOL    HW275559   0.067   0.048   2.103 -0.2272 -0.6270  0.0557
24469SOL     OW75560   6.225   1.307   3.325  0.1435 -0.3252 -0.3715
24469SOL    HW175561   6.152   1.368   3.311 -0.3155 -0.5927  0.7625
24469SOL    HW275562   6.194   1.247   3.392  0.4883 -1.9916 -1.6297
24470SOL     OW75563   7.621   8.331   5.272  0.1895 -0.0112  0.1630
24470SOL    HW175564   7.575   8.414   5.289 -0.3518 -0.2016 -0.3202
24470SOL    HW275565   7.552   8.272   5.241  0.8181 -0.1919 -0.9484
24471SOL     OW75566   6.421   4.305   7.422 -0.2380  0.5880  0.2275
24471SOL    HW175567   6.373   4.234   7.464  1.9775 -0.8046  0.5564
24471SOL    HW275568   6.435   4.276   7.332  0.8479  0.4921  0.4167
24472SOL     OW75569   7.835   7.693   8.876 -0.4513 -0.4792  0.3880
24472SOL    HW175570   7.896   7.693   8.949  1.3671 -0.1823 -1.0485
24472SOL    HW275571   7.890   7.708   8.799 -2.2914 -0.6920 -1.0399
24473SOL     OW75572   3.599   7.596   4.140  0.4534 -0.3291  0.0525
24473SOL    HW175573   3.527   7.549   4.097  1.2338  0.0688 -1.7659
24473SOL    HW275574   3.668   7.530   4.147  0.3955 -0.3393  0.5680
24474SOL     OW75575   6.611   7.129   6.820 -0.5098  0.3600 -0.4949
24474SOL    HW175576   6.552   7.053   6.815 -0.6735  0.4226  0.3253
24474SOL    HW275577   6.641   7.141   6.730 -1.3443  0.0050 -0.8384
24475SOL     OW75578   5.798   9.160   7.376  0.5372  0.2939 -0.4296
24475SOL    HW175579   5.797   9.226   7.307  0.2294 -0.4249 -1.1305
24475SOL    HW275580   5.891   9.145   7.393  0.6219  1.4657  0.3166
24476SOL     OW75581   4.968   1.059   5.192  0.0549  0.8702  0.1220
24476SOL    HW175582   5.005   1.058   5.280  1.8717 -0.2218 -0.6068
24476SOL    HW275583   5.019   1.125   5.145  0.2926  0.2078 -0.5741
24477SOL     OW75584   8.564   3.509   0.663  0.3243  0.4472 -0.3291
24477SOL    HW175585   8.483   3.528   0.711 -0.6266  0.9285 -2.0475
24477SOL    HW275586   8.544   3.433   0.609  1.2882  0.0812 -0.2063
24478SOL     OW75587   9.399   8.975   1.742  0.1739  0.2804 -0.4079
24478SOL    HW175588   9.471   9.031   1.713 -0.9299  1.6898 -0.5065
24478SOL    HW275589   9.381   9.002   1.832  0.8439 -1.2304  0.2229
24479SOL     OW75590   4.929   4.801   7.717 -0.3228 -0.1549  0.2756
24479SOL    HW175591   5.006   4.745   7.725  0.9891  1.6343  0.9722
24479SOL    HW275592   4.956   4.884   7.757 -1.6611  1.4572 -1.9392
24480SOL     OW75593   7.756   7.426   4.818 -0.2822  0.4694 -0.2505
24480SOL    HW175594   7.775   7.501   4.761 -2.0963 -0.3452 -2.0811
24480SOL    HW275595   7.840   7.402   4.856  0.6791  2.2135 -1.1573
24481SOL     OW75596   7.617   6.540   6.217  0.4904 -0.1630  0.1619
24481SOL    HW175597   7.573   6.459   6.244  2.3426 -1.2465  0.1028
24481SOL    HW275598   7.704   6.511   6.189  0.1988  1.4318 -2.8127
24482SOL     OW75599   0.825   3.157   8.341 -0.2800 -0.5401  0.5906
24482SOL    HW175600   0.769   3.175   8.417 -1.2248 -1.8286  0.2353
24482SOL    HW275601   0.849   3.243   8.308 -1.8622  0.0578  0.9169
24483SOL     OW75602   7.024   5.666   5.721  0.4465 -0.0109 -0.1574
24483SOL    HW175603   6.933   5.638   5.704  0.0470  0.1399  1.5696
24483SOL    HW275604   7.076   5.617   5.657 -0.8278 -0.2364 -1.0635
24484SOL     OW75605   1.566   3.620   4.320  0.1731  0.0203 -0.2519
24484SOL    HW175606   1.571   3.530   4.353  2.3992 -0.3072 -1.3005
24484SOL    HW275607   1.532   3.671   4.394 -1.0428 -1.6392  0.3887
24485SOL     OW75608   4.193   8.692   5.776  0.1517  0.2142  0.1357
24485SOL    HW175609   4.264   8.703   5.840  1.5175 -0.0941 -1.2595
24485SOL    HW275610   4.201   8.769   5.719 -1.7516  1.0632  0.9269
24486SOL     OW75611   9.066   2.370   4.899 -0.3760  0.4425  0.6113
24486SOL    HW175612   9.015   2.301   4.856 -2.5628  2.4532 -0.1972
24486SOL    HW275613   9.148   2.373   4.849  0.0749 -1.9264  1.0709
24487SOL     OW75614   9.150   7.543   1.089 -0.8183  0.1258 -0.5101
24487SOL    HW175615   9.140   7.603   1.163 -1.3891 -0.2013 -0.3116
24487SOL    HW275616   9.166   7.457   1.130 -1.7526 -0.1721 -0.7374
24488SOL     OW75617   1.645   8.578   5.410 -0.1140 -0.3385 -0.3988
24488SOL    HW175618   1.691   8.520   5.349  1.2668  0.2606  0.0479
24488SOL    HW275619   1.644   8.663   5.366 -1.1132 -0.4080 -0.5432
24489SOL     OW75620   4.198   5.781   3.525 -0.7184  0.1066 -0.4957
24489SOL    HW175621   4.103   5.775   3.514 -0.5946  0.3833 -1.8748
24489SOL    HW275622   4.214   5.869   3.558 -0.9299  0.1061 -0.3947
24490SOL     OW75623   2.667   9.196   2.037 -0.1714  0.4406 -0.1722
24490SOL    HW175624   2.660   9.191   1.942  0.4730  1.2825 -0.2760
24490SOL    HW275625   2.757   9.172   2.056 -0.0511  1.1018  0.1453
24491SOL     OW75626   1.255   2.654   4.020  0.1604 -0.0492 -0.2278
24491SOL    HW175627   1.256   2.646   4.115  0.3801 -1.4769 -0.3265
24491SOL    HW275628   1.206   2.578   3.990  2.7055 -1.3637 -1.3561
24492SOL     OW75629   0.074   9.546   1.629  0.2152  0.0338 -0.2686
24492SOL    HW175630   0.026   9.628   1.619  0.3091  0.0702 -0.4360
24492SOL    HW275631   0.140   9.564   1.695  2.3298  1.0808 -2.5347
24493SOL     OW75632   7.877   0.499   1.161  0.5284 -0.1413 -0.4461
24493SOL    HW175633   7.867   0.416   1.115  2.0363 -0.1594 -0.7808
24493SOL    HW275634   7.890   0.474   1.253  0.4378 -0.2453 -0.4618
24494SOL     OW75635   3.262   7.675   4.731 -0.2195  0.2991 -0.2788
24494SOL    HW175636   3.326   7.702   4.665  2.5807 -1.8053  1.3403
24494SOL    HW275637   3.275   7.580   4.740 -1.4261  0.2832  2.2762
24495SOL     OW75638   8.735   6.827   8.424 -0.0394  0.2499 -0.9756
24495SOL    HW175639   8.647   6.865   8.421 -0.1194  0.3585  1.1457
24495SOL    HW275640   8.794   6.901   8.413 -0.2008  0.3814 -0.9598
24496SOL     OW75641   9.083   2.148   4.168  0.4040  0.1237  0.2329
24496SOL    HW175642   9.170   2.187   4.172  1.0284 -1.1332 -0.5943
24496SOL    HW275643   9.064   2.123   4.259  0.3478  1.5109  0.6348
24497SOL     OW75644   8.577   6.893   7.319 -0.1440 -0.1956  0.3683
24497SOL    HW175645   8.499   6.946   7.308 -0.3545 -0.4197  0.7573
24497SOL    HW275646   8.582   6.839   7.240 -1.6610 -1.8324  1.3406
24498SOL     OW75647   0.433   2.438   8.829  0.7765 -0.0095  0.3965
24498SOL    HW175648   0.361   2.391   8.786  0.7011 -0.7775  1.3263
24498SOL    HW275649   0.408   2.530   8.824  1.2596  0.0545 -2.0820
24499SOL     OW75650   3.324   8.341   4.330 -0.0005 -0.3098  0.0701
24499SOL    HW175651   3.408   8.385   4.314 -0.7052  1.0841  0.0554
24499SOL    HW275652   3.260   8.394   4.283 -0.8415 -1.6685 -0.3726
24500SOL     OW75653   3.883   2.106   6.762  0.1025 -0.1721  0.0297
24500SOL    HW175654   3.878   2.199   6.739 -1.5822  0.1610  1.4709
24500SOL    HW275655   3.976   2.090   6.778  0.4611  1.1779 -0.5674
24501SOL     OW75656   4.438   4.799   6.892 -0.4572  0.2221 -0.3519
24501SOL    HW175657   4.463   4.706   6.893 -1.5790 -0.1156 -1.2564
24501SOL    HW275658   4.418   4.817   6.800  0.6630  1.6340 -0.3391
24502SOL     OW75659   6.697   4.274   4.655 -0.3729 -0.2494  0.2464
24502SOL    HW175660   6.702   4.363   4.690  0.1208 -0.4758  0.7654
24502SOL    HW275661   6.789   4.249   4.640 -0.4831 -0.8332  0.5266
24503SOL     OW75662   4.382   2.652   5.900  0.7053 -0.1610 -0.0984
24503SOL    HW175663   4.391   2.744   5.924  0.9495  0.2483 -1.6608
24503SOL    HW275664   4.454   2.636   5.840  0.8896 -1.4892  0.4403
24504SOL     OW75665   7.549   0.276   8.742  0.2556  0.4579 -0.1924
24504SOL    HW175666   7.598   0.328   8.678  0.3739  0.0518 -0.4413
24504SOL    HW275667   7.560   0.322   8.825 -2.4809  2.7502 -0.9484
24505SOL     OW75668   4.485   4.014   0.609  0.1430 -0.4531  0.1675
24505SOL    HW175669   4.543   4.080   0.572  0.1585 -0.5202  0.0737
24505SOL    HW275670   4.544   3.948   0.645  0.1234 -1.0155 -0.8044
24506SOL     OW75671   7.313   2.621   4.459 -0.2795  0.1260  0.0452
24506SOL    HW175672   7.383   2.584   4.513 -0.5038  0.5587  0.6497
24506SOL    HW275673   7.232   2.587   4.498 -0.4294  0.1680 -0.2275
24507SOL     OW75674   3.017   6.351   2.993 -0.6114 -0.4019 -0.1922
24507SOL    HW175675   3.062   6.294   3.056  0.0686  0.8444  0.4847
24507SOL    HW275676   3.017   6.437   3.035 -0.3933  0.4028 -1.7800
24508SOL     OW75677   7.189   8.444   7.343 -0.0037 -0.6444  0.3642
24508SOL    HW175678   7.105   8.486   7.366  0.0294 -0.1960 -0.3297
24508SOL    HW275679   7.222   8.411   7.427  0.7375  2.0736  1.2623
24509SOL     OW75680   3.858   4.231   1.938 -0.2077  0.2089  0.6546
24509SOL    HW175681   3.941   4.221   1.985 -0.5314 -0.2161  1.1446
24509SOL    HW275682   3.872   4.184   1.855 -0.3808 -0.9874  1.2782
24510SOL     OW75683   4.890   3.895   7.180  0.7796 -0.3570 -0.4718
24510SOL    HW175684   4.873   3.843   7.258  0.2414 -3.9827 -2.7529
24510SOL    HW275685   4.806   3.932   7.156  0.8401  0.3190  0.3101
24511SOL     OW75686   8.860   3.376   5.097  0.0250 -0.2187 -0.0647
24511SOL    HW175687   8.841   3.296   5.048 -0.0061 -0.9865  1.1587
24511SOL    HW275688   8.776   3.421   5.103 -0.0185 -0.2386 -0.5088
24512SOL     OW75689   8.366   4.059   7.392 -0.3609  0.0528  0.1330
24512SOL    HW175690   8.308   4.116   7.442  0.9639  0.5996  1.1305
24512SOL    HW275691   8.416   4.119   7.337 -0.9411 -0.4351 -0.9514
24513SOL     OW75692   0.272   6.055   8.033 -0.0536 -0.0690 -0.6993
24513SOL    HW175693   0.360   6.049   7.996 -0.1923  0.0135 -1.0423
24513SOL    HW275694   0.217   6.003   7.974 -0.5381  1.2415 -1.4428
24514SOL     OW75695   6.361   5.596   6.410 -0.5184 -0.3037  0.0122
24514SOL    HW175696   6.397   5.510   6.432  0.5554 -0.6200 -2.6521
24514SOL    HW275697   6.434   5.645   6.373 -1.6915  0.8126 -0.9605
24515SOL     OW75698   6.969   5.940   5.742 -0.7504 -0.0344 -0.1223
24515SOL    HW175699   7.012   5.854   5.746 -0.9448 -0.1275 -0.0339
24515SOL    HW275700   6.997   5.976   5.658  0.4434  0.4055  0.4348
24516SOL     OW75701   5.378   4.973   9.441  0.0426  0.3743 -0.8425
24516SOL    HW175702   5.336   5.038   9.384 -0.4726 -0.1429 -1.0608
24516SOL    HW275703   5.468   5.003   9.449  0.1914  0.3100 -2.1359
24517SOL     OW75704   5.745   7.000   3.739 -0.0267 -0.0306  0.3294
24517SOL    HW175705   5.696   7.016   3.659  0.1707 -1.6624 -0.1498
24517SOL    HW275706   5.703   6.923   3.778 -1.4529  1.8780  2.9026
24518SOL     OW75707   3.353   5.593   7.585  0.2370  0.8212 -0.7973
24518SOL    HW175708   3.350   5.683   7.553  2.7489  1.8753  1.5456
24518SOL    HW275709   3.270   5.582   7.631 -0.0055  2.0327 -0.8986
24519SOL     OW75710   4.076   1.837   5.398 -0.7130  0.3189 -0.1333
24519SOL    HW175711   3.984   1.841   5.423 -0.6733  0.8962 -0.0718
24519SOL    HW275712   4.119   1.899   5.456  0.3472 -2.6564  2.5363
24520SOL     OW75713   4.194   7.424   2.311  0.6811 -0.0120  0.3446
24520SOL    HW175714   4.249   7.423   2.390  0.1818  1.0711  0.7204
24520SOL    HW275715   4.121   7.365   2.333  1.0954 -0.5647  0.2691
24521SOL     OW75716   7.898   0.883   9.124 -0.0642 -0.3254  0.2129
24521SOL    HW175717   7.964   0.952   9.115  0.3924 -0.7418  0.3222
24521SOL    HW275718   7.947   0.802   9.111 -0.6212 -0.6244 -0.0456
24522SOL     OW75719   1.321   5.308   7.362 -0.1412  0.4773  0.1765
24522SOL    HW175720   1.388   5.251   7.322  0.0341  0.0235  1.0747
24522SOL    HW275721   1.264   5.333   7.290 -1.2560 -2.2726 -0.0116
24523SOL     OW75722   4.071   7.137   6.588 -0.4448  0.2206 -0.0674
24523SOL    HW175723   4.043   7.146   6.679  3.9492 -1.5584  1.7583
24523SOL    HW275724   4.151   7.189   6.582  1.3963 -2.5370 -1.7375
24524SOL     OW75725   2.625   2.314   7.982 -0.5736 -0.0875 -0.4209
24524SOL    HW175726   2.720   2.309   7.966 -0.2506  1.8917  0.5574
24524SOL    HW275727   2.618   2.319   8.078 -1.5183  1.6400 -0.5542
24525SOL     OW75728   9.304   3.578   6.103  0.0211  0.9361 -0.2161
24525SOL    HW175729   9.301   3.483   6.114 -0.4386  0.9962  0.2427
24525SOL    HW275730   9.391   3.603   6.132  0.1482  0.6512 -0.3495
24526SOL     OW75731   1.381   3.759   6.198 -0.0221 -0.5081 -0.3255
24526SOL    HW175732   1.401   3.698   6.268 -0.7164 -0.4007 -0.0170
24526SOL    HW275733   1.428   3.839   6.221  1.4567 -1.1176 -1.0940
24527SOL     OW75734   5.931   6.841   3.407 -0.0402  0.2139 -0.3055
24527SOL    HW175735   5.938   6.926   3.452 -1.5376  0.3814 -0.3360
24527SOL    HW275736   6.002   6.789   3.444 -1.0813  0.4095  2.1479
24528SOL     OW75737   2.601   6.114   8.259 -0.0316 -0.0174  0.1398
24528SOL    HW175738   2.656   6.191   8.243 -0.0018  0.9617  3.9326
24528SOL    HW275739   2.663   6.044   8.279 -0.1146 -0.3971 -0.8790
24529SOL     OW75740   4.053   1.305   8.116 -0.1896  0.4307  0.0484
24529SOL    HW175741   4.000   1.261   8.182 -0.9055 -1.3468 -1.6015
24529SOL    HW275742   4.123   1.242   8.097 -0.1978  0.7573 -1.1028
24530SOL     OW75743   5.274   3.519   0.152 -0.2406 -0.8006  0.1662
24530SOL    HW175744   5.343   3.567   0.104 -1.4865 -0.0335 -0.9381
24530SOL    HW275745   5.320   3.445   0.191  2.1272  1.9712  3.2506
24531SOL     OW75746   0.390   9.135   4.725 -0.3251  0.2378 -0.1622
24531SOL    HW175747   0.414   9.073   4.657  0.4104 -1.8250  1.8250
24531SOL    HW275748   0.458   9.202   4.723 -0.2801  0.1696 -1.3815
24532SOL     OW75749   2.400   3.514   2.190 -0.0158 -0.7244 -0.3094
24532SOL    HW175750   2.436   3.563   2.264 -1.5716  0.6392 -0.3939
24532SOL    HW275751   2.474   3.463   2.157  1.1404 -0.0590  1.1139
24533SOL     OW75752   8.694   7.505   7.813  0.5950  0.1195 -0.1762
24533SOL    HW175753   8.710   7.420   7.853  0.5977  0.3318  0.2716
24533SOL    HW275754   8.664   7.484   7.724 -1.0812 -0.3889  0.4799
24534SOL     OW75755   9.289   9.454   4.169 -0.0499  0.2453 -0.6586
24534SOL    HW175756   9.216   9.413   4.122  0.6249 -0.9992 -0.6811
24534SOL    HW275757   9.354   9.473   4.101  1.3983 -2.5659 -0.2487
24535SOL     OW75758   3.847   2.746   2.774  0.5231 -0.1272 -0.5610
24535SOL    HW175759   3.895   2.825   2.800 -0.5516  0.4874 -0.3947
24535SOL    HW275760   3.761   2.778   2.748 -0.4033 -1.3990  0.8460
24536SOL     OW75761   5.274   0.328   4.344  0.0748  0.0952 -0.1929
24536SOL    HW175762   5.289   0.259   4.408 -1.3953  0.2462  0.3548
24536SOL    HW275763   5.267   0.283   4.260 -1.2616 -0.5050  0.2115
24537SOL     OW75764   7.337   4.288   8.480 -0.7077 -0.0221 -0.7029
24537SOL    HW175765   7.301   4.212   8.434 -0.6548 -0.0531 -0.6928
24537SOL    HW275766   7.301   4.281   8.569 -1.0807  0.2193 -0.8293
24538SOL     OW75767   8.102   3.228   1.431 -0.4463  0.3357  0.6532
24538SOL    HW175768   8.016   3.219   1.391  0.1003  1.3096 -0.8201
24538SOL    HW275769   8.155   3.160   1.390  0.1366  1.3907 -0.4141
24539SOL     OW75770   8.355   7.816   4.959 -0.0795 -0.2653 -0.0740
24539SOL    HW175771   8.283   7.777   5.009 -0.4655  0.8360  0.2768
24539SOL    HW275772   8.418   7.745   4.948 -0.3998 -0.7893  1.1856
24540SOL     OW75773   4.329   0.476   2.535  0.0362  0.3638 -0.1268
24540SOL    HW175774   4.405   0.497   2.590  0.0791  3.2333 -1.1103
24540SOL    HW275775   4.360   0.406   2.478  0.6514 -1.2216  1.9875
24541SOL     OW75776   7.280   8.602   9.139 -0.2162  0.0968  0.0753
24541SOL    HW175777   7.228   8.682   9.147  0.7005  0.9833 -2.0549
24541SOL    HW275778   7.347   8.624   9.074  1.7467 -1.5574  1.4362
24542SOL     OW75779   6.056   7.504   1.059 -0.3574 -0.4385  0.1899
24542SOL    HW175780   6.035   7.514   1.151 -1.8416  0.8923 -0.2458
24542SOL    HW275781   6.145   7.536   1.050 -0.4245  0.0012  1.0620
24543SOL     OW75782   0.717   0.661   1.681  0.5863  0.2051  0.1235
24543SOL    HW175783   0.724   0.568   1.702  0.0453  0.0005 -0.5780
24543SOL    HW275784   0.656   0.665   1.608  1.0409  1.0642 -0.2228
24544SOL     OW75785   4.575   7.959   0.640 -0.0836  0.1421  0.4827
24544SOL    HW175786   4.504   8.014   0.605 -0.9163 -1.7564 -0.9753
24544SOL    HW275787   4.544   7.869   0.627  2.4476 -0.7510  0.1289
24545SOL     OW75788   5.464   5.034   7.163 -0.2886  0.5965 -0.2877
24545SOL    HW175789   5.402   5.106   7.148 -1.0117 -0.5080 -3.3164
24545SOL    HW275790   5.467   4.987   7.080  2.2168 -1.3240  0.7529
24546SOL     OW75791   2.942   7.378   4.340 -0.1004 -0.3464 -0.4625
24546SOL    HW175792   2.887   7.434   4.286  0.6430  0.7058 -0.1719
24546SOL    HW275793   3.003   7.337   4.278  0.3492  0.3801 -0.5185
24547SOL     OW75794   6.697   7.741   0.572 -0.1874 -0.3314  0.0218
24547SOL    HW175795   6.789   7.731   0.546 -0.0004  0.4099  0.3677
24547SOL    HW275796   6.649   7.741   0.489  0.1649 -0.3682 -0.1849
24548SOL     OW75797   5.457   3.573   2.049  0.1889 -0.2355 -0.0402
24548SOL    HW175798   5.374   3.537   2.081  0.0567 -0.4596 -0.6192
24548SOL    HW275799   5.447   3.575   1.954  1.7283 -2.4774 -0.3132
24549SOL     OW75800   0.761   6.923   0.179  0.0445 -0.2978 -0.1569
24549SOL    HW175801   0.846   6.966   0.182 -0.0410 -0.1340 -0.0872
24549SOL    HW275802   0.714   6.968   0.109 -0.3438  0.2777  0.4564
24550SOL     OW75803   3.228   7.210   7.494 -0.0696  0.2672  0.1363
24550SOL    HW175804   3.185   7.257   7.422  1.5037  1.7334  0.0930
24550SOL    HW275805   3.321   7.232   7.485  0.5614 -1.8553  0.9177
24551SOL     OW75806   9.432   7.312   3.569 -0.3582  0.1486  0.0760
24551SOL    HW175807   9.391   7.322   3.483  1.8102  0.2550 -1.0000
24551SOL    HW275808   9.510   7.366   3.565 -0.6948  0.9288  2.4911
24552SOL     OW75809   6.713   6.786   3.011 -0.1247 -0.0789 -0.0314
24552SOL    HW175810   6.785   6.800   3.072  1.1121 -1.2732 -1.1689
24552SOL    HW275811   6.710   6.691   2.998 -2.1955 -0.1111  0.3031
24553SOL     OW75812   4.776   1.413   7.765  0.4338 -0.3072  0.0947
24553SOL    HW175813   4.802   1.380   7.851 -2.7144 -2.0079  0.5545
24553SOL    HW275814   4.733   1.496   7.784  1.8280  0.5136 -0.1914
24554SOL     OW75815   4.557   8.282   0.259  0.1600  0.5117 -0.3090
24554SOL    HW175816   4.585   8.190   0.257 -2.0380 -0.2188 -1.6168
24554SOL    HW275817   4.526   8.296   0.348  0.0287 -0.2101 -0.2333
24555SOL     OW75818   8.454   6.571   5.636 -0.5288 -0.0673 -0.0509
24555SOL    HW175819   8.484   6.632   5.568  0.9249  0.1739  0.7661
24555SOL    HW275820   8.500   6.489   5.617  0.0929  0.0746  0.7509
24556SOL     OW75821   4.346   6.837   5.429  0.1468 -0.3097  0.4881
24556SOL    HW175822   4.333   6.917   5.479  0.4780  0.1988 -0.2247
24556SOL    HW275823   4.440   6.818   5.438 -0.1163 -1.2106  1.5193
24557SOL     OW75824   4.376   3.849   8.655 -0.1496  0.3776  0.2066
24557SOL    HW175825   4.309   3.873   8.719 -2.3446  0.2809 -1.9163
24557SOL    HW275826   4.416   3.769   8.690 -1.2926  0.3286  1.4599
24558SOL     OW75827   0.060   7.153   0.484  0.0927 -0.1298  0.1046
24558SOL    HW175828   0.011   7.163   0.567  2.1318 -2.5562  1.7433
24558SOL    HW275829   0.022   7.075   0.443  1.1290 -0.7987  0.3676
24559SOL     OW75830   3.211   2.904   9.349 -0.6006  0.3647  0.1638
24559SOL    HW175831   3.126   2.863   9.361 -0.0996 -0.8121 -0.1606
24559SOL    HW275832   3.263   2.875   9.424 -0.8193  2.0650  1.0279
24560SOL     OW75833   6.223   7.704   6.373 -0.3285  0.2766 -0.3231
24560SOL    HW175834   6.192   7.788   6.405 -0.2594 -0.3878  1.6124
24560SOL    HW275835   6.151   7.643   6.388  0.0482 -0.2508 -0.5832
24561SOL     OW75836   0.713   8.811   1.030 -0.0883 -0.0153 -0.7202
24561SOL    HW175837   0.778   8.756   1.074 -0.6154 -0.4608 -0.5052
24561SOL    HW275838   0.766   8.879   0.987  0.4025  0.6232  0.8526
24562SOL     OW75839   0.506   1.670   5.252  0.0771 -0.2797 -0.0876
24562SOL    HW175840   0.455   1.636   5.325 -1.7660  0.6703 -0.8395
24562SOL    HW275841   0.594   1.683   5.287 -0.7784  0.2967  1.9826
24563SOL     OW75842   1.160   9.216   4.134  0.3539  0.4751  0.3410
24563SOL    HW175843   1.211   9.245   4.058 -1.5474 -0.1420 -1.2726
24563SOL    HW275844   1.099   9.288   4.151  0.4101  0.3872  0.9289
24564SOL     OW75845   2.993   7.484   1.533  0.1753 -0.3870  0.1487
24564SOL    HW175846   3.054   7.432   1.481 -0.0297  0.8495 -1.4064
24564SOL    HW275847   2.909   7.474   1.488  0.0593  0.9708  0.0439
24565SOL     OW75848   6.663   5.802   4.212 -0.5445  0.3423 -0.2518
24565SOL    HW175849   6.601   5.870   4.187 -0.3156  0.8639  0.5671
24565SOL    HW275850   6.608   5.728   4.239 -0.8143 -0.4162 -2.6155
24566SOL     OW75851   1.430   2.060   0.447  0.2974  0.2140 -0.1907
24566SOL    HW175852   1.450   2.101   0.531 -2.8909 -1.5663  1.6722
24566SOL    HW275853   1.383   2.128   0.398  0.0076  0.5376  0.5150
24567SOL     OW75854   0.267   2.659   2.386  0.1989 -0.2142 -0.4008
24567SOL    HW175855   0.184   2.707   2.389  1.0877  1.6980 -2.7463
24567SOL    HW275856   0.255   2.596   2.314  0.5327 -0.4362 -0.2616
24568SOL     OW75857   4.987   0.721   0.046  0.1314 -0.1789 -0.4803
24568SOL    HW175858   5.046   0.784   0.087 -0.7536  0.5586 -0.3204
24568SOL    HW275859   4.941   0.770  -0.022 -0.6203 -0.6215 -0.3082
24569SOL     OW75860   4.354   3.062   8.539  0.0699  0.2420  0.2507
24569SOL    HW175861   4.265   3.087   8.513 -1.1580 -1.3281  2.6432
24569SOL    HW275862   4.355   2.967   8.533  1.8814  0.2694 -0.4619
24570SOL     OW75863   2.891   2.934   3.554 -0.5667 -0.1402 -0.1303
24570SOL    HW175864   2.946   2.856   3.566  0.1609  0.4504  0.4870
24570SOL    HW275865   2.803   2.899   3.542 -0.4911 -1.0436  1.5616
24571SOL     OW75866   0.047   8.238   2.640  0.8239  0.1000  0.2867
24571SOL    HW175867   0.011   8.302   2.701 -0.5080 -1.1478  0.8466
24571SOL    HW275868   0.139   8.265   2.629  1.5108 -0.3438  3.8503
24572SOL     OW75869   8.807   5.969   5.124 -0.2658 -0.0682 -0.3728
24572SOL    HW175870   8.758   5.909   5.181 -1.1743  1.6047  0.6863
24572SOL    HW275871   8.855   6.026   5.184 -0.5306  1.1493 -1.2660
24573SOL     OW75872   6.410   1.643   9.019  0.3091 -0.1407  0.4489
24573SOL    HW175873   6.330   1.618   8.973  0.2532  1.0562 -0.1330
24573SOL    HW275874   6.381   1.668   9.107 -0.0249  0.6200  0.1340
24574SOL     OW75875   7.554   0.700   8.611  0.1576 -0.1679  0.3972
24574SOL    HW175876   7.638   0.654   8.607  0.6513  0.7501 -2.2443
24574SOL    HW275877   7.524   0.702   8.520 -1.1549  2.3214  0.7977
24575SOL     OW75878   3.538   0.472   7.565  1.1708 -0.3878  0.2038
24575SOL    HW175879   3.484   0.432   7.633  0.6193  1.2837  0.8113
24575SOL    HW275880   3.512   0.428   7.484 -0.0810 -0.6072  0.7017
24576SOL     OW75881   9.102   2.986   3.238  0.4181 -0.1495 -0.1050
24576SOL    HW175882   9.180   2.973   3.292 -0.1736 -0.4907  0.6833
24576SOL    HW275883   9.124   2.943   3.155  0.9000 -0.6454  0.2672
24577SOL     OW75884   2.513   8.345   7.481  0.4717 -0.5728  0.1182
24577SOL    HW175885   2.548   8.428   7.512  1.1833 -0.1871 -1.5885
24577SOL    HW275886   2.435   8.330   7.534 -0.2502  1.7005 -0.1761
24578SOL     OW75887   6.598   7.908   3.763  0.2830 -0.1903 -0.4274
24578SOL    HW175888   6.562   7.822   3.784  0.2252  0.2514  1.4505
24578SOL    HW275889   6.549   7.969   3.819  0.7736  0.9924 -1.2427
24579SOL     OW75890   8.632   6.171   2.854 -0.2943  0.1339  0.3747
24579SOL    HW175891   8.571   6.225   2.805 -0.8770 -1.7960 -1.1710
24579SOL    HW275892   8.581   6.095   2.882  1.0212 -0.7776  0.4143
24580SOL     OW75893   5.584   2.410   1.835 -0.0850  0.0520 -0.2854
24580SOL    HW175894   5.561   2.395   1.743  0.5647 -1.3648 -0.2539
24580SOL    HW275895   5.501   2.402   1.882 -0.0495 -2.1280 -0.4728
24581SOL     OW75896   8.314   8.490   0.880  0.2741  0.2310 -0.0811
24581SOL    HW175897   8.274   8.523   0.799  0.4268  0.8418  0.0835
24581SOL    HW275898   8.377   8.424   0.850 -1.4635 -1.4086 -0.2838
24582SOL     OW75899   3.171   8.484   5.900  0.4485  0.1687 -0.0694
24582SOL    HW175900   3.101   8.493   5.965  0.1068 -2.5622  0.0567
24582SOL    HW275901   3.248   8.461   5.952  0.7229  0.2051 -0.4574
24583SOL     OW75902   8.133   1.289   1.731 -0.2040 -0.0975  0.3432
24583SOL    HW175903   8.096   1.348   1.796  0.1528 -1.0575  1.4419
24583SOL    HW275904   8.058   1.240   1.697 -0.2347 -0.4532  0.9231
24584SOL     OW75905   3.305   4.993   9.453 -0.8704 -0.0067 -0.7469
24584SOL    HW175906   3.321   4.899   9.451 -1.9316 -0.2231 -0.0020
24584SOL    HW275907   3.313   5.021   9.362  1.2158 -0.4845 -0.7529
24585SOL     OW75908   3.646   0.867   5.202 -0.5884 -0.0108 -0.1665
24585SOL    HW175909   3.577   0.849   5.266  0.0424 -1.3451  0.1762
24585SOL    HW275910   3.681   0.781   5.181  2.2280  0.7359  1.0827
24586SOL     OW75911   3.426   5.471   9.162 -0.0972  0.0972  0.1407
24586SOL    HW175912   3.375   5.431   9.232 -0.9054  0.9615  0.0670
24586SOL    HW275913   3.384   5.556   9.147 -0.2525 -0.2643 -1.7113
24587SOL     OW75914   7.291   8.059   6.752  0.1114  0.2273  0.4851
24587SOL    HW175915   7.200   8.086   6.742  0.3407  0.0881 -3.3823
24587SOL    HW275916   7.333   8.133   6.797 -1.7180  0.5148  1.8762
24588SOL     OW75917   5.703   3.036   8.824 -0.2294 -0.6511 -0.2958
24588SOL    HW175918   5.753   3.069   8.750 -3.1316  0.1378 -2.0706
24588SOL    HW275919   5.616   3.018   8.788 -1.5638 -0.9577  2.7751
24589SOL     OW75920   7.762   6.444   7.676 -0.1994  0.2295  0.1961
24589SOL    HW175921   7.714   6.400   7.746  1.5884  0.0274  1.3641
24589SOL    HW275922   7.758   6.537   7.698  1.0367  0.1010  1.0564
24590SOL     OW75923   2.123   1.990   2.400 -0.2999  0.2201 -0.5410
24590SOL    HW175924   2.216   2.001   2.378  0.1356 -0.7460  0.6749
24590SOL    HW275925   2.120   1.908   2.450 -1.4682  1.3513  1.3523
24591SOL     OW75926   1.238   0.604   7.960 -0.2132 -0.3142 -0.1011
24591SOL    HW175927   1.173   0.650   8.013 -0.0906 -0.5319  0.2407
24591SOL    HW275928   1.321   0.645   7.983 -0.3685  0.9322 -1.5726
24592SOL     OW75929   5.574   5.664   6.894 -0.1217 -0.2312  0.1119
24592SOL    HW175930   5.599   5.637   6.983 -2.8694  0.9981  1.3814
24592SOL    HW275931   5.642   5.725   6.868  1.9393 -2.2705  0.3964
24593SOL     OW75932   3.987   1.040   1.596  0.4751  0.7934 -0.0966
24593SOL    HW175933   3.965   0.954   1.560  1.7857  0.9003 -1.2482
24593SOL    HW275934   3.936   1.046   1.677 -3.2217  0.8607 -2.2334
24594SOL     OW75935   7.689   7.426   8.672 -0.4567 -0.1672  0.2552
24594SOL    HW175936   7.784   7.423   8.679 -0.4025  0.6562 -0.0339
24594SOL    HW275937   7.660   7.471   8.751 -0.4279  1.6567 -0.7219
24595SOL     OW75938   7.789   4.781   5.982  0.2912 -0.5394  0.5960
24595SOL    HW175939   7.750   4.813   5.901  1.2067 -0.6417  0.0945
24595SOL    HW275940   7.717   4.778   6.044 -0.3531 -0.1041 -0.1113
24596SOL     OW75941   4.032   7.065   1.681 -0.1556  0.5255 -0.3408
24596SOL    HW175942   3.964   7.064   1.614  0.6687 -0.8517 -1.1942
24596SOL    HW275943   4.090   6.993   1.658  1.2290  1.2389  0.7528
24597SOL     OW75944   7.218   3.466   1.935  0.3693 -0.0243  0.0469
24597SOL    HW175945   7.228   3.488   2.028  1.5852  1.0807 -0.3193
24597SOL    HW275946   7.190   3.375   1.935  1.2058 -0.3077  1.4800
24598SOL     OW75947   9.497   5.312   1.092 -0.1919  0.1910  0.0330
24598SOL    HW175948   9.569   5.365   1.127 -0.5451 -0.1358  1.3233
24598SOL    HW275949   9.535   5.224   1.084 -0.0418  0.3145 -0.6648
24599SOL     OW75950   4.419   0.613   4.843 -0.4277  0.3236 -0.0797
24599SOL    HW175951   4.502   0.639   4.886 -1.1032  0.8435  0.9663
24599SOL    HW275952   4.436   0.624   4.750  0.1849  2.0432  0.1853
24600SOL     OW75953   5.981   4.013   9.413 -0.4302  0.1690  0.3914
24600SOL    HW175954   5.937   3.950   9.357  1.5828 -1.3505  0.4129
24600SOL    HW275955   6.022   4.076   9.353 -2.0253  1.2433  0.3598
24601SOL     OW75956   2.275   1.182   8.104 -0.2321 -0.3873 -0.1769
24601SOL    HW175957   2.234   1.098   8.122  0.7835 -0.8748 -0.0632
24601SOL    HW275958   2.236   1.212   8.022 -1.3289 -0.4839  0.3018
24602SOL     OW75959   9.551   9.187   1.672 -0.4742  0.3156  0.3160
24602SOL    HW175960   9.516   9.252   1.611  0.9159  0.2307 -0.6381
24602SOL    HW275961   9.541   9.226   1.758 -0.7637  1.2685 -0.1432
24603SOL     OW75962   3.844   0.546   8.138  0.1541 -0.0458  0.4569
24603SOL    HW175963   3.935   0.522   8.120  0.8763  1.5070  1.8004
24603SOL    HW275964   3.846   0.640   8.150 -1.5089 -0.0849  1.3101
24604SOL     OW75965   0.270   4.591   0.237  0.2196 -0.0678 -0.2133
24604SOL    HW175966   0.237   4.671   0.198 -0.1075  0.8455  1.8013
24604SOL    HW275967   0.192   4.545   0.270  0.3648 -1.4163 -1.6309
24605SOL     OW75968   6.811   2.976   6.150 -0.0089  0.3733  0.1587
24605SOL    HW175969   6.791   3.000   6.060 -2.3775  3.4912  1.3285
24605SOL    HW275970   6.770   2.890   6.162 -2.7286  1.4216 -0.8731
24606SOL     OW75971   0.012   8.459   7.176  0.2996  0.1483 -0.9336
24606SOL    HW175972  -0.068   8.422   7.138 -0.6064  1.5068 -0.4562
24606SOL    HW275973  -0.008   8.467   7.269  0.6032  1.3993 -0.9591
24607SOL     OW75974   1.695   0.337   6.356  0.0267 -0.0683  0.2473
24607SOL    HW175975   1.790   0.350   6.347  0.0717  0.0980  0.8900
24607SOL    HW275976   1.682   0.244   6.340  0.2063  0.0402 -0.5509
24608SOL     OW75977   9.140   4.224   2.927  0.9603  0.7653 -0.1929
24608SOL    HW175978   9.111   4.195   3.013  0.1071  0.0820 -0.6797
24608SOL    HW275979   9.182   4.308   2.942 -1.3810  1.8913  0.6082
24609SOL     OW75980   1.592   7.964   9.414 -0.2285  0.3358  0.0371
24609SOL    HW175981   1.566   7.933   9.501 -1.6182  0.5267 -0.2901
24609SOL    HW275982   1.570   8.057   9.414 -0.5967  0.2509 -0.6495
24610SOL     OW75983   5.748   1.112   0.543  0.6080 -0.4739  0.5251
24610SOL    HW175984   5.816   1.180   0.545  0.7960 -0.6342 -0.0546
24610SOL    HW275985   5.708   1.115   0.630  0.5678  0.4234  0.4862
24611SOL     OW75986   1.143   3.936   0.539 -0.0774 -0.5879  0.2721
24611SOL    HW175987   1.070   3.892   0.495  0.7346 -0.3934 -1.3391
24611SOL    HW275988   1.153   4.019   0.491  0.0346  0.2287  1.6558
24612SOL     OW75989   1.822   9.020   3.939 -0.2882  0.5504 -0.5782
24612SOL    HW175990   1.753   9.079   3.969 -1.7757 -0.9935 -0.7531
24612SOL    HW275991   1.774   8.949   3.895  1.4792 -0.1998 -1.3860
24613SOL     OW75992   7.138   9.522   3.154  0.2858  0.2094  0.2941
24613SOL    HW175993   7.075   9.588   3.184 -0.2537  0.0448 -0.4476
24613SOL    HW275994   7.204   9.571   3.106  0.9113  0.4205  1.3322
24614SOL     OW75995   2.644   6.018   2.276  0.3157 -0.1195 -0.0675
24614SOL    HW175996   2.615   5.993   2.189  1.8439 -1.6826 -0.1733
24614SOL    HW275997   2.666   5.936   2.319  1.3143  0.7421  1.1477
24615SOL     OW75998   3.562   8.456   4.252 -0.6956  0.2564 -0.3810
24615SOL    HW175999   3.630   8.390   4.242 -1.5949 -0.5487 -1.4832
24615SOL    HW276000   3.598   8.534   4.211  0.2511  0.3780  0.6431
24616SOL     OW76001   7.580   6.229   2.708  0.8532 -0.2408 -0.1492
24616SOL    HW176002   7.667   6.192   2.697  0.9337  0.1854 -1.0839
24616SOL    HW276003   7.545   6.234   2.618 -0.2040 -0.5919  0.2230
24617SOL     OW76004   0.873   9.345   6.527 -0.1989  0.0119  0.6257
24617SOL    HW176005   0.874   9.363   6.433 -1.7808  0.1467  0.6076
24617SOL    HW276006   0.891   9.430   6.568 -1.1009  0.2936  0.4544
24618SOL     OW76007   7.778   7.798   3.847 -0.2747  0.0414 -0.0712
24618SOL    HW176008   7.859   7.849   3.848  0.3702 -0.8985 -0.9872
24618SOL    HW276009   7.808   7.708   3.835 -1.4324 -0.4255  0.4077
24619SOL     OW76010   8.866   8.116   8.383 -0.1208 -0.0098  0.2224
24619SOL    HW176011   8.861   8.115   8.288  0.6847  0.2136  0.1713
24619SOL    HW276012   8.858   8.024   8.409 -2.5469  0.0880  0.0958
24620SOL     OW76013   0.088   6.831   6.047  0.2472 -0.2333 -0.3164
24620SOL    HW176014   0.079   6.763   6.114 -0.3077  0.7033  0.5855
24620SOL    HW276015   0.076   6.784   5.964  2.8037 -1.7587  0.0668
24621SOL     OW76016   5.704   2.945   2.093 -0.1867  0.1233 -0.3185
24621SOL    HW176017   5.787   2.979   2.059 -0.2810 -0.0900 -0.7739
24621SOL    HW276018   5.670   2.891   2.022  0.2195 -1.3708  0.5801
24622SOL     OW76019   0.300   0.720   8.381 -0.0885  0.3934  0.4256
24622SOL    HW176020   0.391   0.741   8.400 -0.0893  0.4199  0.4007
24622SOL    HW276021   0.301   0.627   8.357 -0.0487  0.4275  0.2961
24623SOL     OW76022   2.241   6.111   1.587 -0.0338 -0.2224 -0.2000
24623SOL    HW176023   2.315   6.170   1.581 -2.2987  2.7638 -1.0494
24623SOL    HW276024   2.225   6.083   1.497 -0.3839 -0.2845 -0.1202
24624SOL     OW76025   2.636   7.808   8.599 -0.2239  0.0198  0.2601
24624SOL    HW176026   2.707   7.853   8.553  0.4131 -0.4558  0.7678
24624SOL    HW276027   2.672   7.787   8.685 -0.9074 -0.4241  0.4472
24625SOL     OW76028   8.852   1.978   7.655 -0.9147 -0.2759 -0.1456
24625SOL    HW176029   8.827   1.889   7.678  0.0077 -0.1584  1.4997
24625SOL    HW276030   8.823   2.031   7.730  0.0865  0.5248 -0.2965
24626SOL     OW76031   2.954   4.717   4.071 -0.6784 -0.0255  0.3073
24626SOL    HW176032   2.863   4.689   4.067 -0.7357  0.0333  1.0358
24626SOL    HW276033   2.963   4.756   4.158 -0.0231  0.1958  0.1437
24627SOL     OW76034   5.029   6.750   6.530 -0.3096  0.0139  0.0642
24627SOL    HW176035   5.055   6.659   6.546  0.9095  0.9132  4.8602
24627SOL    HW276036   5.106   6.790   6.489  0.0263 -0.6026  0.0881
24628SOL     OW76037   6.349   5.880   8.204  0.4186 -0.2609  0.2246
24628SOL    HW176038   6.342   5.810   8.269  0.1043 -2.5065 -2.0598
24628SOL    HW276039   6.443   5.887   8.187  0.5363  0.6325  1.2020
24629SOL     OW76040   2.521   4.257   7.367  0.3011  0.1813  0.2564
24629SOL    HW176041   2.479   4.343   7.377 -0.9593 -0.5832  2.1935
24629SOL    HW276042   2.572   4.246   7.447  0.0712 -1.0425  0.2511
24630SOL     OW76043   0.354   2.609   1.885 -0.4508 -0.1409  0.2557
24630SOL    HW176044   0.308   2.673   1.939 -2.0389 -0.2105 -0.9507
24630SOL    HW276045   0.306   2.528   1.897  0.6304 -0.7567  0.5707
24631SOL     OW76046   8.349   7.578   1.213  0.1173 -0.0365  0.5450
24631SOL    HW176047   8.338   7.554   1.121 -0.2128 -0.4677  0.6932
24631SOL    HW276048   8.260   7.575   1.250  0.2362  0.2014  0.8629
24632SOL     OW76049   8.805   7.049   6.442 -0.4326 -0.8241 -0.6716
24632SOL    HW176050   8.832   7.080   6.529  1.1109  0.3217 -1.5075
24632SOL    HW276051   8.886   7.015   6.403 -0.9433 -0.5908 -1.9606
24633SOL     OW76052   0.149   6.663   2.897 -0.0672 -0.2078 -0.7709
24633SOL    HW176053   0.116   6.621   2.977  1.8399 -1.3522 -0.5231
24633SOL    HW276054   0.137   6.757   2.912 -0.6964 -0.4524  0.3983
24634SOL     OW76055   6.785   6.022   6.319 -0.3163  0.5252  0.2555
24634SOL    HW176056   6.763   6.082   6.391  0.9745  2.1996 -0.6666
24634SOL    HW276057   6.879   6.009   6.327 -0.1457  0.7615 -1.1064
24635SOL     OW76058   5.061   6.097   5.342 -0.0174 -0.7432  0.3876
24635SOL    HW176059   5.028   6.158   5.408  0.3393 -0.6089  0.4431
24635SOL    HW276060   5.109   6.031   5.392  0.7631 -0.3154  0.2232
24636SOL     OW76061   2.675   3.714   8.953  0.0963 -0.0179 -0.1925
24636SOL    HW176062   2.752   3.759   8.988  0.6307 -1.4157  0.5300
24636SOL    HW276063   2.625   3.782   8.908  2.1117  0.7975 -1.3212
24637SOL     OW76064   4.546   3.730   8.076  0.4037  0.0101  0.4011
24637SOL    HW176065   4.495   3.696   8.003 -0.4588  1.8471  0.0777
24637SOL    HW276066   4.635   3.739   8.041  0.1071  0.3909 -0.2681
24638SOL     OW76067   4.890   8.968   1.407 -0.3192  0.4708  0.6752
24638SOL    HW176068   4.908   8.884   1.448 -1.0629 -0.2211 -0.3662
24638SOL    HW276069   4.799   8.987   1.431 -0.3826  0.6240  0.3178
24639SOL     OW76070   6.099   3.646   6.581 -0.2846 -0.3912 -0.1970
24639SOL    HW176071   6.080   3.649   6.487 -0.1747  0.2552 -0.2015
24639SOL    HW276072   6.014   3.637   6.623 -0.4554  0.6361 -0.3029
24640SOL     OW76073   5.245   8.296   3.024 -0.0696 -0.1674  0.2074
24640SOL    HW176074   5.220   8.236   2.953 -0.3588 -0.6742  0.7242
24640SOL    HW276075   5.182   8.368   3.017  1.0770  0.7598 -1.2285
24641SOL     OW76076   7.689   0.076   2.158 -0.0646 -0.7919  0.3158
24641SOL    HW176077   7.727   0.085   2.071 -0.6150  0.0280  0.1476
24641SOL    HW276078   7.615   0.136   2.158 -0.1777 -0.9165  1.2899
24642SOL     OW76079   3.345   8.752   5.980 -0.1998 -0.2754  0.3477
24642SOL    HW176080   3.279   8.724   6.043 -0.5223  1.0252  0.6265
24642SOL    HW276081   3.425   8.761   6.032  0.1202 -1.4495  0.0910
24643SOL     OW76082   7.687   2.279   2.407  0.2423  0.5350 -0.3575
24643SOL    HW176083   7.682   2.244   2.318 -0.9945 -0.5231  0.1023
24643SOL    HW276084   7.623   2.229   2.456  1.5419  0.4615  1.3579
24644SOL     OW76085   1.643   1.961   1.571 -0.4978  0.1498  0.3559
24644SOL    HW176086   1.571   1.943   1.511  0.0755  0.0492 -0.3111
24644SOL    HW276087   1.697   2.026   1.526  0.4053 -0.5645  0.3773
24645SOL     OW76088   7.222   7.758   8.646  0.3448  0.3781  0.0073
24645SOL    HW176089   7.203   7.827   8.583  1.2486  0.1798 -0.5074
24645SOL    HW276090   7.146   7.756   8.705 -0.5383  0.5272 -1.1021
24646SOL     OW76091   1.943   5.786   4.398  0.3918  0.3100  0.5311
24646SOL    HW176092   1.920   5.762   4.487 -0.7838  1.3043  0.5243
24646SOL    HW276093   1.888   5.730   4.343  0.6497  0.1426  0.4431
24647SOL     OW76094   5.724   8.552   5.531 -0.3820  0.0108 -0.3892
24647SOL    HW176095   5.686   8.610   5.597  1.3404  1.6718 -0.7684
24647SOL    HW276096   5.656   8.487   5.515 -1.8307  1.0392  1.1536
24648SOL     OW76097   5.725   4.165   2.238 -0.0425  0.7648 -0.2095
24648SOL    HW176098   5.773   4.244   2.215  0.3311  0.6749  0.2531
24648SOL    HW276099   5.691   4.182   2.326  0.0824  0.3966 -0.0851
24649SOL     OW76100   1.933   2.360   6.866  1.1963  0.6371 -0.1393
24649SOL    HW176101   1.957   2.340   6.957  1.7918  0.9887 -0.2115
24649SOL    HW276102   1.864   2.426   6.874 -0.5537 -1.1155  0.0884
24650SOL     OW76103   7.632   3.497   7.283  0.9146  0.1778  0.0666
24650SOL    HW176104   7.614   3.455   7.367  0.1715 -0.1721 -0.2587
24650SOL    HW276105   7.686   3.573   7.306  1.3031 -0.2950  0.7806
24651SOL     OW76106   7.847   4.244   6.634 -0.2108 -0.2682  0.3889
24651SOL    HW176107   7.876   4.234   6.725  2.5339 -2.4343 -0.5831
24651SOL    HW276108   7.861   4.158   6.595  0.7598  1.1381 -2.6298
24652SOL     OW76109   7.311   7.535   8.554 -0.3782 -0.8000 -0.4892
24652SOL    HW176110   7.289   7.617   8.597 -2.2802 -1.6350  0.2609
24652SOL    HW276111   7.301   7.552   8.461  1.9936  0.5372 -0.5626
24653SOL     OW76112   8.918   5.728   8.924 -0.2723 -0.2143 -0.6814
24653SOL    HW176113   8.935   5.774   9.006 -0.1142  0.5783 -1.1376
24653SOL    HW276114   8.851   5.782   8.880  1.2908  0.6750 -2.0863
24654SOL     OW76115   0.951   6.187   2.950  0.1882  0.4263 -0.1683
24654SOL    HW176116   0.866   6.199   2.993  1.0346 -1.3019  2.2169
24654SOL    HW276117   1.000   6.266   2.970 -0.3015  0.7350 -0.1761
24655SOL     OW76118   6.831   2.943   3.055 -0.2167  0.1911 -0.0995
24655SOL    HW176119   6.852   2.974   3.143 -1.3966  0.4706  0.0953
24655SOL    HW276120   6.776   3.012   3.017  0.5964  0.2623 -1.2071
24656SOL     OW76121   2.086   7.031   1.729  0.6321 -0.3772 -0.1446
24656SOL    HW176122   2.071   7.121   1.698  1.0279 -0.0936  0.4763
24656SOL    HW276123   2.169   7.006   1.689  0.8957 -0.1927  0.2867
24657SOL     OW76124   2.595   6.063   6.885 -0.8113 -0.0009  0.3136
24657SOL    HW176125   2.634   6.148   6.869  0.2714 -0.2977  1.3123
24657SOL    HW276126   2.500   6.079   6.882 -0.6245  1.0240 -0.5192
24658SOL     OW76127   7.089   5.231   9.057  0.3049 -0.5934 -0.0951
24658SOL    HW176128   7.111   5.324   9.067  2.1053 -1.1842  2.6364
24658SOL    HW276129   7.138   5.204   8.979  1.3343  0.3616  0.1827
24659SOL     OW76130   3.199   9.556   0.794 -0.2300 -0.2822 -0.4102
24659SOL    HW176131   3.226   9.603   0.715 -1.6817 -2.5167 -2.3588
24659SOL    HW276132   3.186   9.625   0.859  1.6127  1.5952 -1.8834
24660SOL     OW76133   8.823   1.749   6.759 -0.1850  0.4466  0.4939
24660SOL    HW176134   8.856   1.839   6.756 -0.3281  0.5175  0.8945
24660SOL    HW276135   8.766   1.741   6.683 -2.0522  1.4463  1.7227
24661SOL     OW76136   7.843   6.325   8.827 -0.1872  0.0289 -0.4099
24661SOL    HW176137   7.842   6.239   8.869 -1.5496  1.1716  2.1034
24661SOL    HW276138   7.764   6.327   8.773 -1.3167  0.3828  1.1832
24662SOL     OW76139   0.556   7.156   4.632 -0.1941 -0.0729 -0.1505
24662SOL    HW176140   0.502   7.151   4.711  2.2876 -0.8829  1.6232
24662SOL    HW276141   0.541   7.073   4.587  0.8353 -1.0785  1.2746
24663SOL     OW76142   7.902   1.110   1.311  0.1488  0.6788  0.3379
24663SOL    HW176143   7.938   1.196   1.334  1.7803  0.3207 -0.7172
24663SOL    HW276144   7.946   1.048   1.369 -1.3704  0.5475  1.4266
24664SOL     OW76145   7.402   4.892   6.144  0.2518  0.8139 -0.1593
24664SOL    HW176146   7.495   4.870   6.152 -0.2355 -1.1711  0.5481
24664SOL    HW276147   7.372   4.901   6.235 -0.5188  0.1376 -0.3367
24665SOL     OW76148   2.633   6.850   2.619  0.0578 -0.9644 -0.2472
24665SOL    HW176149   2.626   6.892   2.533 -3.0822 -2.2293 -0.7671
24665SOL    HW276150   2.725   6.827   2.628  1.2400  2.6732 -1.4765
24666SOL     OW76151   5.301   0.638   5.862 -0.1312  0.0642  0.0852
24666SOL    HW176152   5.370   0.695   5.828  0.4326 -0.1184  0.8835
24666SOL    HW276153   5.220   0.675   5.828  0.3917 -0.0386 -1.3361
24667SOL     OW76154   1.777   7.521   1.504  0.2600 -0.5851  0.0719
24667SOL    HW176155   1.839   7.452   1.479  0.0561 -0.5910 -0.4379
24667SOL    HW276156   1.809   7.552   1.588  1.0441 -0.4878 -0.2514
24668SOL     OW76157   6.480   6.927   3.071  0.7755 -0.2317  0.1740
24668SOL    HW176158   6.505   7.011   3.033  0.2222 -0.1560 -0.0372
24668SOL    HW276159   6.548   6.866   3.042  1.0892  0.1066  0.1925
24669SOL     OW76160   1.184   8.618   5.345 -0.2269  0.4582 -0.4001
24669SOL    HW176161   1.209   8.593   5.434 -3.3062  1.7983  0.9843
24669SOL    HW276162   1.249   8.684   5.320 -0.1324  1.1746  1.5024
24670SOL     OW76163   7.726   2.766   3.317 -0.4686 -0.6426  0.0824
24670SOL    HW176164   7.754   2.676   3.304 -2.7465 -0.9435 -4.2591
24670SOL    HW276165   7.633   2.761   3.336 -0.5430  0.8241  0.2583
24671SOL     OW76166   2.514   8.497   7.895  0.0690 -0.1040  0.1634
24671SOL    HW176167   2.448   8.563   7.915  1.5407  1.4975  0.0031
24671SOL    HW276168   2.476   8.415   7.925 -1.4783  0.9319  1.1895
24672SOL     OW76169   3.087   2.063   7.875  0.2066 -0.1603  0.4540
24672SOL    HW176170   3.064   2.094   7.962  1.4304  1.8970  0.1210
24672SOL    HW276171   3.179   2.090   7.863 -0.1915  0.4570 -1.7768
24673SOL     OW76172   0.332   7.952   0.531 -0.4058  0.0204  0.0359
24673SOL    HW176173   0.269   7.950   0.604 -1.2748  0.9222 -0.6660
24673SOL    HW276174   0.280   7.929   0.454 -0.3275  2.5313 -0.8461
24674SOL     OW76175   2.952   3.797   6.045  0.1936  0.1737 -0.5065
24674SOL    HW176176   2.856   3.802   6.045 -0.0019 -1.9396 -1.6885
24674SOL    HW276177   2.972   3.740   6.119  0.7364  2.2745  1.0172
24675SOL     OW76178   1.011   9.380   2.149  0.1100 -0.4213  0.0647
24675SOL    HW176179   1.034   9.326   2.225  0.0476 -1.0029 -0.3250
24675SOL    HW276180   0.959   9.322   2.094 -2.0755  0.7740  0.7813
24676SOL     OW76181   7.873   2.335   6.425 -0.8659  0.1936 -0.4010
24676SOL    HW176182   7.891   2.241   6.418 -2.9530 -0.7144  3.4400
24676SOL    HW276183   7.822   2.355   6.347  0.4465 -1.5871 -1.8036
24677SOL     OW76184   4.792   6.741   2.052  0.1536 -0.1493 -0.0372
24677SOL    HW176185   4.838   6.745   1.968 -0.9023 -0.5027 -0.6452
24677SOL    HW276186   4.778   6.647   2.067 -1.5711 -0.0081 -0.5526
24678SOL     OW76187   4.806   1.691   2.907  0.0054 -0.0020  0.4912
24678SOL    HW176188   4.756   1.619   2.946 -0.9789  0.9500  1.0541
24678SOL    HW276189   4.850   1.651   2.832 -3.4876 -0.4604 -1.5479
24679SOL     OW76190   1.515   2.263   3.636 -0.0126 -0.2978  0.4930
24679SOL    HW176191   1.576   2.191   3.653 -0.7664 -0.6663  1.7917
24679SOL    HW276192   1.513   2.271   3.540  1.1189 -1.0936  0.3897
24680SOL     OW76193   6.469   2.926   3.930 -0.2573  0.6202 -0.4374
24680SOL    HW176194   6.511   2.875   3.999 -1.8727  0.4150  0.4568
24680SOL    HW276195   6.437   2.861   3.867  0.6371  0.7651 -1.0531
24681SOL     OW76196   1.439   0.935   3.479  0.0886  0.5297  0.9371
24681SOL    HW176197   1.512   0.959   3.536  0.7789  1.6724 -0.3834
24681SOL    HW276198   1.411   1.018   3.440 -0.5601 -0.1895 -0.1588
24682SOL     OW76199   2.353   6.121   3.736  0.2028 -0.3635 -0.4504
24682SOL    HW176200   2.309   6.041   3.708  1.1333 -0.4093 -1.8560
24682SOL    HW276201   2.363   6.111   3.830 -1.2464 -1.1111 -0.3418
24683SOL     OW76202   7.107   8.799   1.412 -0.0147  0.3070  0.0705
24683SOL    HW176203   7.021   8.832   1.438  0.3617  0.6024  1.0174
24683SOL    HW276204   7.165   8.875   1.420  0.4826 -0.0797  0.2632
24684SOL     OW76205   4.429   2.592   3.974  0.1700 -0.7268 -0.5087
24684SOL    HW176206   4.388   2.600   3.888  1.3523 -2.0847 -1.2334
24684SOL    HW276207   4.409   2.675   4.018 -0.7047 -0.1295 -1.9645
24685SOL     OW76208   2.778   8.650   6.722  0.0486 -0.6088 -0.4889
24685SOL    HW176209   2.807   8.641   6.631  0.7580 -1.5797 -0.1825
24685SOL    HW276210   2.772   8.744   6.736 -1.0727 -0.4475 -1.8446
24686SOL     OW76211   8.780   4.841   6.178 -0.3638  0.1444 -0.7499
24686SOL    HW176212   8.864   4.827   6.133 -0.1409  2.6195 -1.2645
24686SOL    HW276213   8.796   4.811   6.268  0.5941 -0.7654 -1.1909
24687SOL     OW76214   2.992   7.333   2.041  0.4156 -0.3340 -0.0947
24687SOL    HW176215   2.959   7.423   2.047 -0.5791 -0.6029 -1.1645
24687SOL    HW276216   2.928   7.280   2.087 -0.2721 -0.7609 -1.4792
24688SOL     OW76217   9.495   7.959   0.148 -0.0979 -0.2392 -0.2233
24688SOL    HW176218   9.487   7.883   0.206  1.8038 -1.2754 -1.2274
24688SOL    HW276219   9.413   7.960   0.098 -0.6827 -0.8512  0.7046
24689SOL     OW76220   1.666   7.059   2.768 -0.3429  0.3362 -0.5763
24689SOL    HW176221   1.681   6.965   2.778 -2.9501 -0.1458 -0.4746
24689SOL    HW276222   1.584   7.065   2.720  0.6547  2.6163 -2.1405
24690SOL     OW76223   8.181   8.327   4.749  0.2316 -0.1702 -0.1255
24690SOL    HW176224   8.167   8.262   4.817 -1.2728  0.1235 -0.1130
24690SOL    HW276225   8.236   8.393   4.790 -1.1441  0.3061  1.0566
24691SOL     OW76226   2.266   7.302   1.486 -0.0331 -0.0651  0.3952
24691SOL    HW176227   2.313   7.234   1.439 -0.5947 -0.1652 -0.0372
24691SOL    HW276228   2.328   7.335   1.551  0.6020 -0.2330 -0.1271
24692SOL     OW76229   3.126   8.904   5.515 -0.2285  0.0738  0.0258
24692SOL    HW176230   3.071   8.828   5.496 -2.3699  0.8645  2.4893
24692SOL    HW276231   3.155   8.891   5.605 -1.5909  2.6179  0.9359
24693SOL     OW76232   3.617   9.013   8.815 -0.0290  0.0775 -0.0796
24693SOL    HW176233   3.560   9.084   8.785  2.0252  0.8900 -2.3965
24693SOL    HW276234   3.609   8.946   8.748  2.2575  0.5674 -0.9532
24694SOL     OW76235   3.490   9.182   3.655 -0.4448  0.3954  0.2024
24694SOL    HW176236   3.412   9.143   3.694 -1.3934  2.3311  0.3871
24694SOL    HW276237   3.465   9.273   3.639  1.5776  0.9029 -0.3255
24695SOL     OW76238   0.771   8.061   6.957  0.0219 -0.0128  0.1367
24695SOL    HW176239   0.710   7.989   6.940 -0.6697  0.5981 -0.0246
24695SOL    HW276240   0.786   8.058   7.052 -0.5885  0.0841  0.2394
24696SOL     OW76241   8.297   3.212   3.786 -0.0595 -0.1663 -0.5767
24696SOL    HW176242   8.238   3.136   3.781 -0.2318  0.0004 -1.2729
24696SOL    HW276243   8.346   3.200   3.867 -0.6248 -0.6278 -0.3004
24697SOL     OW76244   5.199   0.153   3.575 -0.3279 -0.0580 -0.0478
24697SOL    HW176245   5.222   0.089   3.642 -0.8090 -1.1929 -0.9357
24697SOL    HW276246   5.169   0.101   3.501 -0.1183  1.1722 -1.0416
24698SOL     OW76247   5.606   4.795   6.371 -0.3989  0.2912 -0.2421
24698SOL    HW176248   5.551   4.717   6.370  1.4233 -1.0629  0.4262
24698SOL    HW276249   5.574   4.846   6.446 -0.9614 -0.2899 -0.0760
24699SOL     OW76250   0.603   1.196   3.419  0.1185  0.6072  0.1404
24699SOL    HW176251   0.636   1.110   3.443 -1.4909  0.2088  1.0915
24699SOL    HW276252   0.649   1.218   3.338  2.4112 -0.0167  1.2021
24700SOL     OW76253   4.244   9.255   1.039 -0.0881 -0.3281  0.1587
24700SOL    HW176254   4.313   9.251   1.105  0.2517 -0.1259 -0.1822
24700SOL    HW276255   4.172   9.204   1.076 -0.6926  1.4996  1.6233
24701SOL     OW76256   0.511   1.465   3.131  0.2900 -0.3292 -0.1701
24701SOL    HW176257   0.563   1.426   3.061 -0.5793 -0.3620 -0.8112
24701SOL    HW276258   0.559   1.444   3.211  1.6397  0.2707 -0.8001
24702SOL     OW76259   6.345   0.517   1.637 -0.4788  0.2692 -0.1223
24702SOL    HW176260   6.257   0.485   1.656 -1.4158  2.4700 -0.4762
24702SOL    HW276261   6.374   0.556   1.719 -0.1112  0.1778 -0.2069
24703SOL     OW76262   8.851   4.940   1.581  0.0517 -0.4167 -0.7621
24703SOL    HW176263   8.900   5.016   1.550 -1.2040  0.7995  0.1207
24703SOL    HW276264   8.819   4.966   1.668  2.1345 -3.0956  0.9765
24704SOL     OW76265   7.455   6.065   1.310 -0.1155  0.1535  0.2224
24704SOL    HW176266   7.476   5.991   1.252  0.0453 -1.3922  2.1435
24704SOL    HW276267   7.365   6.088   1.287 -0.5528 -1.3765  0.2780
24705SOL     OW76268   2.012   0.791   7.142 -0.5442 -0.0778 -0.1558
24705SOL    HW176269   1.960   0.828   7.213  0.0229 -1.8069  1.2205
24705SOL    HW276270   2.102   0.812   7.165 -0.4064  0.1364 -0.8574
24706SOL     OW76271   1.609   6.018   5.090  0.1375 -0.3489 -0.0415
24706SOL    HW176272   1.578   5.992   5.004 -0.3046  0.2610 -0.0708
24706SOL    HW276273   1.686   6.073   5.073  0.6071 -0.9786 -0.0061
24707SOL     OW76274   9.371   4.808   0.387  0.0275 -0.3126 -0.2757
24707SOL    HW176275   9.416   4.772   0.311 -1.0256 -1.5767 -0.3488
24707SOL    HW276276   9.428   4.787   0.461 -0.3767 -1.8392 -0.3685
24708SOL     OW76277   5.283   7.773   5.631 -0.1046 -0.4476  0.5666
24708SOL    HW176278   5.320   7.701   5.682  2.7548  0.0516 -0.5963
24708SOL    HW276279   5.320   7.852   5.669  0.5938  0.0501 -1.0308
24709SOL     OW76280   8.943   4.012   7.928  0.5521 -0.3258  0.4580
24709SOL    HW176281   8.856   3.974   7.932 -0.7850  2.1738 -1.6967
24709SOL    HW276282   8.999   3.942   7.894 -1.3080 -1.0282 -1.3160
24710SOL     OW76283   2.004   9.385   7.128  0.7573  0.8667 -0.2090
24710SOL    HW176284   1.943   9.421   7.192 -0.6575 -0.7283 -0.5785
24710SOL    HW276285   1.950   9.362   7.053  1.9799  0.3623 -0.9732
24711SOL     OW76286   1.106   0.767   1.612  0.3076  0.0588 -0.2420
24711SOL    HW176287   1.152   0.817   1.544 -1.4226  0.5673 -1.0896
24711SOL    HW276288   1.116   0.676   1.584  0.5458  0.1791 -0.5616
24712SOL     OW76289   1.957   2.580   3.158  0.1364 -0.0417 -0.4483
24712SOL    HW176290   1.931   2.627   3.079 -0.8654 -0.5558 -0.4504
24712SOL    HW276291   1.914   2.628   3.229  1.5521  0.8016 -0.1221
24713SOL     OW76292   8.230   4.823   6.009 -0.1733 -0.0747  0.3482
24713SOL    HW176293   8.157   4.807   6.069 -0.3349  1.5720  0.6280
24713SOL    HW276294   8.273   4.901   6.043  2.1137 -1.3200  0.5245
24714SOL     OW76295   3.451   4.472   2.626 -0.2252  0.2474 -0.1749
24714SOL    HW176296   3.494   4.516   2.552 -0.9100  1.5666  0.1729
24714SOL    HW276297   3.513   4.481   2.698  0.1681 -0.4773 -0.4118
24715SOL     OW76298   2.077   3.842   0.999  0.2971  0.0465  0.3271
24715SOL    HW176299   2.049   3.761   1.042 -0.7365 -0.2500 -0.8406
24715SOL    HW276300   2.043   3.835   0.910  2.1433  0.7586 -0.4821
24716SOL     OW76301   2.494   8.100   2.793 -0.1656 -0.1905 -0.1319
24716SOL    HW176302   2.496   8.110   2.698 -0.8619  0.7905 -0.0583
24716SOL    HW276303   2.451   8.179   2.825 -1.8027 -1.4159  0.8545
24717SOL     OW76304   3.253   2.151   7.027 -0.0305 -0.0286  0.0346
24717SOL    HW176305   3.187   2.082   7.035  0.6153 -0.5150  1.4620
24717SOL    HW276306   3.227   2.200   6.949 -1.4355 -0.8824 -0.0668
24718SOL     OW76307   1.615   7.490   5.105  1.0492 -0.2180  0.2764
24718SOL    HW176308   1.556   7.530   5.169  0.5158 -1.6167  0.6986
24718SOL    HW276309   1.612   7.549   5.030 -1.2482 -0.4639  0.1134
24719SOL     OW76310   0.032   0.892   2.759 -0.1046  0.4244 -0.3632
24719SOL    HW176311  -0.050   0.864   2.800  0.7164  0.1837  1.2236
24719SOL    HW276312   0.052   0.824   2.695 -0.0165 -0.7552  0.8535
24720SOL     OW76313   5.031   3.416   1.933 -0.1160  0.8317  0.4922
24720SOL    HW176314   5.065   3.492   1.886  0.2672 -1.0154 -2.4455
24720SOL    HW276315   4.938   3.412   1.911  0.1962 -0.4094 -0.7818
24721SOL     OW76316   0.609   6.078   0.086 -0.5215  0.5182  0.2365
24721SOL    HW176317   0.563   5.995   0.092  0.8053 -0.3101 -0.5228
24721SOL    HW276318   0.671   6.076   0.160  1.5559 -0.5466 -1.4035
24722SOL     OW76319   4.628   7.771   7.640  0.1815  0.0866 -0.6647
24722SOL    HW176320   4.537   7.771   7.670  0.4072  0.2156  0.0407
24722SOL    HW276321   4.651   7.864   7.633  0.2077  0.0572 -1.0292
24723SOL     OW76322   6.584   7.841   7.216 -0.1762  0.3929 -0.1261
24723SOL    HW176323   6.656   7.785   7.189 -0.3099 -0.0640  0.4291
24723SOL    HW276324   6.512   7.780   7.233 -0.5493  0.8025 -0.2241
24724SOL     OW76325   2.061   0.166   2.239  0.6775  0.5968  0.3594
24724SOL    HW176326   2.047   0.260   2.243  1.0361  0.6599  0.2154
24724SOL    HW276327   2.156   0.156   2.251  0.7246  0.2971 -0.2206
24725SOL     OW76328   0.127   9.498   3.560  0.0155 -0.0176 -0.0162
24725SOL    HW176329   0.100   9.407   3.564  0.3271 -0.2542 -2.0391
24725SOL    HW276330   0.054   9.547   3.598 -1.1597 -0.9533 -0.9929
24726SOL     OW76331   2.268   3.189   6.873  0.4167 -0.0956 -0.5587
24726SOL    HW176332   2.199   3.142   6.826  0.4098 -0.5605 -0.1020
24726SOL    HW276333   2.268   3.276   6.835 -1.7331  0.5397  0.6895
24727SOL     OW76334   8.898   5.008   5.207 -0.2592  0.3998 -0.3135
24727SOL    HW176335   8.818   4.991   5.257  0.4454 -0.8382  0.4224
24727SOL    HW276336   8.883   5.094   5.168 -0.7904  1.4831  2.1049
24728SOL     OW76337   1.237   8.335   3.354  0.1381  0.1727 -0.2916
24728SOL    HW176338   1.166   8.288   3.310  0.6192 -0.9258  0.0677
24728SOL    HW276339   1.194   8.408   3.399 -0.9388 -1.1130  0.8521
24729SOL     OW76340   3.484   8.061   1.155 -0.0467  0.2175 -0.7495
24729SOL    HW176341   3.574   8.036   1.176 -0.5542 -2.7276 -1.5585
24729SOL    HW276342   3.490   8.105   1.070  0.7938  1.9500  0.1635
24730SOL     OW76343   5.679   2.968   8.270  0.4787  0.0066 -0.1021
24730SOL    HW176344   5.623   2.972   8.348  0.3279  0.4144 -0.2303
24730SOL    HW276345   5.746   3.034   8.286  0.7758 -0.3015 -0.0661
24731SOL     OW76346   4.509   0.288   3.065  0.8369  0.7796  0.0147
24731SOL    HW176347   4.582   0.230   3.087  1.2289  0.5407 -1.7695
24731SOL    HW276348   4.551   0.365   3.025  0.1192  0.1544 -2.0632
24732SOL     OW76349   9.326   1.295   3.282  0.3891  0.2490  0.5485
24732SOL    HW176350   9.271   1.238   3.336 -2.2243 -0.1502 -2.2900
24732SOL    HW276351   9.415   1.268   3.302 -0.6472 -4.2358  0.1421
24733SOL     OW76352   7.016   1.358   3.805  0.3589 -0.0755 -0.1801
24733SOL    HW176353   7.110   1.343   3.801  0.7983  2.3518 -1.0151
24733SOL    HW276354   6.982   1.326   3.722  0.2350 -1.8125  0.4924
24734SOL     OW76355   3.107   1.115   4.845 -0.1782 -0.2750 -0.0667
24734SOL    HW176356   3.130   1.197   4.889  0.1004 -1.0987  1.4000
24734SOL    HW276357   3.170   1.051   4.880 -0.0902 -1.0213 -1.5293
24735SOL     OW76358   8.595   6.537   1.120  0.2172  0.6700  0.1119
24735SOL    HW176359   8.673   6.487   1.094  0.0118  0.0130  0.7320
24735SOL    HW276360   8.624   6.628   1.119  1.1248  0.4027  0.7456
24736SOL     OW76361   1.462   3.303   6.951  0.5296  0.5194 -0.6269
24736SOL    HW176362   1.483   3.386   6.909  2.1281 -0.9658 -3.0267
24736SOL    HW276363   1.452   3.241   6.878 -1.8338 -1.1755  0.9945
24737SOL     OW76364   8.197   5.221   2.253 -0.2908 -0.5472 -0.6305
24737SOL    HW176365   8.175   5.312   2.233  1.7752 -0.3322 -2.3059
24737SOL    HW276366   8.267   5.227   2.318  0.4776 -0.8982 -1.4144
24738SOL     OW76367   3.342   7.346   3.760  0.6479  0.2718 -0.4272
24738SOL    HW176368   3.251   7.368   3.744  0.7466  1.1537  0.1934
24738SOL    HW276369   3.339   7.259   3.800  0.2035 -0.4991 -2.0621
24739SOL     OW76370   2.256   8.046   9.075  0.4766  0.1808 -0.3704
24739SOL    HW176371   2.194   7.978   9.102  0.2742  0.8938  1.0806
24739SOL    HW276372   2.338   7.999   9.058  0.4750 -0.3882  1.0941
24740SOL     OW76373   5.831   1.337   4.309  1.0115 -0.4700  0.3774
24740SOL    HW176374   5.859   1.397   4.240  0.5596  0.7182  1.2049
24740SOL    HW276375   5.912   1.310   4.351  1.2470 -0.7643 -0.2475
24741SOL     OW76376   2.881   2.163   7.592 -0.1604 -0.5744  0.0942
24741SOL    HW176377   2.951   2.207   7.544 -0.8213 -2.2910 -2.6898
24741SOL    HW276378   2.807   2.223   7.588  0.5176  0.3861  1.2930
24742SOL     OW76379   7.050   9.414   4.762  0.1279 -0.2268 -0.0152
24742SOL    HW176380   7.137   9.392   4.795  0.3031 -1.9341 -1.4936
24742SOL    HW276381   7.005   9.330   4.756 -1.5938  0.6064  0.5649
24743SOL     OW76382   7.300   3.244   4.710  0.1156 -0.3656  0.5812
24743SOL    HW176383   7.329   3.311   4.772  1.0191 -0.9165  0.7763
24743SOL    HW276384   7.332   3.273   4.625  1.1645 -0.9011  0.7750
24744SOL     OW76385   4.633   3.160   3.705 -0.7381 -0.2111 -0.1989
24744SOL    HW176386   4.582   3.102   3.648  1.5053 -0.8052 -1.7195
24744SOL    HW276387   4.723   3.129   3.698  0.7106  3.6137 -1.3989
24745SOL     OW76388   4.571   7.229   5.916  0.0861  0.0066 -0.3766
24745SOL    HW176389   4.622   7.212   5.837 -0.2054  0.4023 -0.6544
24745SOL    HW276390   4.636   7.246   5.983  0.3243  0.5859 -0.7443
24746SOL     OW76391   1.026   2.135   6.169  0.2460 -0.2169 -0.0891
24746SOL    HW176392   0.953   2.084   6.205 -0.5399 -0.8874 -2.4540
24746SOL    HW276393   1.054   2.191   6.241 -1.8958 -0.7263  1.2228
24747SOL     OW76394   7.167   4.295   4.556  0.0779 -0.3735 -0.2983
24747SOL    HW176395   7.098   4.261   4.614  0.5597  1.0240  1.1827
24747SOL    HW276396   7.121   4.357   4.499 -0.2813 -1.2415 -0.9712
24748SOL     OW76397   6.942   8.887   6.633  0.1814  0.4312  0.3138
24748SOL    HW176398   7.015   8.837   6.597 -0.5443 -0.4533  0.0396
24748SOL    HW276399   6.875   8.885   6.565 -1.0175 -0.8319  1.4675
24749SOL     OW76400   0.605   5.237   2.863  0.3952 -0.2974  0.1259
24749SOL    HW176401   0.605   5.241   2.959 -0.1701  1.1767  0.0918
24749SOL    HW276402   0.646   5.154   2.843  0.3658 -0.7185  1.6580
24750SOL     OW76403   6.047   1.748   6.460  0.3049 -0.1881 -0.0988
24750SOL    HW176404   6.025   1.758   6.368  2.9503  1.2298 -0.6835
24750SOL    HW276405   6.056   1.653   6.472 -2.0243 -0.5431 -0.7133
24751SOL     OW76406   3.488   3.797   4.903  0.1820 -0.0989 -0.1880
24751SOL    HW176407   3.529   3.771   4.821 -0.6162 -0.2583 -0.5452
24751SOL    HW276408   3.488   3.893   4.901  0.1781 -0.1028 -0.3684
24752SOL     OW76409   6.736   4.167   2.308 -0.2758 -0.3923 -0.1519
24752SOL    HW176410   6.646   4.187   2.282 -0.5264 -1.3845 -0.0631
24752SOL    HW276411   6.789   4.190   2.231 -0.6926 -0.5603 -0.4913
24753SOL     OW76412   2.060   8.663   2.513  0.2016  0.0143  0.2472
24753SOL    HW176413   2.089   8.620   2.593  0.2984 -0.0037  0.2034
24753SOL    HW276414   2.118   8.738   2.503  0.2675 -0.0516  0.1303
24754SOL     OW76415   3.773   4.572   7.801  0.6549  0.5575  0.4542
24754SOL    HW176416   3.792   4.482   7.826 -0.3311  0.2813  0.2773
24754SOL    HW276417   3.771   4.571   7.705 -0.6541  0.4469  0.4539
24755SOL     OW76418   5.748   6.024   0.805  0.3491 -0.1311 -0.0695
24755SOL    HW176419   5.748   6.115   0.834 -2.9124 -0.8511  2.8121
24755SOL    HW276420   5.709   6.026   0.717 -0.6600  1.1697  0.3928
24756SOL     OW76421   8.804   0.718   9.236  0.3758 -0.2946 -0.3150
24756SOL    HW176422   8.820   0.727   9.330  2.6995  1.0569 -0.7502
24756SOL    HW276423   8.891   0.700   9.199 -0.5911 -1.4582 -2.1586
24757SOL     OW76424   2.207   0.445   3.698 -0.0907  0.3764  0.0327
24757SOL    HW176425   2.203   0.353   3.673  2.1086  0.4987 -1.0629
24757SOL    HW276426   2.130   0.485   3.658 -0.4791 -0.7866 -0.4111
24758SOL     OW76427   2.115   2.393   3.029  0.2946 -0.3181 -0.1430
24758SOL    HW176428   2.088   2.377   2.939  0.3666  0.5681 -0.3274
24758SOL    HW276429   2.051   2.456   3.062  1.2352  0.6319 -0.1075
24759SOL     OW76430   8.215   9.219   5.057  0.4310 -0.1044 -0.5178
24759SOL    HW176431   8.131   9.188   5.026  0.2645  0.0362 -0.2095
24759SOL    HW276432   8.279   9.161   5.016  0.1358 -0.7453 -0.0882
24760SOL     OW76433   8.478   3.865   2.968 -0.0594 -0.3123  0.1795
24760SOL    HW176434   8.410   3.932   2.973 -0.2572 -0.4407 -0.6875
24760SOL    HW276435   8.559   3.910   2.992  0.0947  0.6779 -1.9483
24761SOL     OW76436   6.566   0.471   1.037 -0.0780 -0.1116  0.7122
24761SOL    HW176437   6.624   0.436   1.104  0.6785 -0.1222  0.0819
24761SOL    HW276438   6.497   0.516   1.085  1.1877  1.0743  1.4979
24762SOL     OW76439   6.760   2.053   7.531 -0.1610  0.2088 -0.0270
24762SOL    HW176440   6.691   2.044   7.597 -0.6816 -2.0979 -0.8199
24762SOL    HW276441   6.837   2.078   7.582 -0.9799  0.3911  1.1958
24763SOL     OW76442   7.087   0.736   4.573 -0.2153 -0.4237  0.4703
24763SOL    HW176443   7.165   0.775   4.534  0.1614 -0.8992  0.7356
24763SOL    HW276444   7.077   0.781   4.658 -0.5083 -0.0299  0.2300
24764SOL     OW76445   4.027   6.909   2.564  0.5047  0.1004  0.6661
24764SOL    HW176446   3.934   6.922   2.579  0.6373  1.0846  0.6871
24764SOL    HW276447   4.070   6.950   2.638  1.0158  1.5045 -0.3679
24765SOL     OW76448   0.166   0.816   1.703 -0.0040  0.1842 -0.4497
24765SOL    HW176449   0.183   0.829   1.610  0.6295 -0.0329 -0.3633
24765SOL    HW276450   0.084   0.767   1.706 -1.3703  2.2744 -0.8308
24766SOL     OW76451   1.893   9.551   3.756 -0.4380  0.0522  0.4389
24766SOL    HW176452   1.946   9.485   3.710 -1.5412 -1.2973  1.0186
24766SOL    HW276453   1.956   9.599   3.810  0.4164 -0.4786 -0.0594
24767SOL     OW76454   3.236   2.532   9.078 -0.2125 -0.5192 -0.0912
24767SOL    HW176455   3.206   2.616   9.044  0.7183 -0.3741 -0.5951
24767SOL    HW276456   3.221   2.537   9.172  1.4657  0.9622  0.1563
24768SOL     OW76457   5.239   5.301   2.340 -0.1861  0.0656 -0.0963
24768SOL    HW176458   5.208   5.211   2.349 -1.7629  0.7386  2.1825
24768SOL    HW276459   5.333   5.297   2.360 -0.2084 -1.0782 -0.1799
24769SOL     OW76460   7.247   6.381   3.261 -0.4618  0.1794  0.0339
24769SOL    HW176461   7.174   6.319   3.272 -1.2610  0.9436 -0.7403
24769SOL    HW276462   7.312   6.353   3.324 -1.8994  0.1525  1.5850
24770SOL     OW76463   0.540   0.047   0.022  0.5142 -0.1406  0.1245
24770SOL    HW176464   0.591  -0.032   0.004  2.2595  0.8726  0.3595
24770SOL    HW276465   0.604   0.118   0.020 -0.8630  1.1841  0.6966
24771SOL     OW76466   4.916   4.339   7.014 -0.1806  0.1143 -0.2859
24771SOL    HW176467   4.980   4.409   6.999 -1.0795  1.7014  2.5605
24771SOL    HW276468   4.964   4.273   7.064 -0.2279  0.3218  0.0342
24772SOL     OW76469   9.098   7.080   9.577  0.0297  0.1023 -0.2382
24772SOL    HW176470   9.124   6.995   9.611 -2.2153 -0.3924  0.4178
24772SOL    HW276471   9.118   7.076   9.483 -0.1750 -1.2011 -0.2341
24773SOL     OW76472   0.229   6.606   9.308 -0.8882 -0.0782 -0.4004
24773SOL    HW176473   0.170   6.534   9.284  0.1191 -1.1548  0.2298
24773SOL    HW276474   0.184   6.650   9.380 -1.0107 -0.7705 -0.0468
24774SOL     OW76475   2.197   7.320   7.155 -0.5513  0.2886  0.1109
24774SOL    HW176476   2.197   7.386   7.224 -1.3984 -0.5707  0.9689
24774SOL    HW276477   2.191   7.237   7.202  1.9687 -0.5318 -0.8743
24775SOL     OW76478   2.615   2.365   0.279  0.0420  0.2898 -0.1620
24775SOL    HW176479   2.610   2.452   0.318 -0.8681  0.0654  0.2519
24775SOL    HW276480   2.654   2.311   0.348  1.9734  0.6235 -0.9164
24776SOL     OW76481   8.483   0.486   5.406  0.1666  0.3612  0.1266
24776SOL    HW176482   8.417   0.422   5.431  0.6156  0.3614  1.3928
24776SOL    HW276483   8.566   0.442   5.420  0.4678  0.9853  0.3456
24777SOL     OW76484   8.230   6.450   5.739 -0.0758  0.5839 -0.3946
24777SOL    HW176485   8.272   6.391   5.677  1.5765  0.2614  0.9564
24777SOL    HW276486   8.290   6.524   5.746  0.1675  0.2573  1.3730
24778SOL     OW76487   4.551   4.707   8.197  0.0544  0.1173 -0.0951
24778SOL    HW176488   4.541   4.785   8.252 -0.0592  1.1071 -1.4663
24778SOL    HW276489   4.544   4.634   8.258  1.1150  1.1764  1.3981
24779SOL     OW76490   0.262   9.589   5.355  0.1311  0.3222 -0.3522
24779SOL    HW176491   0.290   9.591   5.447  0.1001 -0.1989 -0.3286
24779SOL    HW276492   0.278   9.678   5.324  1.0435  0.2643 -0.1095
24780SOL     OW76493   7.389   2.749   8.739 -0.0032 -0.0068 -0.3507
24780SOL    HW176494   7.432   2.719   8.819  0.6049  1.2998 -0.1576
24780SOL    HW276495   7.459   2.749   8.673  0.3661  2.0719 -0.0470
24781SOL     OW76496   7.928   9.092   5.535 -0.0358 -0.1538 -0.3813
24781SOL    HW176497   7.948   9.085   5.441  0.6288 -0.6472 -0.2091
24781SOL    HW276498   7.974   9.018   5.575 -0.2725  0.0846  0.3434
24782SOL     OW76499   4.681   5.120   3.144  0.2024 -0.2430 -0.0773
24782SOL    HW176500   4.724   5.056   3.201 -0.5764 -0.3012  0.4602
24782SOL    HW276501   4.752   5.155   3.090  0.8775 -0.5309  0.5986
24783SOL     OW76502   8.282   5.677   8.406  0.0393 -0.2085  0.2501
24783SOL    HW176503   8.252   5.732   8.334  1.4900  1.2578  0.7126
24783SOL    HW276504   8.205   5.625   8.430 -0.5651 -0.5046 -2.0985
24784SOL     OW76505   1.879   1.346   1.454 -0.1792 -0.2143  0.4361
24784SOL    HW176506   1.973   1.335   1.469 -0.4053 -1.7141  1.0116
24784SOL    HW276507   1.870   1.434   1.418  1.1604  1.0175  2.8318
24785SOL     OW76508   2.004   8.265   3.764 -0.1373 -0.3608 -0.0621
24785SOL    HW176509   1.918   8.288   3.729 -0.5542  1.1686  1.8091
24785SOL    HW276510   2.003   8.299   3.853  1.4849 -2.6094  0.8832
24786SOL     OW76511   3.220   7.412   5.240 -0.2138  0.2473  0.2130
24786SOL    HW176512   3.209   7.414   5.335  0.8073 -2.1084  0.4546
24786SOL    HW276513   3.311   7.437   5.226 -0.2867  0.3245 -0.1274
24787SOL     OW76514   4.784   3.716   8.827 -0.0597  0.6344 -0.6799
24787SOL    HW176515   4.836   3.788   8.792  3.1218 -1.8161 -1.4172
24787SOL    HW276516   4.835   3.637   8.808 -3.8793 -2.0309 -1.0426
24788SOL     OW76517   2.593   8.937   5.725  0.0893  0.4568 -0.0613
24788SOL    HW176518   2.631   8.992   5.657 -0.4510  0.8377 -0.0667
24788SOL    HW276519   2.541   8.872   5.678  1.3778 -0.5771 -0.0876
24789SOL     OW76520   8.981   2.686   4.392  0.2446  0.1406 -0.4221
24789SOL    HW176521   8.960   2.608   4.340  2.6109 -0.6044 -0.3968
24789SOL    HW276522   9.066   2.666   4.431 -0.4045  1.5943  1.9551
24790SOL     OW76523   4.407   9.162   7.246  0.2486 -0.1128 -0.8787
24790SOL    HW176524   4.482   9.206   7.205  0.6171 -0.2693 -0.3838
24790SOL    HW276525   4.433   9.070   7.251  0.4098 -0.0310  0.1086
24791SOL     OW76526   3.511   4.097   2.798 -0.0613  0.4460 -0.4068
24791SOL    HW176527   3.457   4.020   2.814 -0.6068  0.9942  0.4824
24791SOL    HW276528   3.480   4.131   2.714 -0.1118 -0.0595 -0.5929
24792SOL     OW76529   3.793   6.834   0.000 -0.3355  0.4512  0.0674
24792SOL    HW176530   3.852   6.909   0.011 -0.2141  0.3540  0.0690
24792SOL    HW276531   3.842   6.771  -0.051  0.0016 -0.1190  1.0738
24793SOL     OW76532   2.845   3.992   6.256 -0.5954  0.2535 -0.2028
24793SOL    HW176533   2.881   4.000   6.168 -0.7731 -0.2159 -0.3217
24793SOL    HW276534   2.763   3.944   6.245 -0.1828 -0.6108  0.3112
24794SOL     OW76535   7.970   6.270   3.990  0.2671  0.0309  0.4108
24794SOL    HW176536   7.960   6.180   4.020 -0.5911  0.0689  0.2637
24794SOL    HW276537   7.928   6.323   4.058 -0.5665  0.2062 -0.2219
24795SOL     OW76538   5.434   1.724   4.504  0.0018 -0.4042 -0.1140
24795SOL    HW176539   5.512   1.729   4.448 -0.1989 -1.5217 -0.5063
24795SOL    HW276540   5.455   1.779   4.579  0.6748  0.3094 -0.8097
24796SOL     OW76541   0.107   0.795   0.461  0.2752 -0.2086  0.5825
24796SOL    HW176542   0.191   0.840   0.461  1.2246 -1.8785 -0.1215
24796SOL    HW276543   0.096   0.766   0.552 -0.3703  1.3896  1.0544
24797SOL     OW76544   7.178   4.600   1.304  0.4229  0.3158 -0.7498
24797SOL    HW176545   7.219   4.626   1.386 -1.0637 -1.6096  0.6933
24797SOL    HW276546   7.139   4.515   1.322 -0.6580  0.1837 -3.2333
24798SOL     OW76547   4.520   0.320   3.499  0.0765 -0.4102  0.7654
24798SOL    HW176548   4.528   0.374   3.578  1.1348 -0.3452  0.6306
24798SOL    HW276549   4.609   0.314   3.465 -0.2188 -1.2336  0.0979
24799SOL     OW76550   1.834   7.207   7.772 -0.2632 -0.1159  0.0793
24799SOL    HW176551   1.806   7.234   7.859  2.7752 -0.1991  1.2067
24799SOL    HW276552   1.872   7.120   7.784 -1.0083 -0.7312 -1.6192
24800SOL     OW76553   0.925   9.545   2.785  0.3498  0.3632  0.0197
24800SOL    HW176554   0.857   9.478   2.780 -1.7290  2.3559 -0.0696
24800SOL    HW276555   0.957   9.542   2.875 -0.6071  0.0945  0.3515
24801SOL     OW76556   1.474   5.604   1.665 -0.0687  0.3861 -0.0664
24801SOL    HW176557   1.461   5.510   1.680 -0.7523  0.3274 -0.9562
24801SOL    HW276558   1.552   5.625   1.717  0.3815 -0.7657 -0.2300
24802SOL     OW76559   4.593   0.020   9.558 -0.3047 -0.2028  0.5325
24802SOL    HW176560   4.677   0.052   9.591 -0.0611 -0.8940  0.6189
24802SOL    HW276561   4.604   0.017   9.463 -0.8203  1.2795  0.4006
24803SOL     OW76562   3.368   6.781   7.315 -0.1225  0.0680  0.0292
24803SOL    HW176563   3.423   6.852   7.282 -0.5058  1.2906  1.8699
24803SOL    HW276564   3.430   6.714   7.342  0.4517  0.9786  1.0702
24804SOL     OW76565   6.667   0.274   1.302  0.3146 -0.0484 -0.3159
24804SOL    HW176566   6.619   0.293   1.383  2.2562  1.0172  0.6602
24804SOL    HW276567   6.600   0.242   1.241 -1.7800  2.1107  0.6850
24805SOL     OW76568   3.946   5.407   6.226  0.3837  0.1331 -0.1159
24805SOL    HW176569   3.888   5.341   6.189  0.2742  0.6919 -0.9810
24805SOL    HW276570   3.924   5.411   6.319  1.1160 -1.7881  0.1778
24806SOL     OW76571   2.302   4.487   2.455 -0.4901 -0.2495  0.1087
24806SOL    HW176572   2.262   4.415   2.407 -1.3708  0.1164  0.2708
24806SOL    HW276573   2.366   4.445   2.513 -1.6461 -1.0065  0.8820
24807SOL     OW76574   4.662   5.205   2.716 -0.2797 -0.0067  0.2236
24807SOL    HW176575   4.603   5.184   2.644 -0.0097  1.8045 -0.5742
24807SOL    HW276576   4.714   5.125   2.728 -0.3736 -0.3708 -1.5467
24808SOL     OW76577   8.957   3.426   3.519  0.0749  0.3239 -0.3785
24808SOL    HW176578   8.966   3.352   3.459  0.6239 -0.8948  1.1359
24808SOL    HW276579   9.047   3.453   3.538 -0.1112  2.1318 -1.7131
24809SOL     OW76580   0.223   3.220   9.476 -0.2258 -0.1969  0.4029
24809SOL    HW176581   0.298   3.265   9.437 -1.6023  2.0760  0.1692
24809SOL    HW276582   0.246   3.209   9.568  0.9451 -0.8612  0.0520
24810SOL     OW76583   0.975   6.460   3.367 -0.1196  0.0596 -0.3409
24810SOL    HW176584   0.907   6.426   3.427  0.9343  1.1176  1.5329
24810SOL    HW276585   1.057   6.432   3.407  0.6106 -0.9690 -2.4435
24811SOL     OW76586   0.525   5.963   7.960  0.1267 -0.2024  0.1362
24811SOL    HW176587   0.565   5.918   7.886  0.7545 -1.8432  1.4151
24811SOL    HW276588   0.594   6.020   7.993 -0.1205  0.4513 -0.4338
24812SOL     OW76589   1.984   5.524   4.756  0.1833  0.8802 -0.0415
24812SOL    HW176590   2.044   5.535   4.682  0.7751  0.8169  0.4214
24812SOL    HW276591   1.970   5.429   4.761 -2.8295  1.0351 -2.3820
24813SOL     OW76592   5.949   7.997   5.061 -0.3231  0.3315 -0.5091
24813SOL    HW176593   5.953   7.902   5.071  2.3629  0.4565  0.2873
24813SOL    HW276594   5.984   8.013   4.973 -0.3076  0.6144 -0.4504
24814SOL     OW76595   4.977   7.166   1.038 -0.4181 -0.3250 -0.1666
24814SOL    HW176596   4.997   7.073   1.043 -1.2678 -0.4478  2.0919
24814SOL    HW276597   4.987   7.198   1.127 -0.0816  1.8001 -0.8911
24815SOL     OW76598   0.978   8.206   9.092  0.5156 -0.4752 -0.4881
24815SOL    HW176599   1.037   8.279   9.077  1.6331 -1.6095 -1.8944
24815SOL    HW276600   0.891   8.239   9.067  0.7242  0.7951  0.3596
24816SOL     OW76601   8.222   4.284   9.013 -0.2486 -0.3052  0.2179
24816SOL    HW176602   8.142   4.335   9.000 -0.2373 -0.0102  1.1899
24816SOL    HW276603   8.224   4.222   8.940 -2.4338 -1.6747  1.2029
24817SOL     OW76604   2.838   2.855   6.945 -0.4203 -0.0568  0.3803
24817SOL    HW176605   2.892   2.798   6.890 -0.5975 -2.1445  2.2508
24817SOL    HW276606   2.749   2.842   6.911 -0.0225  2.9964 -2.3668
24818SOL     OW76607   7.162   4.237   6.618  0.1702 -0.0547 -0.1522
24818SOL    HW176608   7.067   4.251   6.628 -0.2591 -2.1606 -0.6911
24818SOL    HW276609   7.178   4.154   6.664  1.7057  0.0997 -0.3800
24819SOL     OW76610   9.331   3.520   1.313 -0.1781  0.2611  0.1131
24819SOL    HW176611   9.261   3.575   1.348 -1.3384 -0.0527 -1.5712
24819SOL    HW276612   9.320   3.435   1.356 -0.8476  0.2147 -0.1344
24820SOL     OW76613   5.212   4.393   9.247 -0.2025 -0.6748  0.2647
24820SOL    HW176614   5.135   4.446   9.269 -0.1518 -0.7439  0.6202
24820SOL    HW276615   5.261   4.446   9.184  0.4436  0.2306  1.4762
24821SOL     OW76616   1.819   9.341   4.977  0.2565 -0.5400 -0.2757
24821SOL    HW176617   1.850   9.425   5.011 -0.1898 -0.2324 -0.6021
24821SOL    HW276618   1.724   9.353   4.968  0.0924 -1.3181  0.3310
24822SOL     OW76619   9.369   2.990   7.379 -0.4186 -0.3416 -0.4717
24822SOL    HW176620   9.323   3.068   7.350  0.3404  0.4969  0.5180
24822SOL    HW276621   9.321   2.961   7.457 -2.3773 -2.5122 -2.3282
24823SOL     OW76622   6.467   5.784   7.800  0.4569 -0.2112  0.3513
24823SOL    HW176623   6.465   5.689   7.800 -1.1356 -0.2693  2.7291
24823SOL    HW276624   6.423   5.809   7.719 -1.9495 -1.6004  1.1093
24824SOL     OW76625   4.601   4.895   2.515  0.5657 -0.2042 -0.2338
24824SOL    HW176626   4.655   4.865   2.442 -1.9124 -2.4084 -1.3270
24824SOL    HW276627   4.596   4.819   2.574  2.2000  1.3954  2.1748
24825SOL     OW76628   5.282   6.084   6.502 -0.1856 -0.3072  0.3280
24825SOL    HW176629   5.220   6.012   6.497  0.1621 -0.5841 -0.0614
24825SOL    HW276630   5.302   6.093   6.595  1.6153 -2.3006  0.1953
24826SOL     OW76631   2.780   1.187   8.168  0.5346 -0.7442  0.3562
24826SOL    HW176632   2.760   1.176   8.076  0.5336 -0.3990  0.3138
24826SOL    HW276633   2.697   1.172   8.213 -0.4803  3.0237  0.0265
24827SOL     OW76634   1.994   7.461   7.037  0.3747  0.3578 -0.1282
24827SOL    HW176635   2.070   7.439   7.091 -0.3951 -2.2652 -0.0076
24827SOL    HW276636   1.921   7.467   7.098  0.0417  0.4141 -0.5238
24828SOL     OW76637   0.760   1.525   3.298  0.0117 -0.1153  0.1332
24828SOL    HW176638   0.824   1.454   3.307 -0.4804 -0.6918 -0.8746
24828SOL    HW276639   0.772   1.558   3.209 -0.8174  0.0434  0.0735
24829SOL     OW76640   1.886   5.477   1.576 -0.2648  0.5182  0.0697
24829SOL    HW176641   1.850   5.388   1.567  0.3356  0.2515  0.2280
24829SOL    HW276642   1.978   5.463   1.600 -0.4056  1.1923  1.0294
24830SOL     OW76643   0.124   7.352   3.869 -0.2632 -0.1536 -0.6830
24830SOL    HW176644   0.179   7.278   3.844 -1.1753 -0.5778 -1.4871
24830SOL    HW276645   0.183   7.428   3.865  0.9683 -0.9291  1.2193
24831SOL     OW76646   4.697   1.045   3.011  0.2424  0.1857 -0.6194
24831SOL    HW176647   4.673   1.081   3.096 -0.7191 -0.2621 -0.6825
24831SOL    HW276648   4.664   0.955   3.013  0.1912  0.1766 -1.4588
24832SOL     OW76649   0.068   3.919   0.448  0.3370  0.5630 -0.0229
24832SOL    HW176650   0.095   3.844   0.395 -1.6600 -0.0607 -0.2238
24832SOL    HW276651   0.138   3.929   0.513  1.2919 -0.6143 -0.8432
24833SOL     OW76652   4.485   0.261   2.358 -0.7672 -0.1669  0.0945
24833SOL    HW176653   4.547   0.269   2.287  0.5900  0.2486  1.2749
24833SOL    HW276654   4.538   0.270   2.438 -1.7768 -3.3408  1.2764
24834SOL     OW76655   7.709   0.895   8.494  0.1238 -0.1591 -0.2109
24834SOL    HW176656   7.775   0.950   8.536  0.2044 -0.2209 -0.2580
24834SOL    HW276657   7.670   0.953   8.428  0.9488 -0.4790 -1.0036
24835SOL     OW76658   6.098   8.017   2.071  0.3296 -0.1345  0.4026
24835SOL    HW176659   6.008   8.047   2.071  0.3248 -0.1415  1.2528
24835SOL    HW276660   6.101   7.950   2.003 -0.7581 -1.4336  1.5808
24836SOL     OW76661   7.789   1.862   2.481 -0.4814 -0.3200 -0.4935
24836SOL    HW176662   7.758   1.875   2.570  1.5877 -1.4279  0.4755
24836SOL    HW276663   7.872   1.910   2.477 -0.2458 -0.7741 -1.6325
24837SOL     OW76664   7.264   9.337   8.962  0.1583  0.4113 -0.1462
24837SOL    HW176665   7.305   9.284   8.894  0.1627 -0.0506  0.2085
24837SOL    HW276666   7.333   9.352   9.026  0.0819  0.6098 -0.1103
24838SOL     OW76667   9.246   4.388   3.768 -0.4033  0.3064  0.2061
24838SOL    HW176668   9.199   4.371   3.686 -1.8735 -0.2454  1.1133
24838SOL    HW276669   9.327   4.338   3.760  0.0329  1.1819 -1.3641
24839SOL     OW76670   7.257   3.021   4.904  0.0451  0.1565  0.2320
24839SOL    HW176671   7.165   3.004   4.887 -0.3850  0.1649  2.2857
24839SOL    HW276672   7.286   3.075   4.830 -1.3486 -0.5490 -0.8721
24840SOL     OW76673   1.133   5.506   6.543 -0.3437  0.2956  0.2726
24840SOL    HW176674   1.093   5.473   6.623  0.0106 -0.2587  0.2240
24840SOL    HW276675   1.131   5.431   6.483  0.9534  0.2039  0.3355
24841SOL     OW76676   8.358   1.159   5.858  0.1130  0.1348 -0.0650
24841SOL    HW176677   8.411   1.107   5.918  0.2906  0.6722  0.2481
24841SOL    HW276678   8.350   1.245   5.900 -0.1949  0.3574 -0.5627
24842SOL     OW76679   4.307   2.179   9.607 -0.4164  0.2910 -0.0104
24842SOL    HW176680   4.377   2.117   9.623  0.5353  1.4790  0.6417
24842SOL    HW276681   4.308   2.193   9.512 -3.5117 -3.8494 -0.9312
24843SOL     OW76682   4.852   4.543   4.377 -0.0748 -0.1859  0.7832
24843SOL    HW176683   4.774   4.491   4.396  0.1079 -0.2787  1.3042
24843SOL    HW276684   4.921   4.478   4.363 -0.6530 -0.2501 -2.5919
24844SOL     OW76685   0.569   1.422   3.583  0.1107  0.1135 -0.0836
24844SOL    HW176686   0.555   1.490   3.517 -1.0284  0.6290  0.6674
24844SOL    HW276687   0.565   1.340   3.533  0.6755  0.5365 -0.8607
24845SOL     OW76688   4.079   5.867   5.808  0.3511 -0.3334  0.2797
24845SOL    HW176689   4.134   5.791   5.789 -0.6627 -1.8243  2.8987
24845SOL    HW276690   3.997   5.850   5.762  1.0842  0.6277 -1.4734
24846SOL     OW76691   3.491   0.369   9.197 -0.0580 -0.0328 -0.4575
24846SOL    HW176692   3.523   0.421   9.123  1.6815 -0.6424 -0.1742
24846SOL    HW276693   3.540   0.287   9.192  0.1758 -0.0561  1.4311
24847SOL     OW76694   3.566   8.836   2.949 -0.1984 -0.3527  0.1829
24847SOL    HW176695   3.596   8.927   2.958 -3.9216  1.2270 -0.9983
24847SOL    HW276696   3.615   8.802   2.874  1.7088  0.4127  1.0160
24848SOL     OW76697   0.611   6.141   6.198 -0.2088 -0.7450  0.4318
24848SOL    HW176698   0.597   6.228   6.236 -1.3627  0.2259 -1.9948
24848SOL    HW276699   0.549   6.085   6.245 -0.6758  0.1135  0.8798
24849SOL     OW76700   1.372   6.345   8.897  0.0782 -0.1035  0.7653
24849SOL    HW176701   1.370   6.296   8.814  0.4416  0.3179  0.5021
24849SOL    HW276702   1.427   6.292   8.955 -0.0282 -0.3094  0.6795
24850SOL     OW76703   8.412   5.408   1.785  0.0537 -0.5169  0.2405
24850SOL    HW176704   8.446   5.320   1.769 -0.6354 -0.7931  0.2664
24850SOL    HW276705   8.438   5.428   1.875 -1.0119 -1.2689  0.7225
24851SOL     OW76706   1.874   0.393   3.023 -0.0285  0.2129 -0.2319
24851SOL    HW176707   1.865   0.482   2.989 -0.5211 -0.1368 -1.0150
24851SOL    HW276708   1.884   0.338   2.946  0.9446 -0.3475  0.2687
24852SOL     OW76709   8.993   0.113   3.911  0.1815  0.4853  0.4981
24852SOL    HW176710   8.936   0.081   3.842  1.1517  0.4123 -0.2867
24852SOL    HW276711   8.933   0.141   3.981 -0.7916  0.2497 -0.2269
24853SOL     OW76712   1.548   2.482   5.512  0.0128  0.4971  0.0295
24853SOL    HW176713   1.575   2.537   5.439 -1.0012  0.6786 -0.2259
24853SOL    HW276714   1.519   2.400   5.471 -0.7843  0.6854  0.1897
24854SOL     OW76715   4.881   3.064   2.657  0.4675  0.3375 -0.2582
24854SOL    HW176716   4.863   3.090   2.566  0.2049  1.3007  0.0631
24854SOL    HW276717   4.911   3.143   2.700 -1.6622  0.5064  1.0868
24855SOL     OW76718   5.306   5.098   6.101 -0.0204 -0.1312  0.2236
24855SOL    HW176719   5.263   5.030   6.049 -2.8074  0.9684  0.9561
24855SOL    HW276720   5.395   5.064   6.115 -1.1056 -3.3639  0.0977
24856SOL     OW76721   0.846   6.927   7.608 -0.3731  0.3517  0.6558
24856SOL    HW176722   0.779   6.873   7.566  0.0169  1.8872 -2.1911
24856SOL    HW276723   0.920   6.925   7.547  1.9200 -0.5928  3.2888
24857SOL     OW76724   5.049   8.749   8.599  0.9220 -1.0159  0.3166
24857SOL    HW176725   4.967   8.798   8.591  1.5908  0.0490 -0.3104
24857SOL    HW276726   5.027   8.676   8.657 -0.6992 -1.3074 -0.5995
24858SOL     OW76727   2.908   5.592   6.814  0.3980 -0.2178 -0.1435
24858SOL    HW176728   2.817   5.564   6.818  0.2099  0.4823  0.9930
24858SOL    HW276729   2.958   5.514   6.838  0.1255 -0.6600 -0.9709
24859SOL     OW76730   0.351   8.708   1.022  0.4730 -0.1091 -0.1687
24859SOL    HW176731   0.434   8.683   0.981  0.1965 -4.7149  1.5713
24859SOL    HW276732   0.366   8.698   1.116 -2.3341 -2.6119  0.1495
24860SOL     OW76733   3.523   7.469   8.152  0.1299 -0.1236  0.5252
24860SOL    HW176734   3.531   7.515   8.068 -0.7908 -0.9476 -0.0393
24860SOL    HW276735   3.431   7.482   8.177  0.2320 -0.4563  1.0773
24861SOL     OW76736   4.621   0.034   8.237 -0.2643 -0.0015 -0.3177
24861SOL    HW176737   4.548   0.058   8.180 -1.0118  0.0984  0.6640
24861SOL    HW276738   4.672   0.115   8.246 -1.1987  0.4972  0.6766
24862SOL     OW76739   3.902   2.806   7.001  0.4607 -0.5118 -0.1047
24862SOL    HW176740   3.990   2.795   6.966  0.0888 -4.0664 -0.1974
24862SOL    HW276741   3.845   2.763   6.938 -1.0776 -0.4672  1.1907
24863SOL     OW76742   6.049   3.276   4.337 -0.2694  0.0370 -0.3315
24863SOL    HW176743   6.127   3.269   4.392 -0.9009 -1.3236  0.4582
24863SOL    HW276744   6.068   3.220   4.261 -0.5042 -0.3635 -0.0966
24864SOL     OW76745   7.400   0.705   7.688 -0.2862 -0.4772  0.1270
24864SOL    HW176746   7.418   0.680   7.779  0.3295 -1.2570 -0.1895
24864SOL    HW276747   7.336   0.640   7.658 -1.5139  0.5874  0.3944
24865SOL     OW76748   2.969   6.550   3.510 -0.1574  0.6171 -0.2772
24865SOL    HW176749   2.948   6.495   3.585 -4.2864  0.2336 -1.4711
24865SOL    HW276750   3.019   6.494   3.452 -0.4751 -0.4432  0.4459
24866SOL     OW76751   8.109   4.523   3.380  0.2989 -0.5438  0.7675
24866SOL    HW176752   8.062   4.578   3.442 -0.7015 -0.5531  0.0377
24866SOL    HW276753   8.179   4.482   3.432  0.7350  0.9874  1.4316
24867SOL     OW76754   1.664   6.702   1.130 -1.2047  0.4468 -0.1969
24867SOL    HW176755   1.590   6.665   1.083 -0.1972 -1.0928 -0.6416
24867SOL    HW276756   1.656   6.666   1.219 -0.8235  0.0121 -0.3345
24868SOL     OW76757   3.907   2.352   3.577  0.1911 -0.4113 -0.2421
24868SOL    HW176758   3.828   2.299   3.590  0.8029 -1.1320  0.7382
24868SOL    HW276759   3.922   2.351   3.483 -1.3038  0.2556 -0.5233
24869SOL     OW76760   6.115   4.051   7.987 -0.3501 -0.1682 -0.3567
24869SOL    HW176761   6.047   3.991   8.017  1.1651 -0.8786  1.8904
24869SOL    HW276762   6.175   3.996   7.935 -0.9669  0.2693 -1.5783
24870SOL     OW76763   8.581   9.359   2.585 -0.2450 -0.5104  0.8008
24870SOL    HW176764   8.527   9.350   2.664 -1.1494  0.1351  0.2777
24870SOL    HW276765   8.671   9.350   2.616 -0.5309  0.7318  2.0647
24871SOL     OW76766   4.576   5.306   3.472 -0.6896 -0.2811  0.8809
24871SOL    HW176767   4.538   5.339   3.391  1.2085 -2.0846 -0.8730
24871SOL    HW276768   4.538   5.361   3.541 -2.3724  1.3275 -1.1972
24872SOL     OW76769   8.865   3.491   5.529  0.0814 -0.0012 -0.2789
24872SOL    HW176770   8.796   3.434   5.563 -0.4554 -0.1327 -1.5306
24872SOL    HW276771   8.918   3.433   5.474 -0.9252  0.8334 -2.1992
24873SOL     OW76772   9.036   3.324   2.201 -0.2013 -0.4544  0.0867
24873SOL    HW176773   8.991   3.295   2.121  1.5482  0.8167 -1.4297
24873SOL    HW276774   9.015   3.417   2.209 -1.7573 -0.9147  2.1416
24874SOL     OW76775   2.547   3.486   8.999 -0.2572  0.3507  0.3954
24874SOL    HW176776   2.618   3.422   9.009  0.6487  1.3791  0.6543
24874SOL    HW276777   2.591   3.569   8.986 -1.3252  1.5571  3.4814
24875SOL     OW76778   3.527   0.783   4.834 -0.0770 -0.4089 -0.6342
24875SOL    HW176779   3.509   0.707   4.889 -1.1945 -0.1573 -0.6363
24875SOL    HW276780   3.615   0.811   4.861 -1.1917  0.6981  2.2673
24876SOL     OW76781   5.097   7.769   0.126 -0.2302 -0.2249 -0.2499
24876SOL    HW176782   5.049   7.749   0.205 -1.0412  2.3305 -0.0194
24876SOL    HW276783   5.186   7.737   0.143 -1.2039 -2.9062  0.2191
24877SOL     OW76784   0.765   6.051   3.479  0.6269 -0.0347  0.0836
24877SOL    HW176785   0.855   6.077   3.461  0.6100  0.2699  0.4438
24877SOL    HW276786   0.763   6.034   3.573 -0.9530  5.0988  1.2610
24878SOL     OW76787   6.562   9.569   1.788  0.3412 -0.0454  0.2957
24878SOL    HW176788   6.509   9.493   1.763  0.9244  0.4208 -2.6756
24878SOL    HW276789   6.529   9.641   1.735  2.0601  0.9678  0.4986
24879SOL     OW76790   4.239   1.047   0.140  0.6600  0.4845 -0.5003
24879SOL    HW176791   4.265   1.138   0.150  1.4704  0.3303 -1.1159
24879SOL    HW276792   4.320   0.997   0.150  0.1278 -0.2312  0.5025
24880SOL     OW76793   8.470   1.475   3.511 -0.0226 -0.4304  0.4219
24880SOL    HW176794   8.472   1.478   3.606 -1.2538 -1.0008  0.4861
24880SOL    HW276795   8.403   1.410   3.490  0.8415 -0.9770 -0.8377
24881SOL     OW76796   6.664   2.013   5.271 -0.7677  0.4409 -0.4364
24881SOL    HW176797   6.682   1.996   5.179  0.0502  1.1173 -0.4188
24881SOL    HW276798   6.724   1.956   5.318 -0.7697  0.5254 -0.3310
24882SOL     OW76799   8.220   6.665   2.583  0.4894  0.4692 -0.1719
24882SOL    HW176800   8.133   6.635   2.555 -0.5382  1.4141  1.8004
24882SOL    HW276801   8.280   6.623   2.522 -1.4184  0.7972 -2.4390
24883SOL     OW76802   5.177   8.795   4.095 -0.1980  0.3088 -0.0439
24883SOL    HW176803   5.228   8.714   4.084 -0.6970 -0.1268  0.7276
24883SOL    HW276804   5.165   8.802   4.190  1.7709  2.5180  0.1194
24884SOL     OW76805   6.255   8.961   7.305 -0.0373  0.6439  0.0774
24884SOL    HW176806   6.243   8.954   7.400 -0.9345 -0.6370 -0.0999
24884SOL    HW276807   6.326   8.900   7.286 -1.0501 -0.4761 -0.2628
24885SOL     OW76808   4.760   7.091   0.388 -0.6558  0.2037  0.3915
24885SOL    HW176809   4.734   7.063   0.476  0.0861  1.9152  1.2062
24885SOL    HW276810   4.769   7.010   0.338 -1.9814 -0.7476  1.6326
24886SOL     OW76811   9.281   7.941   0.004 -0.3055  0.5381  0.0662
24886SOL    HW176812   9.242   7.939  -0.084 -1.4063  0.4092  0.5455
24886SOL    HW276813   9.206   7.942   0.064  0.4221 -0.0636  1.0217
24887SOL     OW76814   5.436   8.047   9.440 -0.5293  0.4044  0.0515
24887SOL    HW176815   5.519   8.002   9.457 -0.8209 -0.6656 -1.2138
24887SOL    HW276816   5.408   8.079   9.526 -0.2754 -1.8168  1.0398
24888SOL     OW76817   5.087   4.939   6.905 -0.0430  0.0507 -1.2976
24888SOL    HW176818   5.000   4.906   6.926  0.6145 -1.2163 -0.3878
24888SOL    HW276819   5.095   5.019   6.957 -0.5860  0.0539 -1.2152
24889SOL     OW76820   7.996   8.323   0.863 -0.0306 -0.0332  0.1531
24889SOL    HW176821   7.979   8.257   0.796 -0.2261  0.2842 -0.1144
24889SOL    HW276822   8.079   8.363   0.836 -0.2177  0.2411 -0.0187
24890SOL     OW76823   9.454   1.795   2.323 -0.0421 -1.2859 -0.1591
24890SOL    HW176824   9.544   1.816   2.299 -0.5082 -0.4581 -1.2215
24890SOL    HW276825   9.409   1.782   2.240 -1.6423  1.4087  0.1689
24891SOL     OW76826   6.846   7.491   7.970 -0.4178  0.2178 -0.3429
24891SOL    HW176827   6.779   7.544   7.926 -1.7533 -0.4553  0.7997
24891SOL    HW276828   6.851   7.411   7.918  1.2582  1.1930 -1.7934
24892SOL     OW76829   3.888   7.654   7.939 -0.0747  0.6628 -0.1445
24892SOL    HW176830   3.892   7.730   7.997  1.7223  0.9079 -0.5295
24892SOL    HW276831   3.860   7.582   7.995 -0.4561  1.3284  0.5356
24893SOL     OW76832   1.030   6.873   9.401 -0.1125  0.7345 -0.3407
24893SOL    HW176833   1.090   6.869   9.326 -0.2930  1.7402 -0.5589
24893SOL    HW276834   1.086   6.858   9.477  0.3972  1.5046 -0.5541
24894SOL     OW76835   8.902   0.936   2.927 -0.6009  0.1301  0.3110
24894SOL    HW176836   8.872   1.011   2.875 -1.4744  0.0270  0.6632
24894SOL    HW276837   8.874   0.859   2.878  1.5175 -0.0263 -0.7869
24895SOL     OW76838   1.574   1.554   6.264  0.3205 -0.1026 -0.1745
24895SOL    HW176839   1.489   1.569   6.223 -0.3431 -0.3270  1.0655
24895SOL    HW276840   1.617   1.639   6.263 -0.0778  0.0969 -0.4553
24896SOL     OW76841   0.533   4.878   2.420 -0.2099  0.6199 -0.3488
24896SOL    HW176842   0.468   4.903   2.485 -1.1497 -0.9399 -0.6327
24896SOL    HW276843   0.560   4.961   2.379 -1.0215  1.4178  0.6805
24897SOL     OW76844   4.377   6.784   0.068  0.2328 -0.7839  0.0402
24897SOL    HW176845   4.465   6.819   0.057 -0.3857  0.9768  0.3670
24897SOL    HW276846   4.344   6.826   0.148 -1.1198 -0.9473 -0.3979
24898SOL     OW76847   8.379   8.857   5.731 -0.4961 -0.1096  0.0061
24898SOL    HW176848   8.345   8.774   5.766  2.0398 -0.6308  1.4705
24898SOL    HW276849   8.431   8.830   5.656 -0.9017  0.3504 -0.4418
24899SOL     OW76850   6.220   2.863   7.602 -0.9166 -0.0315  0.0453
24899SOL    HW176851   6.187   2.943   7.644 -0.9178 -1.0192  2.0408
24899SOL    HW276852   6.179   2.791   7.650  1.6580 -1.2751  0.5787
24900SOL     OW76853   0.302   7.802   4.358  0.2306  0.8417  0.1159
24900SOL    HW176854   0.246   7.837   4.427  0.3904  0.1111  0.6218
24900SOL    HW276855   0.371   7.867   4.348 -0.3726  1.4668 -0.1069
24901SOL     OW76856   6.078   2.498   4.467 -0.0691  0.3722  0.5279
24901SOL    HW176857   6.007   2.493   4.531 -0.4873  0.2884  0.0596
24901SOL    HW276858   6.158   2.490   4.519 -0.3363  1.9594  1.2429
24902SOL     OW76859   0.199   1.877   9.132  0.6281  0.0511 -0.0733
24902SOL    HW176860   0.224   1.785   9.127  0.0338 -0.0411 -3.5719
24902SOL    HW276861   0.282   1.924   9.137  0.9261 -0.5824  2.6242
24903SOL     OW76862   6.204   4.701   0.589 -0.4562 -0.2406  0.5797
24903SOL    HW176863   6.263   4.721   0.516  0.6235 -1.3781  1.0890
24903SOL    HW276864   6.124   4.669   0.548 -0.3683  0.4208 -0.1229
24904SOL     OW76865   6.954   0.719   7.083  0.6692 -0.2961  0.3267
24904SOL    HW176866   6.991   0.785   7.142  2.7001 -0.4849 -0.6457
24904SOL    HW276867   6.934   0.767   7.003  0.7895 -0.5832  0.1219
24905SOL     OW76868   4.853   9.009   5.835 -0.0535 -0.5931  0.6081
24905SOL    HW176869   4.794   9.042   5.768  0.1722  1.5234  1.3846
24905SOL    HW276870   4.797   8.953   5.890 -1.0419  0.3316  0.5782
24906SOL     OW76871   3.422   1.013   7.107  0.0135  0.2906  0.8439
24906SOL    HW176872   3.484   1.084   7.088 -0.3644  0.7109  1.1550
24906SOL    HW276873   3.472   0.933   7.093  0.0606  0.5757 -0.9588
24907SOL     OW76874   9.125   1.577   0.232  0.1050  0.5147  0.2395
24907SOL    HW176875   9.139   1.603   0.141  0.5456 -1.2214 -0.2237
24907SOL    HW276876   9.213   1.566   0.268 -0.0325 -1.1189  0.1482
24908SOL     OW76877   6.667   4.555   0.985 -0.4013 -0.0378 -0.3316
24908SOL    HW176878   6.650   4.461   0.992  0.1378 -0.1224 -0.1007
24908SOL    HW276879   6.735   4.563   0.919  0.3338  0.0901  0.4170
24909SOL     OW76880   5.902   9.492   8.922 -0.3742  0.0922 -0.5665
24909SOL    HW176881   5.959   9.566   8.941  0.0816 -0.3662 -0.1490
24909SOL    HW276882   5.877   9.458   9.008 -1.8210  0.6892 -0.7159
24910SOL     OW76883   3.227   0.760   7.505  0.2413 -0.4038 -0.0558
24910SOL    HW176884   3.295   0.758   7.573  0.9489 -0.8441 -0.7532
24910SOL    HW276885   3.184   0.675   7.513  2.3955 -1.8017 -2.1552
24911SOL     OW76886   4.979   8.126   6.794 -0.3878  0.6379  0.3253
24911SOL    HW176887   5.050   8.064   6.806 -0.1221  0.7077 -0.7800
24911SOL    HW276888   5.014   8.191   6.733 -1.5930  0.3309 -0.7391
24912SOL     OW76889   4.285   4.530   1.115  0.6344 -0.0406  0.0446
24912SOL    HW176890   4.276   4.570   1.029 -1.8106 -1.4037 -0.4199
24912SOL    HW276891   4.326   4.446   1.099 -0.4044 -0.5714  0.0901
24913SOL     OW76892   5.306   1.832   1.728  0.1653 -0.0238  0.0777
24913SOL    HW176893   5.267   1.763   1.675  1.0895  0.5076 -1.3503
24913SOL    HW276894   5.348   1.890   1.665  0.4179  1.2065  1.3331
24914SOL     OW76895   6.259   5.144   7.969 -0.0929 -0.8676  0.2084
24914SOL    HW176896   6.252   5.164   8.062 -0.7505 -1.0508  0.2007
24914SOL    HW276897   6.266   5.049   7.965  1.2549 -0.7843  0.1386
24915SOL     OW76898   7.479   0.229   4.280 -0.2105 -0.2407  0.0544
24915SOL    HW176899   7.454   0.136   4.276 -0.6460 -0.1538  0.5456
24915SOL    HW276900   7.571   0.228   4.304  0.3589 -0.5748 -1.9649
24916SOL     OW76901   4.481   6.556   6.745 -0.4016  0.4286 -0.9054
24916SOL    HW176902   4.461   6.528   6.656 -0.2237  0.7875 -1.0626
24916SOL    HW276903   4.556   6.502   6.771  0.2696  1.1094 -1.3988
24917SOL     OW76904   1.735   3.200   2.403 -0.7131 -0.3104  0.0632
24917SOL    HW176905   1.723   3.186   2.497  1.0107 -0.6289  0.2660
24917SOL    HW276906   1.779   3.285   2.396  0.9994 -1.1711 -0.2798
24918SOL     OW76907   5.988   0.425   9.491  0.3898 -0.0306 -0.2168
24918SOL    HW176908   5.995   0.517   9.513  1.6569 -0.1329 -0.1346
24918SOL    HW276909   5.983   0.423   9.395  0.4496  0.1199 -0.2226
24919SOL     OW76910   5.795   2.113   6.107 -0.1005 -0.1139 -0.1088
24919SOL    HW176911   5.861   2.055   6.144 -0.4051 -1.2560 -1.2921
24919SOL    HW276912   5.744   2.143   6.183  1.1239 -0.0123  0.7001
24920SOL     OW76913   7.270   2.466   7.198 -0.1909 -0.1481  0.2298
24920SOL    HW176914   7.230   2.551   7.214  0.6475  0.3011 -0.0464
24920SOL    HW276915   7.261   2.420   7.282 -2.7406 -0.6922 -0.2471
24921SOL     OW76916   4.147   6.218   2.792 -0.4300 -0.2366  0.7397
24921SOL    HW176917   4.136   6.165   2.714 -2.8962  1.7847 -0.4281
24921SOL    HW276918   4.242   6.223   2.805  0.0755 -0.4865 -2.2537
24922SOL     OW76919   4.652   8.479   6.492 -0.7180  0.2423  0.1677
24922SOL    HW176920   4.608   8.474   6.408  1.7745 -0.2677 -1.2152
24922SOL    HW276921   4.666   8.573   6.507 -1.0906  0.3294 -0.0336
24923SOL     OW76922   6.467   1.557   2.683 -0.3724 -0.2117 -0.0470
24923SOL    HW176923   6.453   1.496   2.611 -0.2525  2.4095 -2.4574
24923SOL    HW276924   6.379   1.582   2.711 -0.4383 -0.2828 -0.1867
24924SOL     OW76925   0.657   9.215   4.879  0.1850  0.3500 -0.0943
24924SOL    HW176926   0.726   9.150   4.867  2.1032  2.1844  0.3305
24924SOL    HW276927   0.642   9.217   4.974 -0.8167 -0.3588 -0.2243
24925SOL     OW76928   5.373   0.968   3.986  0.7654  0.0168 -0.3344
24925SOL    HW176929   5.385   0.941   4.077  0.1458 -0.2068 -0.3157
24925SOL    HW276930   5.278   0.977   3.975  0.8289 -0.0091 -0.9752
24926SOL     OW76931   3.993   7.097   2.197  0.1921  0.1313 -0.0133
24926SOL    HW176932   4.086   7.072   2.193  0.1662 -0.5483  2.3265
24926SOL    HW276933   3.952   7.045   2.128  1.2239 -1.2557  0.3626
24927SOL     OW76934   0.825   2.713   5.904  0.4986  0.5684 -0.2385
24927SOL    HW176935   0.854   2.631   5.863  2.8066  1.2694 -0.1226
24927SOL    HW276936   0.858   2.708   5.993 -1.3789  0.6503  0.5025
24928SOL     OW76937   5.001   8.989   9.051  0.4932  0.3920  0.5285
24928SOL    HW176938   4.953   9.056   9.099  0.6177  0.5821  0.3853
24928SOL    HW276939   5.051   9.037   8.985  2.0469  0.3804  1.6148
24929SOL     OW76940   4.191   3.617   4.008  0.0080  0.0483  0.3418
24929SOL    HW176941   4.100   3.621   4.038 -0.9085 -1.3913 -1.9950
24929SOL    HW276942   4.242   3.626   4.088 -2.1481  1.3997  1.6853
24930SOL     OW76943   1.007   4.482   4.334 -0.0398 -0.4813 -0.0130
24930SOL    HW176944   0.976   4.537   4.262 -0.9505  0.5248  1.1095
24930SOL    HW276945   0.928   4.443   4.370  0.6064 -2.8842 -0.9879
24931SOL     OW76946   3.750   6.750   5.962 -0.8941 -0.0414  0.0583
24931SOL    HW176947   3.663   6.731   5.995 -0.5353  0.2285  1.1989
24931SOL    HW276948   3.793   6.664   5.956 -0.8717 -0.0712  0.5810
24932SOL     OW76949   7.683   0.455   3.156  0.3141  0.0323 -0.6304
24932SOL    HW176950   7.626   0.522   3.118  1.0348  1.1013  0.1152
24932SOL    HW276951   7.692   0.480   3.248  1.6876 -0.3030 -0.6466
24933SOL     OW76952   0.675   0.737   2.884  0.4949  0.0138 -0.1214
24933SOL    HW176953   0.641   0.716   2.971  0.7797  0.9138  0.2216
24933SOL    HW276954   0.768   0.714   2.888  0.3752 -0.5479 -0.4068
24934SOL     OW76955   8.257   7.258   0.996  0.3441  0.0409  0.0603
24934SOL    HW176956   8.208   7.338   1.018  0.3688  0.5717 -1.6527
24934SOL    HW276957   8.202   7.187   1.030 -1.1907  0.6701 -0.9618
24935SOL     OW76958   8.984   2.544   0.704 -0.2660 -0.7222 -0.1910
24935SOL    HW176959   8.925   2.472   0.724 -0.7755 -0.7732 -1.7758
24935SOL    HW276960   8.975   2.558   0.610  1.4261  0.0057 -0.2883
24936SOL     OW76961   1.924   2.519   1.082 -1.0729  0.0126 -0.1886
24936SOL    HW176962   2.018   2.505   1.071 -0.7085  1.1704  1.1958
24936SOL    HW276963   1.905   2.488   1.170 -1.8339  0.4753 -0.1786
24937SOL     OW76964   8.670   1.378   2.313 -0.4576  0.1249 -0.3206
24937SOL    HW176965   8.625   1.407   2.392 -0.2118  1.2490 -0.5796
24937SOL    HW276966   8.636   1.290   2.298 -2.5176  0.8615 -0.4275
24938SOL     OW76967   8.155   2.228   4.986  0.0762 -0.0196 -0.0836
24938SOL    HW176968   8.242   2.266   4.978 -0.8367  2.4483  0.8227
24938SOL    HW276969   8.111   2.249   4.903 -0.4496  0.9925  0.4397
24939SOL     OW76970   4.080   3.089   1.618  0.1907 -0.1943  0.0489
24939SOL    HW176971   4.073   3.163   1.559  1.3099 -0.2643 -0.1894
24939SOL    HW276972   4.061   3.125   1.705 -0.9791  0.0033 -0.2746
24940SOL     OW76973   6.175   8.222   9.579  0.1078 -0.2507 -0.6656
24940SOL    HW176974   6.270   8.233   9.579  0.0564  0.9406  2.2927
24940SOL    HW276975   6.141   8.310   9.561 -0.3942 -0.0828  0.9961
24941SOL     OW76976   3.435   2.539   0.061  0.2171  0.6076  0.4471
24941SOL    HW176977   3.516   2.505   0.023 -0.5662 -0.9643  0.0828
24941SOL    HW276978   3.378   2.462   0.067 -1.7585  1.9056 -0.6222
24942SOL     OW76979   4.945   7.694   7.254  0.0070 -0.9046  0.4793
24942SOL    HW176980   4.960   7.709   7.347 -1.9730 -0.8102  0.8269
24942SOL    HW276981   4.948   7.781   7.214 -0.8851 -0.7360  0.7588
24943SOL     OW76982   1.927   3.025   6.563  0.1928 -0.1950 -0.1805
24943SOL    HW176983   1.884   3.014   6.478 -2.2333 -0.2984  0.9600
24943SOL    HW276984   1.913   2.941   6.607  0.0954  0.3528  0.8532
24944SOL     OW76985   3.900   8.328   8.575  0.1477  0.3215  0.2427
24944SOL    HW176986   3.843   8.283   8.638 -0.1590  0.4150  0.0378
24944SOL    HW276987   3.894   8.420   8.600  0.6692  0.2642  0.5786
24945SOL     OW76988   8.437   6.406   7.705 -0.1216  0.3106 -0.0465
24945SOL    HW176989   8.476   6.455   7.777 -0.8541  0.2651  0.3913
24945SOL    HW276990   8.512   6.371   7.656  0.4056  1.2372  0.0580
24946SOL     OW76991   6.021   3.398   5.426  0.6202 -0.1139  0.3101
24946SOL    HW176992   6.092   3.438   5.374  2.2524 -1.0365  1.7274
24946SOL    HW276993   6.047   3.306   5.433  0.0263 -0.1664  2.0719
24947SOL     OW76994   2.708   0.689   0.791  0.0433  0.1572 -0.6161
24947SOL    HW176995   2.750   0.680   0.876 -1.2876 -0.2796  0.0186
24947SOL    HW276996   2.640   0.755   0.805 -0.0698  0.2155 -1.3988
24948SOL     OW76997   1.632   0.441   9.460 -0.3400 -0.5318 -0.0282
24948SOL    HW176998   1.720   0.452   9.423 -0.3011  0.0961  0.2402
24948SOL    HW276999   1.573   0.459   9.388 -0.2815 -3.0698 -0.8299
24949SOL     OW77000   7.879   6.305   1.192 -0.3156  0.2291  0.0888
24949SOL    HW177001   7.930   6.356   1.129  2.0016 -0.9396  0.8994
24949SOL    HW277002   7.889   6.214   1.163 -0.6896 -0.1645  1.1500
24950SOL     OW77003   8.407   4.646   0.070 -0.1860 -0.3317 -0.1873
24950SOL    HW177004   8.370   4.645   0.158  0.7501  1.4236  0.2792
24950SOL    HW277005   8.351   4.706   0.020  0.3217  0.0796 -0.2753
24951SOL     OW77006   4.718   9.250   5.331  0.6662 -0.2855 -0.1034
24951SOL    HW177007   4.806   9.285   5.313  1.3313  0.0300  3.0918
24951SOL    HW277008   4.726   9.156   5.318  0.8405 -0.0642 -1.8655
24952SOL     OW77009   8.787   0.732   7.249  0.6523 -0.1270 -0.5684
24952SOL    HW177010   8.823   0.644   7.263  0.1987 -0.3547 -0.7856
24952SOL    HW277011   8.844   0.771   7.183  0.7475 -0.3293 -0.6059
24953SOL     OW77012   4.306   5.023   0.105 -0.8094 -0.4356 -0.0264
24953SOL    HW177013   4.347   4.952   0.154  0.0949  0.6292  0.7975
24953SOL    HW277014   4.376   5.060   0.052 -1.1864  0.0852 -0.1696
24954SOL     OW77015   4.828   7.588   9.177  0.5218  0.2025 -0.1237
24954SOL    HW177016   4.827   7.683   9.189 -0.9228  0.1381  0.4859
24954SOL    HW277017   4.737   7.562   9.189  0.6556 -1.0996 -1.6492
24955SOL     OW77018   2.133   0.806   7.729  0.5267  0.1763 -0.3337
24955SOL    HW177019   2.046   0.790   7.766 -0.0466 -2.6434 -2.5494
24955SOL    HW277020   2.192   0.799   7.804 -0.8644 -1.7742  0.6977
24956SOL     OW77021   5.496   2.433   6.938  0.4901 -0.6046 -0.0909
24956SOL    HW177022   5.486   2.475   7.024 -0.7800 -0.8907 -0.0849
24956SOL    HW277023   5.590   2.419   6.930  0.4880 -3.1946  2.5426
24957SOL     OW77024   5.111   1.474   2.804  0.1914 -0.1730  0.0490
24957SOL    HW177025   5.144   1.548   2.754  1.2012 -0.9572 -0.4845
24957SOL    HW277026   5.025   1.456   2.767 -0.2183  0.9469  0.4284
24958SOL     OW77027   7.812   3.114   8.957  0.2752 -0.6351 -0.9746
24958SOL    HW177028   7.900   3.090   8.987  0.7738  0.0377 -1.8483
24958SOL    HW277029   7.765   3.138   9.037  1.2594  0.1601 -0.6109
24959SOL     OW77030   7.954   3.261   5.367  0.3913  0.3449  0.1382
24959SOL    HW177031   7.906   3.216   5.436  1.1779  0.0237  0.4909
24959SOL    HW277032   7.985   3.192   5.309  0.2813  0.5611 -0.1822
24960SOL     OW77033   8.171   8.199   5.014  0.1617  0.2553 -0.1178
24960SOL    HW177034   8.259   8.170   5.038 -0.0820 -0.6680 -0.3120
24960SOL    HW277035   8.130   8.222   5.097  0.3082 -0.1077  0.0550
24961SOL     OW77036   8.682   3.911   1.512 -0.4774 -0.1824 -0.4473
24961SOL    HW177037   8.742   3.984   1.501 -2.4178  1.5468 -0.1816
24961SOL    HW277038   8.694   3.883   1.602 -0.8018  0.8519 -0.0734
24962SOL     OW77039   6.628   9.025   5.917 -0.3886 -1.1078 -0.2862
24962SOL    HW177040   6.545   9.070   5.900  0.0438 -0.1372  0.0961
24962SOL    HW277041   6.663   9.005   5.831  0.2868  0.9497 -0.5369
24963SOL     OW77042   6.830   5.380   1.799  0.7243 -0.1418  0.2054
24963SOL    HW177043   6.790   5.433   1.730  0.3427 -0.0245  0.5152
24963SOL    HW277044   6.775   5.395   1.876 -0.2951 -2.1363 -0.0540
24964SOL     OW77045   3.885   3.799   0.065 -0.2823  0.7999  0.0747
24964SOL    HW177046   3.794   3.828   0.077 -0.8899  0.3269 -2.5716
24964SOL    HW277047   3.914   3.845  -0.014  0.6892 -1.3729 -0.9007
24965SOL     OW77048   3.291   2.758   9.559 -0.3186 -0.0650  0.3801
24965SOL    HW177049   3.341   2.682   9.590 -2.8475 -1.9371  0.1824
24965SOL    HW277050   3.223   2.770   9.625 -0.6703  1.3100 -0.2049
24966SOL     OW77051   1.616   8.894   2.956  0.0406 -0.1898  0.7266
24966SOL    HW177052   1.579   8.814   2.994 -1.0448  0.0331  0.1787
24966SOL    HW277053   1.652   8.866   2.871  0.8323 -0.3395  1.1073
24967SOL     OW77054   6.142   7.347   5.836  0.4328  0.8222 -0.1475
24967SOL    HW177055   6.081   7.420   5.828  0.9978  1.2868 -0.2003
24967SOL    HW277056   6.194   7.349   5.756  1.4361  1.2757  0.4895
24968SOL     OW77057   7.136   3.328   6.044 -0.8435 -0.0560  0.1371
24968SOL    HW177058   7.189   3.282   6.109 -0.2528 -0.0608 -0.3362
24968SOL    HW277059   7.196   3.342   5.970 -0.8846  1.8436  0.4143
24969SOL     OW77060   9.561   0.108   1.754  0.0355 -0.6381  0.3535
24969SOL    HW177061   9.524   0.176   1.811 -0.8814 -0.3789 -0.5158
24969SOL    HW277062   9.537   0.026   1.797 -0.3474 -0.4407  0.5230
24970SOL     OW77063   1.413   8.187   0.052  0.0924  0.0238 -0.3913
24970SOL    HW177064   1.376   8.137   0.125 -0.6560  1.6275  0.3724
24970SOL    HW277065   1.461   8.259   0.093 -0.2711  0.9154 -1.4780
24971SOL     OW77066   6.619   7.878   8.112  0.0475  0.1795  0.0666
24971SOL    HW177067   6.528   7.900   8.092 -0.2714 -0.8090  0.3493
24971SOL    HW277068   6.659   7.861   8.026 -0.4966 -1.0170  0.0207
24972SOL     OW77069   5.860   5.103   0.198  0.1814 -0.2993 -0.2605
24972SOL    HW177070   5.842   5.021   0.244 -0.0982 -0.4464 -0.6232
24972SOL    HW277071   5.954   5.100   0.179  0.0373 -0.8630 -0.8956
24973SOL     OW77072   1.807   6.767   8.616 -0.0178 -0.1485  0.3675
24973SOL    HW177073   1.808   6.849   8.566 -1.2533 -0.2382  0.1558
24973SOL    HW277074   1.714   6.747   8.627  0.2151 -2.6521 -1.3995
24974SOL     OW77075   0.021   9.622   7.564 -0.1355  0.4864  0.4629
24974SOL    HW177076  -0.067   9.655   7.546 -1.5039 -1.5163  2.7822
24974SOL    HW277077   0.062   9.614   7.478 -0.5821  5.3553 -0.4746
24975SOL     OW77078   9.328   9.339   1.515  0.8028  0.6572 -0.4529
24975SOL    HW177079   9.292   9.374   1.433  0.2434  0.2331 -0.3908
24975SOL    HW277080   9.251   9.321   1.569  1.1915  2.0647  0.6442
24976SOL     OW77081   9.291   2.367   5.580  0.2614  0.4062  0.0116
24976SOL    HW177082   9.217   2.306   5.574  0.6686 -0.1190  0.2844
24976SOL    HW277083   9.273   2.432   5.512 -0.2483  0.0563 -0.1989
24977SOL     OW77084   1.969   7.545   9.570  0.1540 -0.5891 -0.6152
24977SOL    HW177085   2.054   7.576   9.538  0.8806 -2.1449 -0.2636
24977SOL    HW277086   1.933   7.620   9.618  0.2621  0.8692 -2.6696
24978SOL     OW77087   1.145   7.531   1.775 -0.1464 -0.0764  0.0485
24978SOL    HW177088   1.117   7.559   1.862 -0.2893 -0.1718  0.0345
24978SOL    HW277089   1.186   7.445   1.789  2.4149  1.1186  0.4383
24979SOL     OW77090   4.222   8.906   6.908  0.0640 -0.1985 -0.1034
24979SOL    HW177091   4.166   8.971   6.951  0.6826  1.0090 -1.0478
24979SOL    HW277092   4.248   8.847   6.979 -0.8596  0.3297  0.7075
24980SOL     OW77093   1.615   4.892   4.170  0.1323 -0.2767 -0.1309
24980SOL    HW177094   1.563   4.824   4.127  0.4137 -2.1831  2.2872
24980SOL    HW277095   1.568   4.909   4.252  0.7255  1.6091 -0.1468
24981SOL     OW77096   8.848   0.429   1.656 -0.1052  0.2440  0.2665
24981SOL    HW177097   8.820   0.512   1.618 -1.7229 -0.0930  0.6570
24981SOL    HW277098   8.870   0.450   1.747  0.7903  0.4696  0.0129
24982SOL     OW77099   4.150   2.156   6.787 -0.0429 -0.4134 -0.4789
24982SOL    HW177100   4.214   2.178   6.720  0.9707 -1.7828 -0.0015
24982SOL    HW277101   4.163   2.222   6.855  1.2037 -0.9184 -0.1933
24983SOL     OW77102   5.188   5.910   7.290  0.4745 -0.5770  0.5777
24983SOL    HW177103   5.189   5.937   7.382 -0.0295 -0.1074  0.4507
24983SOL    HW277104   5.162   5.818   7.292  1.2374 -0.7991  0.9529
24984SOL     OW77105   4.913   3.607   5.599  0.0499 -0.0521 -0.2335
24984SOL    HW177106   4.861   3.547   5.546  0.7674 -0.9181  0.0211
24984SOL    HW277107   4.857   3.684   5.610 -0.6113 -0.3916 -1.1422
24985SOL     OW77108   4.065   1.175   4.163 -0.2792  0.2044 -0.4268
24985SOL    HW177109   4.007   1.105   4.137  1.4365 -0.2977 -3.3488
24985SOL    HW277110   4.148   1.131   4.185 -0.4242  1.0197  2.1216
24986SOL     OW77111   1.936   8.461   6.716 -0.0154  0.2094  0.0598
24986SOL    HW177112   1.960   8.403   6.644 -0.7635 -0.6290  0.4614
24986SOL    HW277113   1.965   8.414   6.795  1.8818  1.6446  0.2805
24987SOL     OW77114   7.268   6.216   4.209 -0.2721 -0.1002 -0.1578
24987SOL    HW177115   7.202   6.263   4.260 -1.4281 -1.6054 -0.2049
24987SOL    HW277116   7.338   6.199   4.271 -0.1717  0.9850  0.0518
24988SOL     OW77117   3.548   5.883   6.857 -0.3429 -0.3711 -0.7373
24988SOL    HW177118   3.559   5.950   6.924 -2.0306 -0.5243 -0.2492
24988SOL    HW277119   3.524   5.931   6.778 -3.3258 -0.3722  0.0283
24989SOL     OW77120   6.233   6.910   5.839  0.2514 -0.1852  0.1798
24989SOL    HW177121   6.310   6.874   5.884 -1.0028 -2.5238  0.6297
24989SOL    HW277122   6.247   6.886   5.747 -0.1091 -1.0210  0.3292
24990SOL     OW77123   1.910   3.375   5.721  0.4365  0.2137 -0.6483
24990SOL    HW177124   1.996   3.385   5.763  1.2769 -1.6262 -1.8139
24990SOL    HW277125   1.930   3.340   5.634 -1.3610  2.2212 -1.9612
24991SOL     OW77126   3.936   1.256   3.922 -0.0797  0.5272 -0.2278
24991SOL    HW177127   3.877   1.293   3.988  0.1101  1.3880 -0.5251
24991SOL    HW277128   3.977   1.181   3.965  0.1380  1.1529  0.6845
24992SOL     OW77129   6.195   9.067   6.373 -0.6825 -0.2141 -0.0025
24992SOL    HW177130   6.151   8.999   6.322 -0.5524  0.4456 -1.0256
24992SOL    HW277131   6.286   9.066   6.342 -0.4568 -0.1856  0.6319
24993SOL     OW77132   4.955   2.258   5.818 -0.5339 -0.1879  0.0688
24993SOL    HW177133   4.862   2.245   5.838 -1.1056  2.5426 -0.3914
24993SOL    HW277134   4.957   2.278   5.724  0.7132 -1.4821 -0.2134
24994SOL     OW77135   3.409   7.809   0.870  0.2670  0.2662  0.0471
24994SOL    HW177136   3.488   7.833   0.919  0.2898 -0.2617  0.2793
24994SOL    HW277137   3.433   7.728   0.823 -0.2487 -0.1080  0.4150
24995SOL     OW77138   2.098   6.438   9.108  0.2376 -0.1039  0.0742
24995SOL    HW177139   2.107   6.508   9.173 -0.5669  0.6746 -0.6136
24995SOL    HW277140   2.127   6.477   9.026  0.4318 -0.8068 -0.2004
24996SOL     OW77141   1.623   5.259   0.975 -0.0944  0.0049 -0.3550
24996SOL    HW177142   1.628   5.176   1.022 -0.0786  0.4357  0.4306
24996SOL    HW277143   1.530   5.278   0.969 -0.0558  0.5847  0.6773
24997SOL     OW77144   7.081   7.308   3.861 -0.1557  0.0779 -0.6244
24997SOL    HW177145   7.017   7.337   3.797  0.5566 -1.0437 -1.8998
24997SOL    HW277146   7.156   7.279   3.809  1.1888  0.8560  0.8034
24998SOL     OW77147   7.588   7.852   1.056 -0.5748 -0.3730 -0.6383
24998SOL    HW177148   7.638   7.886   1.130  0.0113  0.2252 -1.3042
24998SOL    HW277149   7.625   7.765   1.040  0.7667  0.3340 -1.5732
24999SOL     OW77150   5.532   5.924   6.495  0.0799  0.2980 -0.7901
24999SOL    HW177151   5.540   6.018   6.511 -1.0841  0.3672 -0.5636
24999SOL    HW277152   5.484   5.890   6.570  0.6954 -0.5210 -0.7587
25000SOL     OW77153   3.504   6.942   3.197 -0.0411  0.9635  0.7916
25000SOL    HW177154   3.446   6.998   3.250  0.3289  0.4899  1.7206
25000SOL    HW277155   3.548   6.886   3.261 -1.6870 -1.6689 -0.1925
25001SOL     OW77156   7.274   7.887   0.164  0.0524  0.5066  0.8093
25001SOL    HW177157   7.341   7.831   0.202 -0.0289  0.1090  0.3721
25001SOL    HW277158   7.218   7.911   0.239  0.1174  0.0513  1.0076
25002SOL     OW77159   5.903   5.512   9.465 -0.3495 -0.9339  0.6944
25002SOL    HW177160   5.936   5.424   9.445 -0.0900 -0.5412 -0.6944
25002SOL    HW277161   5.895   5.554   9.380  0.9389  0.9053  1.4287
25003SOL     OW77162   7.611   1.543   3.442  0.0134  0.3346  0.3255
25003SOL    HW177163   7.690   1.491   3.461 -0.9748 -0.8388  1.3855
25003SOL    HW277164   7.604   1.541   3.346 -2.0510 -4.9349  0.2413
25004SOL     OW77165   2.234   5.879   6.763 -0.5287 -0.0674  0.8995
25004SOL    HW177166   2.215   5.926   6.682 -1.4529 -0.6422  0.7647
25004SOL    HW277167   2.321   5.842   6.749 -0.0035  1.1345  0.8028
25005SOL     OW77168   6.769   2.350   8.035 -0.0958 -0.4357  0.0452
25005SOL    HW177169   6.802   2.438   8.013  1.5824 -0.3083  2.6665
25005SOL    HW277170   6.727   2.361   8.120  0.1511 -2.1709  0.4166
25006SOL     OW77171   1.853   8.506   2.491  0.7217 -0.7411  0.3713
25006SOL    HW177172   1.927   8.565   2.475 -0.1053  0.9222  2.1869
25006SOL    HW277173   1.892   8.432   2.539  1.2994 -0.1060  0.9104
25007SOL     OW77174   0.207   7.036   6.185  0.3003  0.1565 -0.3294
25007SOL    HW177175   0.277   6.998   6.239  0.0087  0.4709  0.2787
25007SOL    HW277176   0.159   6.960   6.153  0.1518 -0.0243  0.3003
25008SOL     OW77177   2.780   8.726   6.295  0.0429  0.3054 -0.3871
25008SOL    HW177178   2.703   8.699   6.345 -0.1502 -0.4306 -1.0579
25008SOL    HW277179   2.806   8.809   6.335  0.5354 -0.7572  1.6225
25009SOL     OW77180   8.666   0.206   3.020  0.0592  0.4334 -0.2852
25009SOL    HW177181   8.694   0.250   2.940  1.8588  0.5344  0.3531
25009SOL    HW277182   8.675   0.113   3.001  1.3378  0.4689  0.0477
25010SOL     OW77183   4.791   5.392   8.668  0.7698  0.1283  0.0927
25010SOL    HW177184   4.866   5.333   8.675 -0.0143 -1.1305 -1.4282
25010SOL    HW277185   4.821   5.464   8.612  0.9191 -0.2544 -0.3224
25011SOL     OW77186   8.109   1.725   2.416 -0.4138  0.5862  0.3972
25011SOL    HW177187   8.076   1.799   2.468  1.1556  0.5882  1.4563
25011SOL    HW277188   8.181   1.763   2.366  1.9508 -0.5946  2.6482
25012SOL     OW77189   0.200   4.863   8.325  0.6354 -0.4187  0.0789
25012SOL    HW177190   0.251   4.852   8.406  1.1854  0.0216 -0.1959
25012SOL    HW277191   0.120   4.814   8.340  0.7027 -0.2868  0.9198
25013SOL     OW77192   0.348   0.388   0.259 -0.6445  0.0287 -0.2256
25013SOL    HW177193   0.275   0.422   0.313 -0.2665 -1.4514  1.3259
25013SOL    HW277194   0.370   0.305   0.301  0.8119 -0.3690 -1.7293
25014SOL     OW77195   3.981   8.583   8.944  0.2215  0.2053 -0.4474
25014SOL    HW177196   4.037   8.549   8.875  0.7658 -0.6292  0.3706
25014SOL    HW277197   4.024   8.556   9.025 -0.9256  0.2515  0.2101
25015SOL     OW77198   9.625   3.639   9.296 -0.0970 -0.0167  0.5910
25015SOL    HW177199   9.532   3.633   9.319 -0.1018 -0.6462  0.4379
25015SOL    HW277200   9.670   3.593   9.367  0.2350  1.6142  1.4706
25016SOL     OW77201   0.617   6.514   0.557  0.2171 -0.8235  0.3178
25016SOL    HW177202   0.573   6.492   0.475  0.6107 -1.5807  0.3032
25016SOL    HW277203   0.599   6.607   0.570 -1.1753 -1.0546  0.1807
25017SOL     OW77204   7.205   5.589   1.923 -0.2368  0.2231 -0.5676
25017SOL    HW177205   7.261   5.647   1.975 -1.6117  1.8511 -0.7958
25017SOL    HW277206   7.172   5.525   1.985  0.6733  0.1541 -0.1290
25018SOL     OW77207   7.292   3.628   2.422 -0.3440  0.0106 -0.6650
25018SOL    HW177208   7.342   3.668   2.351 -0.1109  1.0910  0.0810
25018SOL    HW277209   7.352   3.625   2.496 -0.8421 -0.3039 -0.2615
25019SOL     OW77210   1.365   7.755   0.933  0.2579  0.5453  0.1101
25019SOL    HW177211   1.382   7.780   0.842 -0.7304  1.5999  0.1933
25019SOL    HW277212   1.438   7.698   0.956  0.4819  0.1870 -1.3746
25020SOL     OW77213   8.697   4.446   6.510  0.3390 -0.0231  0.3479
25020SOL    HW177214   8.682   4.477   6.599 -0.0467 -0.0445  0.2941
25020SOL    HW277215   8.618   4.472   6.462  1.4308  1.9168 -0.5055
25021SOL     OW77216   4.175   6.736   2.987 -0.0626  0.0107 -0.0893
25021SOL    HW177217   4.095   6.685   3.004 -0.7264 -0.5401 -3.8880
25021SOL    HW277218   4.243   6.689   3.035 -1.0485 -3.3006 -1.5998
25022SOL     OW77219   6.993   8.856   8.638  0.2108  0.1831  0.1782
25022SOL    HW177220   6.976   8.764   8.618  1.2869 -0.0440  0.2219
25022SOL    HW277221   7.085   8.858   8.665  0.5441  1.4424 -0.9219
25023SOL     OW77222   5.696   2.174   2.455 -0.2635 -0.3856 -0.0633
25023SOL    HW177223   5.647   2.174   2.373 -0.5042  0.4398  0.0729
25023SOL    HW277224   5.759   2.246   2.445 -1.2778  0.6877  1.0457
25024SOL     OW77225   4.414   2.959   5.232  0.1653 -0.7470  0.3698
25024SOL    HW177226   4.365   3.030   5.190  0.6420  0.1272  1.2349
25024SOL    HW277227   4.359   2.882   5.222 -0.0760 -0.4058 -1.1805
25025SOL     OW77228   4.183   7.507   7.173 -0.0191 -0.0401 -0.0304
25025SOL    HW177229   4.155   7.444   7.240 -1.5401  2.0089  1.3953
25025SOL    HW277230   4.145   7.475   7.092  0.7342 -1.8649  0.2888
25026SOL     OW77231   4.440   1.991   8.849 -0.1192 -0.0503  0.2039
25026SOL    HW177232   4.391   1.924   8.801  1.1276  0.1765 -1.4966
25026SOL    HW277233   4.478   1.944   8.924 -1.8556 -0.4953  0.8464
25027SOL     OW77234   2.558   0.257   8.490  0.6651 -0.4302 -0.0971
25027SOL    HW177235   2.534   0.167   8.465 -0.9225 -0.2247  0.6030
25027SOL    HW277236   2.487   0.286   8.548  1.4185  1.1003  0.1052
25028SOL     OW77237   1.636   7.302   9.215  0.4085 -0.1976 -0.0666
25028SOL    HW177238   1.706   7.246   9.248  0.3162  0.4494  1.3051
25028SOL    HW277239   1.634   7.285   9.121  1.1149 -1.6572  0.1488
25029SOL     OW77240   7.090   7.030   4.448  0.1468 -0.0871  0.3037
25029SOL    HW177241   7.097   6.953   4.505 -2.3256 -0.1920  0.5638
25029SOL    HW277242   7.006   7.020   4.403 -1.3558  3.4472  1.9319
25030SOL     OW77243   9.174   7.752   7.817 -0.2121  0.0097 -0.1641
25030SOL    HW177244   9.106   7.712   7.764 -0.6799 -1.3279  1.3493
25030SOL    HW277245   9.127   7.796   7.888  0.4710 -1.2117  1.0888
25031SOL     OW77246   2.317   5.883   4.734 -0.3303  0.8707 -0.3207
25031SOL    HW177247   2.228   5.868   4.765 -0.5990  1.1577 -0.9370
25031SOL    HW277248   2.327   5.978   4.734  0.8765  0.8178  2.2077
25032SOL     OW77249   5.447   1.055   1.681 -0.3370 -0.8000 -0.6178
25032SOL    HW177250   5.505   0.985   1.652  1.8214  0.2379  0.9655
25032SOL    HW277251   5.487   1.135   1.649 -1.2017 -0.0771  0.0490
25033SOL     OW77252   4.311   7.387   7.539 -0.0968 -0.2814 -0.5780
25033SOL    HW177253   4.370   7.327   7.583  0.2870  0.8878  0.5780
25033SOL    HW277254   4.357   7.411   7.458  0.8911  0.3579  0.1508
25034SOL     OW77255   7.804   8.766   2.015 -0.0077  0.1266 -0.0435
25034SOL    HW177256   7.725   8.812   2.043  0.1029 -0.1018  0.6564
25034SOL    HW277257   7.846   8.737   2.096  0.4182 -0.3856 -0.4321
25035SOL     OW77258   3.972   9.270   0.814 -0.1772  0.3811 -1.0195
25035SOL    HW177259   4.009   9.188   0.846 -0.5200  1.2775  1.9746
25035SOL    HW277260   4.047   9.329   0.808 -0.5536  1.5957  3.0809
25036SOL     OW77261   1.586   0.994   7.504  0.3315 -0.3010 -0.0709
25036SOL    HW177262   1.550   1.055   7.568  0.6191 -0.3005  0.0958
25036SOL    HW277263   1.559   0.908   7.536 -1.7546 -0.1928 -1.3620
25037SOL     OW77264   7.744   7.942   0.192  0.0026 -0.4659  0.8835
25037SOL    HW177265   7.820   7.884   0.196  0.6463  0.3788  1.3203
25037SOL    HW277266   7.678   7.899   0.247 -0.0614 -1.4940  0.0309
25038SOL     OW77267   8.958   0.481   4.975  1.0279  0.2595 -0.0895
25038SOL    HW177268   8.951   0.576   4.972  2.1192  0.3601  0.1719
25038SOL    HW277269   8.868   0.451   4.988  0.6774  1.2509 -0.1326
25039SOL     OW77270   4.172   9.620   0.923 -0.0644 -0.2277 -0.4044
25039SOL    HW177271   4.238   9.678   0.885 -0.2509 -0.8977 -1.7895
25039SOL    HW277272   4.191   9.622   1.017  1.0047  0.7300 -0.6106
25040SOL     OW77273   3.893   7.409   6.529  0.1458 -0.0723 -0.1685
25040SOL    HW177274   3.803   7.393   6.560 -0.6632 -0.8283 -2.6522
25040SOL    HW277275   3.885   7.485   6.472  0.8087 -0.8678 -1.3684
25041SOL     OW77276   3.789   4.623   4.623 -0.0067 -0.7971  0.5682
25041SOL    HW177277   3.724   4.582   4.681  2.1384 -2.0289  2.2400
25041SOL    HW277278   3.857   4.556   4.612  1.3216  0.6741 -0.5443
25042SOL     OW77279   5.392   8.306   8.421  0.4199  0.2103  0.4415
25042SOL    HW177280   5.302   8.272   8.426  1.1407 -1.8299  0.5303
25042SOL    HW277281   5.399   8.364   8.496 -1.1861  1.3955 -0.2579
25043SOL     OW77282   3.946   1.990   6.061 -0.1677 -0.0507  0.5787
25043SOL    HW177283   3.929   1.902   6.027  1.0040  0.2362 -0.8805
25043SOL    HW277284   3.928   2.047   5.986  3.6454  0.5274 -0.0987
25044SOL     OW77285   3.206   5.360   0.142  0.1537  0.1436  0.1969
25044SOL    HW177286   3.253   5.277   0.127 -1.0557  0.0386 -4.7634
25044SOL    HW277287   3.116   5.333   0.160 -0.1702  0.2739 -1.0985
25045SOL     OW77288   0.292   6.390   1.256 -0.5098 -0.2547  0.6711
25045SOL    HW177289   0.258   6.386   1.167 -0.5830 -0.7181  0.7176
25045SOL    HW277290   0.241   6.325   1.304  2.0461 -2.7962  0.1990
25046SOL     OW77291   7.746   3.016   1.815  0.1153 -0.2308 -0.0200
25046SOL    HW177292   7.746   2.983   1.725 -0.2397  1.2915 -0.6101
25046SOL    HW277293   7.680   3.085   1.815 -0.8492 -1.0824  1.7657
25047SOL     OW77294   7.176   3.838   1.375  0.3113  0.5115 -0.5053
25047SOL    HW177295   7.250   3.848   1.316 -0.0519  1.1587 -0.8629
25047SOL    HW277296   7.190   3.904   1.443  0.4011  0.1944 -0.2152
25048SOL     OW77297   7.735   3.954   2.470  0.0773 -0.4936  0.2537
25048SOL    HW177298   7.660   4.012   2.457 -0.2597 -1.1192 -0.7504
25048SOL    HW277299   7.715   3.906   2.550  0.2698  0.6030  0.9924
25049SOL     OW77300   8.231   2.532   0.761 -0.1402 -0.0076  0.0735
25049SOL    HW177301   8.161   2.474   0.731  0.0682  0.0589 -0.5456
25049SOL    HW277302   8.311   2.492   0.728 -0.0019  0.6962 -0.4737
25050SOL     OW77303   0.786   4.287   9.066 -0.0859  0.4317  0.1686
25050SOL    HW177304   0.740   4.359   9.110  0.7379  1.1817 -0.1428
25050SOL    HW277305   0.720   4.220   9.051 -1.1898  1.6674 -0.6984
25051SOL     OW77306   2.950   0.416   4.303  0.3608  0.1252 -0.2350
25051SOL    HW177307   3.002   0.365   4.241  0.8334 -0.1309  0.3567
25051SOL    HW277308   2.940   0.358   4.379 -2.2544 -0.4854 -0.9724
25052SOL     OW77309   2.862   0.948   1.099  0.2712  0.5521 -0.4934
25052SOL    HW177310   2.894   1.013   1.161 -1.5059  0.6691  0.3594
25052SOL    HW277311   2.811   0.998   1.036  0.2500  0.1761 -0.7805
25053SOL     OW77312   7.296   2.007   7.455  0.1495 -0.0228  0.4444
25053SOL    HW177313   7.353   1.986   7.381 -0.0481  1.4743 -0.1781
25053SOL    HW277314   7.286   1.925   7.501  1.1588 -0.7689 -0.5866
25054SOL     OW77315   1.047   9.268   5.925  0.0292  0.5620 -0.1780
25054SOL    HW177316   1.100   9.248   5.847  0.0746 -2.8148  0.5605
25054SOL    HW277317   0.957   9.255   5.896  0.0188 -0.2019  0.1778
25055SOL     OW77318   7.130   0.645   6.063  0.6327  0.0034  0.1482
25055SOL    HW177319   7.162   0.556   6.074  0.4432 -0.3333 -1.8100
25055SOL    HW277320   7.035   0.636   6.063  0.6027  0.2950  0.5577
25056SOL     OW77321   5.857   6.112   0.379  0.3069  0.1799  0.0151
25056SOL    HW177322   5.925   6.172   0.346 -0.3263  0.4748 -0.8074
25056SOL    HW277323   5.846   6.048   0.308  0.0496 -0.1302  0.3343
25057SOL     OW77324   2.247   7.291   9.383  0.3938 -0.2306 -0.3243
25057SOL    HW177325   2.204   7.247   9.310 -0.3238 -0.1200  0.0245
25057SOL    HW277326   2.192   7.270   9.459  2.3538 -2.2921  0.6585
25058SOL     OW77327   0.254   7.587   0.536 -0.0854  0.0819  0.1774
25058SOL    HW177328   0.165   7.572   0.568 -0.2661 -3.2421 -1.4165
25058SOL    HW277329   0.245   7.659   0.474 -2.0910 -1.2256 -1.1953
25059SOL     OW77330   4.156   5.263   1.384  0.0523 -0.0467  0.1146
25059SOL    HW177331   4.093   5.223   1.323  0.5839 -1.5498  0.5104
25059SOL    HW277332   4.214   5.314   1.327  0.3559 -1.1785 -0.6297
25060SOL     OW77333   2.351   1.699   2.889  0.2646 -0.3464  0.2758
25060SOL    HW177334   2.328   1.756   2.815  0.2754 -1.7933 -0.8685
25060SOL    HW277335   2.383   1.619   2.849  0.6843 -1.0044  1.8685
25061SOL     OW77336   8.185   6.975   8.010  0.2284 -0.5169  0.5863
25061SOL    HW177337   8.181   7.030   7.932  2.8159 -1.1001 -0.0482
25061SOL    HW277338   8.189   7.038   8.083 -1.6915  0.0318  0.2803
25062SOL     OW77339   9.131   5.603   4.863 -0.4903  0.3169  0.1271
25062SOL    HW177340   9.078   5.682   4.877 -0.8001  0.1126  0.1042
25062SOL    HW277341   9.069   5.537   4.835  0.1238  0.7968 -2.6784
25063SOL     OW77342   3.736   3.878   9.314  0.7105 -0.1936  0.6506
25063SOL    HW177343   3.692   3.812   9.368 -0.9501 -0.1218 -0.5619
25063SOL    HW277344   3.720   3.961   9.358  2.1977 -0.4673  1.7919
25064SOL     OW77345   2.020   6.385   4.668  0.7837  0.1756  0.1394
25064SOL    HW177346   1.960   6.459   4.656  0.9697  0.2990 -0.0304
25064SOL    HW277347   2.101   6.425   4.698  1.5588  0.2653 -1.9327
25065SOL     OW77348   5.334   7.424   6.132  0.2201  0.5983  0.3007
25065SOL    HW177349   5.256   7.411   6.079 -0.5255 -0.9282  1.6621
25065SOL    HW277350   5.401   7.368   6.092 -0.1885 -0.1627  0.6764
25066SOL     OW77351   3.294   4.266   3.957  0.1423  0.0400 -0.5509
25066SOL    HW177352   3.346   4.322   4.015  1.4756 -1.2719 -0.4231
25066SOL    HW277353   3.275   4.321   3.881 -2.0495  1.9631  1.2371
25067SOL     OW77354   1.309   4.839   2.159  0.2584  0.6002 -0.1344
25067SOL    HW177355   1.290   4.898   2.085 -1.0434 -0.1272 -0.4138
25067SOL    HW277356   1.310   4.897   2.236  0.0801  1.1391 -0.5300
25068SOL     OW77357   8.884   2.480   8.512  0.2577 -0.5279  0.2457
25068SOL    HW177358   8.927   2.457   8.429  1.5356  3.4805 -0.4492
25068SOL    HW277359   8.795   2.447   8.503  0.0520  0.5426 -3.2151
25069SOL     OW77360   2.765   8.970   7.850 -0.4970  0.6001 -0.2796
25069SOL    HW177361   2.714   8.927   7.782 -0.6704 -0.1242  0.2987
25069SOL    HW277362   2.748   9.064   7.838  0.2290  0.5608 -1.8268
25070SOL     OW77363   8.603   5.782   4.583  0.0983  0.1238 -0.0716
25070SOL    HW177364   8.570   5.872   4.582  0.1134  0.1336  0.1282
25070SOL    HW277365   8.551   5.738   4.650  0.1922  0.0225 -0.0640
25071SOL     OW77366   6.639   6.770   6.183 -0.3942  0.0537 -0.5122
25071SOL    HW177367   6.688   6.723   6.251  1.3623  0.5911 -1.3638
25071SOL    HW277368   6.567   6.811   6.230  1.3922  1.3480  1.2735
25072SOL     OW77369   5.866   8.713   8.010  0.3869  0.6326 -0.4046
25072SOL    HW177370   5.787   8.698   7.958  0.4590 -0.9666 -0.0986
25072SOL    HW277371   5.842   8.782   8.072 -1.2873 -0.8633  0.6999
25073SOL     OW77372   5.135   5.755   6.801 -0.1362  0.2373 -0.5614
25073SOL    HW177373   5.090   5.726   6.881  0.5069 -0.3335 -0.3903
25073SOL    HW277374   5.088   5.711   6.730  1.2067 -1.8517 -0.2665
25074SOL     OW77375   7.143   8.846   4.096 -0.0007 -0.3072 -0.5857
25074SOL    HW177376   7.194   8.775   4.057 -0.4539 -1.3988  0.7317
25074SOL    HW277377   7.125   8.816   4.185 -0.7859  1.1783 -0.2179
25075SOL     OW77378   2.404   1.725   7.702 -0.3660  0.1085  0.5048
25075SOL    HW177379   2.420   1.645   7.651  0.6026 -0.1626  1.1980
25075SOL    HW277380   2.473   1.785   7.674 -0.7509  0.5037  0.3959
25076SOL     OW77381   1.090   1.392   4.116 -0.1575  0.1063 -0.6368
25076SOL    HW177382   1.076   1.483   4.140  0.5407  0.6046 -1.9823
25076SOL    HW277383   1.018   1.345   4.157 -2.1535  1.6580 -2.1609
25077SOL     OW77384   3.377   0.847   1.800 -0.2882 -0.3472 -0.5263
25077SOL    HW177385   3.302   0.828   1.856 -1.2054  0.7096 -1.3658
25077SOL    HW277386   3.427   0.765   1.798 -0.8492 -0.7537  0.8732
25078SOL     OW77387   2.433   5.838   1.569 -0.3137  0.2593  0.1819
25078SOL    HW177388   2.417   5.932   1.563 -0.6648  0.2115  0.3750
25078SOL    HW277389   2.423   5.818   1.662 -1.4529 -0.1840 -0.0298
25079SOL     OW77390   7.723   6.801   0.211 -0.1169 -0.4545  0.1985
25079SOL    HW177391   7.707   6.713   0.245  0.2845  0.0177  1.6757
25079SOL    HW277392   7.818   6.806   0.201 -0.1932 -0.4221 -0.6043
25080SOL     OW77393   1.889   3.940   5.502  0.2312  0.3491 -0.0867
25080SOL    HW177394   1.853   3.939   5.591  2.4516 -0.5228  0.8595
25080SOL    HW277395   1.959   4.006   5.505  0.0768  0.5975 -1.3129
25081SOL     OW77396   2.271   7.351   6.002 -0.2737  0.1240 -0.2637
25081SOL    HW177397   2.262   7.375   6.094  1.9892 -1.8489  0.5945
25081SOL    HW277398   2.362   7.373   5.981 -0.0525 -1.6167 -1.2913
25082SOL     OW77399   4.630   6.297   0.598  0.2547  0.3574 -0.4561
25082SOL    HW177400   4.632   6.297   0.693  0.3090  1.3770 -0.4432
25082SOL    HW277401   4.721   6.313   0.572  0.5019 -1.2713 -0.7217
25083SOL     OW77402   7.587   7.694   3.484  0.2342  0.6964 -0.0715
25083SOL    HW177403   7.647   7.763   3.455 -0.3035  0.8468 -0.8402
25083SOL    HW277404   7.547   7.661   3.404  0.9856 -0.9961  0.2163
25084SOL     OW77405   1.951   5.411   6.703 -0.0026 -0.6054  0.0503
25084SOL    HW177406   1.928   5.322   6.676 -0.5924 -1.0253  1.8008
25084SOL    HW277407   1.866   5.452   6.722  0.3274  0.0080  0.2096
25085SOL     OW77408   9.590   0.020   2.549 -0.5834  0.1014 -0.2665
25085SOL    HW177409   9.620   0.098   2.502  0.9420 -0.9443 -1.1023
25085SOL    HW277410   9.634  -0.053   2.506 -1.2199 -1.1548  1.1135
25086SOL     OW77411   3.834   2.140   5.536  0.1597  0.0491  0.4241
25086SOL    HW177412   3.896   2.166   5.468  0.8719 -0.9270  0.6910
25086SOL    HW277413   3.813   2.049   5.518  1.1234 -0.5476  2.0496
25087SOL     OW77414   5.992   4.029   6.563  0.3293 -0.1103  0.3461
25087SOL    HW177415   5.962   4.009   6.474  1.2483 -0.0995  0.0300
25087SOL    HW277416   6.081   4.061   6.552  0.2961  0.3153  1.2365
25088SOL     OW77417   1.781   1.034   4.635 -0.4437  0.1437 -0.0969
25088SOL    HW177418   1.688   1.019   4.616 -0.3385 -0.3958 -0.2128
25088SOL    HW277419   1.826   0.963   4.590 -0.1498 -0.9368  1.7784
25089SOL     OW77420   5.972   8.572   0.538  0.6683 -0.2638 -0.6812
25089SOL    HW177421   5.940   8.552   0.450  1.0163 -2.3353 -0.3837
25089SOL    HW277422   5.906   8.534   0.597  0.6017  0.8145 -0.0161
25090SOL     OW77423   0.378   6.779   0.880 -0.1104 -0.0406 -0.5380
25090SOL    HW177424   0.325   6.855   0.904 -0.4237 -0.1903 -0.7445
25090SOL    HW277425   0.402   6.738   0.963  2.6727  2.0036 -0.2093
25091SOL     OW77426   7.623   4.885   4.295  0.1371  0.0675 -0.3344
25091SOL    HW177427   7.672   4.953   4.341  0.5571  0.5305 -1.4296
25091SOL    HW277428   7.572   4.842   4.364  0.4072  1.0157  0.4902
25092SOL     OW77429   1.570   1.045   0.787  0.0776  0.2801 -0.3213
25092SOL    HW177430   1.506   1.107   0.751 -0.2271  0.1391 -0.0336
25092SOL    HW277431   1.629   1.027   0.715  1.1003  2.0884 -0.0117
25093SOL     OW77432   0.949   4.440   9.625 -0.1223 -0.7221 -0.7098
25093SOL    HW177433   1.016   4.465   9.561 -1.5190 -1.2126 -2.4296
25093SOL    HW277434   0.930   4.348   9.606 -0.4962 -0.9113  0.4969
25094SOL     OW77435   5.297   1.294   7.912  0.0965  0.2079  0.5911
25094SOL    HW177436   5.305   1.305   8.007 -1.4705  1.6630  0.5806
25094SOL    HW277437   5.311   1.200   7.898  2.2693  0.2363  2.0104
25095SOL     OW77438   0.652   2.907   0.104  0.4198  0.2512 -0.4473
25095SOL    HW177439   0.663   2.840   0.172  1.0357  1.5540  0.7846
25095SOL    HW277440   0.740   2.921   0.070  0.4034  0.8596 -0.2559
25096SOL     OW77441   6.792   5.843   5.498 -0.4856 -0.4061  0.3379
25096SOL    HW177442   6.758   5.892   5.423 -0.7214 -2.8646 -1.2519
25096SOL    HW277443   6.879   5.880   5.513 -0.1754 -0.2847 -1.5643
25097SOL     OW77444   5.894   4.053   0.041 -0.5544  0.4992  0.1227
25097SOL    HW177445   5.901   3.964   0.074  1.3835  0.7154  0.4657
25097SOL    HW277446   5.922   4.048  -0.050  0.1035  0.8008  0.2937
25098SOL     OW77447   8.616   3.387   2.295 -0.3556 -0.5255  0.9860
25098SOL    HW177448   8.658   3.397   2.380  0.0355 -0.2385  0.7619
25098SOL    HW277449   8.680   3.421   2.232 -1.4190  1.2279  0.7526
25099SOL     OW77450   3.228   0.640   3.007 -0.0460 -0.1363 -0.0457
25099SOL    HW177451   3.144   0.617   3.047 -0.0721  1.4601  0.9044
25099SOL    HW277452   3.212   0.723   2.963  0.8384 -0.2184 -0.5466
25100SOL     OW77453   8.290   8.637   7.331 -0.2688  0.2127  0.1929
25100SOL    HW177454   8.212   8.595   7.295  0.3195 -1.5052  0.7882
25100SOL    HW277455   8.349   8.646   7.256 -0.1426 -0.6828  0.1773
25101SOL     OW77456   1.590   6.533   1.342  0.0933  0.0054  0.4853
25101SOL    HW177457   1.510   6.498   1.304  0.4102  0.6047 -0.7588
25101SOL    HW277458   1.626   6.460   1.393  0.6311 -1.4860 -1.8692
25102SOL     OW77459   7.860   1.031   9.353  0.0873  0.0518 -0.0430
25102SOL    HW177460   7.888   0.969   9.286  1.1883  1.8134 -1.3093
25102SOL    HW277461   7.897   0.997   9.434  0.2279 -1.2092 -0.6122
25103SOL     OW77462   9.402   9.384   9.521  0.8797  0.0117  0.0665
25103SOL    HW177463   9.403   9.469   9.477 -0.0117  0.4631  0.8792
25103SOL    HW277464   9.406   9.405   9.614  1.8814 -0.8960  0.2516
25104SOL     OW77465   7.291   7.566   6.457 -0.2580  0.1400  0.1821
25104SOL    HW177466   7.240   7.647   6.469 -0.7006 -0.2890  1.2931
25104SOL    HW277467   7.226   7.500   6.436  0.0452 -0.0392 -0.1877
25105SOL     OW77468   6.745   0.649   1.830 -0.8754  0.2183  0.2300
25105SOL    HW177469   6.801   0.690   1.895 -1.2284  2.4719 -0.7788
25105SOL    HW277470   6.805   0.604   1.771 -0.5041 -1.1766  1.6096
25106SOL     OW77471   1.231   5.517   8.402  0.3158 -0.0160 -0.2447
25106SOL    HW177472   1.253   5.606   8.428  0.7793 -0.1420 -0.2111
25106SOL    HW277473   1.281   5.461   8.461 -0.5683 -0.3051  0.2505
25107SOL     OW77474   5.671   1.273   4.551 -0.4635 -0.5605 -0.2203
25107SOL    HW177475   5.717   1.271   4.467  0.5596 -0.6612  0.3261
25107SOL    HW277476   5.588   1.227   4.535 -0.1703 -0.7963 -1.0996
25108SOL     OW77477   5.551   2.787   0.668 -0.1104  0.0685 -0.1263
25108SOL    HW177478   5.636   2.806   0.629  0.0160 -0.7616 -0.2899
25108SOL    HW277479   5.516   2.872   0.693  1.2010  0.3581  0.8606
25109SOL     OW77480   3.735   7.584   6.111  0.1689 -0.3476  0.0944
25109SOL    HW177481   3.684   7.564   6.033 -0.2266 -1.8018  0.6952
25109SOL    HW277482   3.689   7.538   6.182  0.8049  0.5195  1.0934
25110SOL     OW77483   5.690   2.280   4.421  0.1834 -0.1053 -0.1277
25110SOL    HW177484   5.737   2.274   4.338  0.2931  0.5315 -0.1184
25110SOL    HW277485   5.615   2.337   4.402 -0.3924 -0.8253 -0.0534
25111SOL     OW77486   4.317   8.616   2.266 -0.0270  0.5398  0.1609
25111SOL    HW177487   4.337   8.620   2.173  0.9358 -1.6681  0.2095
25111SOL    HW277488   4.238   8.562   2.271  0.5540 -0.2849  0.6657
25112SOL     OW77489   1.591   7.990   7.322 -0.2573 -0.1118 -0.0982
25112SOL    HW177490   1.674   8.028   7.350 -1.2856  1.0970  1.4696
25112SOL    HW277491   1.567   8.039   7.243 -0.1329  0.4783  0.2270
25113SOL     OW77492   6.103   2.201   7.592 -0.3666 -0.8074 -0.3585
25113SOL    HW177493   6.196   2.199   7.612  0.0382 -1.0701 -2.1242
25113SOL    HW277494   6.093   2.276   7.533 -1.2410 -0.9362 -0.3839
25114SOL     OW77495   8.395   3.057   4.789  0.7910  0.3208 -0.0676
25114SOL    HW177496   8.377   2.995   4.718 -2.1857 -0.9306  1.6205
25114SOL    HW277497   8.352   3.138   4.762 -1.3490 -0.4889  0.6853
25115SOL     OW77498   9.331   5.586   4.684  0.4278  0.3633 -0.4181
25115SOL    HW177499   9.265   5.593   4.752  0.2976  0.3764 -0.5451
25115SOL    HW277500   9.364   5.676   4.673  0.5779  0.3287 -0.2455
25116SOL     OW77501   8.400   5.578   6.828 -0.5163  0.3225  0.1711
25116SOL    HW177502   8.427   5.670   6.830  1.0827 -0.1168  0.9375
25116SOL    HW277503   8.462   5.534   6.888  0.5439 -1.6830 -2.2237
25117SOL     OW77504   5.660   9.610   5.874 -0.2557  0.5070  0.1868
25117SOL    HW177505   5.640   9.540   5.936 -0.5622  0.5653  0.1532
25117SOL    HW277506   5.734   9.577   5.823 -0.8159 -0.0563 -0.2678
25118SOL     OW77507   2.058   4.893   6.805 -0.5834 -0.2577  0.5770
25118SOL    HW177508   2.015   4.845   6.734 -0.3641 -1.9281  1.5357
25118SOL    HW277509   2.002   4.878   6.881  0.2830 -0.2243  1.2251
25119SOL     OW77510   4.933   9.425   9.588 -0.3493  0.4760 -0.0052
25119SOL    HW177511   4.977   9.346   9.556  0.2066  0.4589  0.7785
25119SOL    HW277512   4.886   9.459   9.512 -0.3994 -0.4727 -0.4153
25120SOL     OW77513   8.860   3.426   6.317 -0.1168 -0.0728 -0.3478
25120SOL    HW177514   8.879   3.490   6.250 -0.0171 -0.0543 -0.3020
25120SOL    HW277515   8.865   3.341   6.272 -0.0836 -0.0586 -0.3704
25121SOL     OW77516   4.875   7.054   1.848  0.5052 -0.8528  0.3346
25121SOL    HW177517   4.797   7.105   1.830  1.5590  0.6283 -0.2602
25121SOL    HW277518   4.887   7.059   1.943 -0.4951 -1.6931  0.5150
25122SOL     OW77519   1.040   5.805   3.348 -0.5491 -0.4484 -0.2151
25122SOL    HW177520   1.023   5.813   3.441 -2.4988 -0.1989 -0.5628
25122SOL    HW277521   1.083   5.887   3.324  0.6942 -0.8352  0.5760
25123SOL     OW77522   0.772   3.440   8.302  0.0233 -0.2691 -0.6070
25123SOL    HW177523   0.745   3.503   8.235  1.0543  0.5607 -0.2677
25123SOL    HW277524   0.746   3.479   8.385  1.1284 -0.0062 -0.3567
25124SOL     OW77525   8.605   2.733   3.947  0.1853 -0.6025  0.1371
25124SOL    HW177526   8.553   2.684   3.883 -0.0237  0.3798 -0.4782
25124SOL    HW277527   8.542   2.761   4.013  0.1001 -0.2385 -0.0947
25125SOL     OW77528   6.395   8.073   6.092  0.0744 -0.1001 -0.0033
25125SOL    HW177529   6.382   8.091   5.999 -0.4888  1.8589  0.4154
25125SOL    HW277530   6.327   8.124   6.136 -0.0488 -1.4542  1.4655
25126SOL     OW77531   5.759   2.038   4.534 -0.1016  0.1492  0.0824
25126SOL    HW177532   5.848   2.050   4.566 -0.0785 -1.2608  0.6342
25126SOL    HW277533   5.737   2.121   4.492  2.6069 -0.4610 -2.9180
25127SOL     OW77534   9.151   7.733   6.648  0.6432 -0.1659 -0.0271
25127SOL    HW177535   9.101   7.753   6.727 -1.1690  1.0283 -1.3849
25127SOL    HW277536   9.242   7.743   6.675  0.0377  2.1884  1.4657
25128SOL     OW77537   0.541   9.027   0.602 -0.7264  0.1735 -0.2953
25128SOL    HW177538   0.563   9.023   0.695  0.2761 -0.1541 -0.5339
25128SOL    HW277539   0.617   9.069   0.562 -1.1846  0.3731 -0.9631
25129SOL     OW77540   7.235   4.789   4.249 -0.4361  0.3560  0.4184
25129SOL    HW177541   7.248   4.780   4.155  0.1371  1.3620  0.3828
25129SOL    HW277542   7.143   4.817   4.258 -0.3502  0.7424  0.1191
25130SOL     OW77543   1.487   9.033   2.293 -0.1644  0.6357  0.2199
25130SOL    HW177544   1.414   8.995   2.341  1.3501 -2.1087  0.5235
25130SOL    HW277545   1.510   9.112   2.343 -0.4846 -0.5499  2.3517
25131SOL     OW77546   5.038   1.528   8.130  0.2695  0.4009  0.1857
25131SOL    HW177547   5.025   1.523   8.224 -0.0090  0.4047  0.1473
25131SOL    HW277548   5.041   1.436   8.101  0.0608  0.4031  0.1580
25132SOL     OW77549   7.520   6.699   3.196  0.3903 -0.5104 -0.0841
25132SOL    HW177550   7.523   6.614   3.152  3.6971 -1.2406  1.2547
25132SOL    HW277551   7.528   6.763   3.125 -2.5410 -1.1631 -1.1535
25133SOL     OW77552   7.164   1.998   0.080  0.7161 -0.2391  0.0555
25133SOL    HW177553   7.174   1.950  -0.002 -2.9115 -1.9711  0.4271
25133SOL    HW277554   7.186   1.935   0.148  0.1178  0.0021  0.4757
25134SOL     OW77555   5.930   9.511   1.776 -0.2912  0.3538 -0.1102
25134SOL    HW177556   5.892   9.455   1.843  1.3998 -1.0845 -0.2678
25134SOL    HW277557   5.904   9.600   1.800 -0.4063 -0.2017  1.9679
25135SOL     OW77558   3.928   7.112   3.045  0.1090  0.2540 -0.2570
25135SOL    HW177559   3.868   7.043   3.015 -0.7504  0.8626  0.0263
25135SOL    HW277560   3.903   7.127   3.136  2.7973 -1.6834  0.9131
25136SOL     OW77561   1.458   5.223   8.625 -0.3986  0.5903 -0.0138
25136SOL    HW177562   1.474   5.210   8.531  0.2049 -0.0363  0.1656
25136SOL    HW277563   1.402   5.150   8.650 -0.0807  0.4303  0.2336
25137SOL     OW77564   0.004   3.362   1.782 -0.0245 -0.1736  0.2120
25137SOL    HW177565   0.024   3.268   1.781 -1.5579 -0.5359  0.2490
25137SOL    HW277566  -0.070   3.371   1.722 -0.6832  0.8033  1.1360
25138SOL     OW77567   3.587   6.845   7.165  0.8365  0.4670 -0.4664
25138SOL    HW177568   3.588   6.793   7.085  2.0136 -0.3130  0.0253
25138SOL    HW277569   3.638   6.793   7.228 -1.6732  0.0832  1.4282
25139SOL     OW77570   3.809   5.491   2.452 -0.1860  0.3584  0.4966
25139SOL    HW177571   3.791   5.502   2.545  0.1569  0.4871  0.5521
25139SOL    HW277572   3.823   5.397   2.441  1.0637  0.4837  0.8297
25140SOL     OW77573   9.125   5.675   0.002  0.5377 -0.3101 -0.4468
25140SOL    HW177574   9.218   5.675   0.025  0.6388  0.6570 -0.8257
25140SOL    HW277575   9.115   5.601  -0.058  0.6697 -1.6120  1.0491
25141SOL     OW77576   0.191   0.427   6.669  0.2910  0.0403  0.3631
25141SOL    HW177577   0.221   0.401   6.756 -0.4981  1.7049  1.1694
25141SOL    HW277578   0.248   0.380   6.609 -0.0571 -2.2790  1.7260
25142SOL     OW77579   2.574   7.172   4.175  0.2786 -0.8903 -0.2148
25142SOL    HW177580   2.610   7.132   4.255  0.1314 -0.4864  0.0552
25142SOL    HW277581   2.650   7.187   4.119  0.7807  1.3604  0.9560
25143SOL     OW77582   6.776   0.388   2.017 -0.0311 -0.3412 -0.5976
25143SOL    HW177583   6.720   0.365   2.091  1.5322 -1.6520  0.2619
25143SOL    HW277584   6.780   0.483   2.018  0.9292 -0.3426  1.8325
25144SOL     OW77585   8.544   3.779   1.300  0.5125 -0.8412  0.0815
25144SOL    HW177586   8.592   3.812   1.376  0.4772 -0.5778 -0.0101
25144SOL    HW277587   8.491   3.707   1.334  0.5571 -0.7761  0.2903
25145SOL     OW77588   6.605   4.498   9.183  0.4915 -0.0777 -0.2521
25145SOL    HW177589   6.676   4.540   9.134  0.3529  0.0198 -0.3724
25145SOL    HW277590   6.584   4.560   9.253  0.2753  0.0643 -0.4405
25146SOL     OW77591   6.668   0.412   8.949 -0.0105  0.0672 -0.7956
25146SOL    HW177592   6.590   0.463   8.925 -0.6202  0.7581  2.2756
25146SOL    HW277593   6.731   0.477   8.979  0.6854 -0.7172 -0.5128
25147SOL     OW77594   5.134   7.026   1.577 -0.3562 -0.1275 -0.0143
25147SOL    HW177595   5.112   6.964   1.647 -0.2291 -1.0645 -0.7906
25147SOL    HW277596   5.225   7.006   1.555 -0.8622 -0.9203 -1.5142
25148SOL     OW77597   3.015   2.914   6.496 -0.3966  0.5804  0.0997
25148SOL    HW177598   3.090   2.974   6.494 -0.7871  1.1518  1.7039
25148SOL    HW277599   2.982   2.919   6.585  0.0138 -2.6383  0.5502
25149SOL     OW77600   0.378   3.919   4.080  0.4332  0.3095 -0.0651
25149SOL    HW177601   0.332   3.928   4.163  0.8688  2.0408  0.0338
25149SOL    HW277602   0.334   3.980   4.021  1.4270  0.6490 -0.4823
25150SOL     OW77603   7.626   7.085   6.942  0.2507  0.2420 -0.1019
25150SOL    HW177604   7.653   7.002   6.902  0.7748  0.1815  0.3602
25150SOL    HW277605   7.532   7.074   6.957  0.1561  0.0517 -0.7923
25151SOL     OW77606   0.171   8.127   0.854  0.5209  0.7312  0.2545
25151SOL    HW177607   0.229   8.177   0.797 -0.5092  1.0035 -0.5614
25151SOL    HW277608   0.145   8.051   0.801 -0.5203  1.0371  0.3180
25152SOL     OW77609   1.189   0.395   5.183 -0.7656  0.4589 -1.2001
25152SOL    HW177610   1.110   0.381   5.234 -0.5504 -1.0298 -1.2498
25152SOL    HW277611   1.211   0.487   5.198 -1.0474  0.2253  0.9011
25153SOL     OW77612   5.621   0.547   5.575 -0.0816  1.2344  0.0579
25153SOL    HW177613   5.691   0.567   5.637 -0.3824 -0.2751  0.9368
25153SOL    HW277614   5.542   0.583   5.616 -0.0856  1.3774 -0.0760
25154SOL     OW77615   9.205   8.333   7.323 -0.0543  0.8708  0.6263
25154SOL    HW177616   9.208   8.237   7.328  1.6424  0.7824 -1.0351
25154SOL    HW277617   9.130   8.357   7.376 -1.2820 -1.4648  0.0883
25155SOL     OW77618   0.048   8.223   6.894  0.7296 -0.5584 -0.5121
25155SOL    HW177619   0.107   8.193   6.825  1.2316 -0.2999 -0.2042
25155SOL    HW277620   0.087   8.306   6.923 -0.4514  0.2391 -1.1336
25156SOL     OW77621   6.216   4.761   6.050  0.0064 -0.3686 -0.0616
25156SOL    HW177622   6.307   4.753   6.021  0.7041  0.3746  1.7534
25156SOL    HW277623   6.195   4.854   6.038 -0.5553 -0.5475 -0.5300
25157SOL     OW77624   8.481   1.473   3.779  0.1449  0.2329  0.4895
25157SOL    HW177625   8.560   1.516   3.812  1.0492  0.3551 -1.6748
25157SOL    HW277626   8.501   1.380   3.784  1.8002  0.2444 -2.8122
25158SOL     OW77627   8.398   3.914   6.387 -0.1894  0.0065  0.0236
25158SOL    HW177628   8.329   3.885   6.328  0.3632  0.9654 -1.1411
25158SOL    HW277629   8.449   3.977   6.335  0.3296  0.8612  1.5136
25159SOL     OW77630   8.442   2.274   3.510  0.5133  0.1016  0.5177
25159SOL    HW177631   8.404   2.192   3.479 -0.8393  1.7442 -2.5700
25159SOL    HW277632   8.526   2.281   3.465  0.4205  0.6186  0.4138
25160SOL     OW77633   4.997   6.837   2.593  0.1544 -0.3356 -0.1236
25160SOL    HW177634   5.044   6.822   2.675  1.5613 -1.3096 -1.0682
25160SOL    HW277635   4.967   6.750   2.567  0.7928 -0.2286 -1.2588
25161SOL     OW77636   0.701   8.840   9.469  0.2004  0.3428 -0.3162
25161SOL    HW177637   0.720   8.929   9.440 -0.9523  1.1132  1.1384
25161SOL    HW277638   0.734   8.836   9.559  0.8001 -0.9173 -0.5700
25162SOL     OW77639   4.118   2.057   0.142 -0.0846 -0.1696  0.3667
25162SOL    HW177640   4.190   2.105   0.100 -0.2195  1.4288  1.8256
25162SOL    HW277641   4.128   1.967   0.112 -0.7786  0.9538 -3.8329
25163SOL     OW77642   1.260   5.001   7.327  0.1211 -0.7427  0.1026
25163SOL    HW177643   1.329   4.951   7.370 -0.9700 -0.7669  1.9501
25163SOL    HW277644   1.305   5.077   7.290  0.8207  1.9469  5.4110
25164SOL     OW77645   7.582   4.760   0.077  0.0582  0.4100 -0.4213
25164SOL    HW177646   7.504   4.748   0.023 -0.3499 -0.2159  0.2794
25164SOL    HW277647   7.552   4.815   0.150 -0.0542 -0.8035  0.4789
25165SOL     OW77648   8.054   0.484   6.698  0.1465  0.6133  0.2326
25165SOL    HW177649   7.964   0.452   6.688  0.2952  0.7168 -1.9570
25165SOL    HW277650   8.044   0.579   6.704  0.0642  0.5712  0.7766
25166SOL     OW77651   8.847   9.523   3.241  0.3699 -0.2672 -0.1988
25166SOL    HW177652   8.769   9.511   3.295 -1.0649  0.9406 -1.8955
25166SOL    HW277653   8.893   9.597   3.281 -1.0455  1.0726 -0.9443
25167SOL     OW77654   5.126   0.839   8.399 -0.1509  0.1231  0.1148
25167SOL    HW177655   5.171   0.790   8.467 -0.2237  1.2180  0.9736
25167SOL    HW277656   5.145   0.931   8.419 -0.5051  0.4779 -1.1090
25168SOL     OW77657   5.681   4.447   8.144  0.3533  0.1092  0.3519
25168SOL    HW177658   5.640   4.407   8.066  0.3745 -0.2239  0.5103
25168SOL    HW277659   5.656   4.539   8.139  0.3321  0.0859 -0.0380
25169SOL     OW77660   8.517   0.250   3.784  0.2551 -0.4422  0.2041
25169SOL    HW177661   8.514   0.346   3.789  1.6339 -0.3448 -0.1857
25169SOL    HW277662   8.538   0.232   3.692  0.9164 -1.0702  0.4692
25170SOL     OW77663   0.235   2.800   2.042  0.3057  0.6040  0.3490
25170SOL    HW177664   0.162   2.739   2.046 -0.0516  0.8433 -1.5002
25170SOL    HW277665   0.251   2.825   2.133 -0.0197 -1.6368  1.0976
25171SOL     OW77666   9.102   3.692   1.461  0.2644  0.1024  0.1103
25171SOL    HW177667   9.073   3.703   1.551 -0.4082  0.3990 -0.1359
25171SOL    HW277668   9.043   3.626   1.425  0.1442  0.4307 -0.2929
25172SOL     OW77669   0.315   6.999   9.151  0.0936 -0.2241  0.5426
25172SOL    HW177670   0.230   7.042   9.160  0.4175  0.0163  3.2441
25172SOL    HW277671   0.370   7.062   9.105 -0.0026  1.4824  2.6566
25173SOL     OW77672   0.319   0.443   1.628  0.0389 -0.0245 -0.2362
25173SOL    HW177673   0.365   0.415   1.550  2.0094 -5.1951  2.3021
25173SOL    HW277674   0.373   0.513   1.664  2.6774 -1.8122 -0.4651
25174SOL     OW77675   5.423   7.766   7.463 -0.1286 -0.4912  0.2041
25174SOL    HW177676   5.372   7.840   7.495  0.3782  0.6510 -1.4897
25174SOL    HW277677   5.358   7.700   7.440 -0.6025 -0.4934  1.4580
25175SOL     OW77678   4.369   1.827   8.092 -0.8647 -0.0814 -0.2489
25175SOL    HW177679   4.402   1.809   8.004 -0.8272  0.5082 -0.3555
25175SOL    HW277680   4.274   1.819   8.084 -0.8973  0.5233 -0.4693
25176SOL     OW77681   7.643   3.049   7.370 -0.6064 -0.5845 -0.1843
25176SOL    HW177682   7.710   2.981   7.376  0.1885  0.1636 -0.4376
25176SOL    HW277683   7.655   3.088   7.284 -2.9787 -2.0404 -1.2854
25177SOL     OW77684   2.241   3.223   1.689 -0.2397 -0.1588  0.5122
25177SOL    HW177685   2.270   3.272   1.612 -0.1625  0.8686  1.1904
25177SOL    HW277686   2.320   3.179   1.720 -0.2257 -0.4036  0.1423
25178SOL     OW77687   5.046   9.040   0.246 -0.0990 -0.4873  0.0560
25178SOL    HW177688   5.100   9.050   0.167 -0.3254 -1.6554 -0.2696
25178SOL    HW277689   5.108   9.053   0.318  0.4894 -1.0676 -0.3203
25179SOL     OW77690   1.648   2.728   0.864  0.2618  0.1827 -0.0312
25179SOL    HW177691   1.568   2.775   0.843  0.4511  0.5979  0.1650
25179SOL    HW277692   1.623   2.667   0.933  0.4893  1.5765  1.3455
25180SOL     OW77693   0.853   8.194   7.574 -0.2750  0.2899  0.4405
25180SOL    HW177694   0.758   8.197   7.580 -0.2271  2.8460  1.0733
25180SOL    HW277695   0.880   8.286   7.571  2.0624 -0.3370 -2.0949
25181SOL     OW77696   5.502   0.779   5.682 -0.0341  0.1092  0.0754
25181SOL    HW177697   5.518   0.831   5.760  1.3581 -0.5741  0.2716
25181SOL    HW277698   5.494   0.843   5.611 -1.4044  0.7414  0.7619
25182SOL     OW77699   8.523   1.981   9.603 -0.0009  0.1911 -0.6687
25182SOL    HW177700   8.587   2.018   9.662 -0.4199 -0.4372  0.1996
25182SOL    HW277701   8.553   1.891   9.587 -0.2516  0.1378 -0.8641
25183SOL     OW77702   3.825   7.318   0.237 -0.1044  0.5530 -0.3626
25183SOL    HW177703   3.887   7.360   0.297 -0.7197 -1.6403  1.9870
25183SOL    HW277704   3.846   7.225   0.242 -2.3412 -0.0482 -0.9860
25184SOL     OW77705   7.171   3.466   5.100 -0.0793  0.1309  0.0298
25184SOL    HW177706   7.135   3.377   5.105 -0.3398  0.1873 -0.6975
25184SOL    HW277707   7.217   3.468   5.016  2.0509 -0.0897  1.1064
25185SOL     OW77708   8.307   9.167   6.601 -0.4087 -0.3338 -0.0367
25185SOL    HW177709   8.354   9.177   6.684  0.9908 -2.3076 -0.5169
25185SOL    HW277710   8.300   9.257   6.567  1.1727  0.2611  1.0799
25186SOL     OW77711   9.583   6.343   7.872  0.0255 -0.4052 -0.1732
25186SOL    HW177712   9.616   6.259   7.905 -0.1871 -0.8790 -1.1232
25186SOL    HW277713   9.604   6.406   7.941  0.0729 -1.2613  0.6135
25187SOL     OW77714   0.136   8.007   3.551  0.3340 -0.6616  0.2961
25187SOL    HW177715   0.152   8.098   3.527  0.4133 -0.2764  1.7147
25187SOL    HW277716   0.066   8.012   3.617 -1.0046 -1.7885 -0.9538
25188SOL     OW77717   2.234   6.878   2.501  0.9098 -0.1010 -0.0125
25188SOL    HW177718   2.254   6.912   2.589  1.5269 -1.0265  0.2210
25188SOL    HW277719   2.242   6.783   2.510 -0.1252 -0.2739 -0.8097
25189SOL     OW77720   0.906   4.804   6.832  0.2519  0.5201  0.9532
25189SOL    HW177721   0.946   4.869   6.890 -1.6297  2.2543  0.4132
25189SOL    HW277722   0.823   4.843   6.805 -0.1525 -1.3705 -0.8266
25190SOL     OW77723   5.492   5.001   1.896 -0.5565  0.3062 -0.0151
25190SOL    HW177724   5.516   5.042   1.813 -1.0662 -1.0341 -0.8520
25190SOL    HW277725   5.508   4.908   1.882 -1.3838 -0.0285  1.1350
25191SOL     OW77726   8.697   8.686   1.922 -0.2178 -0.1748  0.6016
25191SOL    HW177727   8.733   8.749   1.860 -0.3308 -1.7815 -1.2002
25191SOL    HW277728   8.773   8.645   1.963 -0.1242  0.2645  0.8693
25192SOL     OW77729   5.007   9.352   1.873  0.2490 -0.5154  0.0241
25192SOL    HW177730   5.096   9.317   1.879 -0.6059 -2.8255  0.4437
25192SOL    HW277731   4.959   9.287   1.822 -0.9348  1.3397 -1.3549
25193SOL     OW77732   0.310   1.318   4.640 -0.0035  0.7824 -0.1809
25193SOL    HW177733   0.341   1.250   4.699 -1.9118  0.3305  0.3882
25193SOL    HW277734   0.240   1.362   4.688 -1.8846  0.1654 -2.1319
25194SOL     OW77735   6.070   8.418   9.377  0.0590 -0.1909  0.2878
25194SOL    HW177736   6.065   8.351   9.308 -0.5998  1.1310 -1.0195
25194SOL    HW277737   5.988   8.409   9.425  0.4227 -0.9803  0.7713
25195SOL     OW77738   2.462   5.730   0.324 -0.2094 -0.4397 -0.2082
25195SOL    HW177739   2.537   5.697   0.374  1.1506  0.6237 -1.4613
25195SOL    HW277740   2.478   5.824   0.316 -2.1278 -0.0461  0.1860
25196SOL     OW77741   5.220   3.407   7.075  0.0684 -0.3730 -0.4325
25196SOL    HW177742   5.202   3.360   6.993 -1.1425 -0.9053  0.1110
25196SOL    HW277743   5.288   3.469   7.052 -1.5939  0.8766 -2.3461
25197SOL     OW77744   5.014   8.587   8.821 -0.5757 -0.0457 -0.4085
25197SOL    HW177745   5.002   8.509   8.767  0.4152  0.3060 -1.1616
25197SOL    HW277746   4.941   8.585   8.883 -0.9032 -1.2364 -0.8149
25198SOL     OW77747   5.765   7.139   2.952 -0.0372 -0.2364  0.3006
25198SOL    HW177748   5.821   7.095   2.888 -1.0048  1.1821 -1.6637
25198SOL    HW277749   5.758   7.078   3.025  1.7638 -1.6161 -0.6049
25199SOL     OW77750   3.796   9.317   5.611 -0.0021 -0.9268  0.5394
25199SOL    HW177751   3.860   9.358   5.553  0.1803 -1.1395  0.5858
25199SOL    HW277752   3.828   9.336   5.699 -0.4728 -0.3006  0.5762
25200SOL     OW77753   0.814   3.111   3.100  0.2073 -0.6697 -0.0770
25200SOL    HW177754   0.891   3.129   3.155 -0.2688 -0.2849  0.4801
25200SOL    HW277755   0.754   3.183   3.120 -0.5816 -1.3508  0.0187
25201SOL     OW77756   1.065   1.658   9.326  0.8985  0.2892 -0.3398
25201SOL    HW177757   1.116   1.694   9.254 -1.7962 -0.2811 -2.7311
25201SOL    HW277758   1.018   1.734   9.361 -0.1222  0.1287 -1.3005
25202SOL     OW77759   5.167   4.479   2.047 -0.6351  0.2174 -0.3586
25202SOL    HW177760   5.148   4.555   2.101  1.0533 -0.4965  1.3662
25202SOL    HW277761   5.244   4.503   1.996 -2.7482  1.2377 -3.3769
25203SOL     OW77762   2.198   5.010   7.008 -0.2761  0.2379 -0.6356
25203SOL    HW177763   2.260   5.066   6.960  0.6047 -1.4369 -1.5198
25203SOL    HW277764   2.152   4.961   6.940 -0.6836 -0.4651  0.1340
25204SOL     OW77765   3.149   8.996   1.398  0.3453  0.3141 -0.1428
25204SOL    HW177766   3.217   9.017   1.461  2.2548  0.4834 -2.1253
25204SOL    HW277767   3.105   8.919   1.434  1.2602  0.5018  1.4371
25205SOL     OW77768   0.706   6.689   0.294  0.0188 -0.0713  0.0979
25205SOL    HW177769   0.737   6.762   0.241  2.2274 -1.4967 -0.7392
25205SOL    HW277770   0.738   6.708   0.382  1.2209 -0.3109 -0.2603
25206SOL     OW77771   5.244   5.562   9.306  0.1653  0.0136 -0.4183
25206SOL    HW177772   5.150   5.544   9.314  0.1639 -0.6317 -1.5613
25206SOL    HW277773   5.250   5.630   9.239  0.4599  1.0329  0.6039
25207SOL     OW77774   9.035   0.542   2.942 -0.0132  0.2298 -0.5520
25207SOL    HW177775   9.116   0.584   2.971 -0.1829  0.9081 -1.0340
25207SOL    HW277776   8.969   0.572   3.004  0.2229 -0.9096  0.2892
25208SOL     OW77777   2.603   2.899   0.340  0.4799  0.4052 -0.0228
25208SOL    HW177778   2.548   2.825   0.313 -1.0543  1.2454  0.6649
25208SOL    HW277779   2.603   2.894   0.435 -0.2415  1.6897  0.0568
25209SOL     OW77780   3.148   0.237   7.235  0.1212 -0.0519 -0.1559
25209SOL    HW177781   3.200   0.167   7.195 -0.2822 -0.0272 -0.7458
25209SOL    HW277782   3.065   0.196   7.255  0.2161  0.0201  0.3822
25210SOL     OW77783   5.975   6.256   4.307  0.0512  0.5057 -0.8930
25210SOL    HW177784   6.064   6.289   4.319  0.7254 -1.3301 -0.4815
25210SOL    HW277785   5.945   6.297   4.226  0.6346  2.3995 -0.2224
25211SOL     OW77786   1.994   6.389   7.715  0.0811 -0.1455 -0.0424
25211SOL    HW177787   2.009   6.298   7.690 -0.1678 -1.3658  3.6796
25211SOL    HW277788   1.900   6.402   7.708 -0.0153 -0.5545  0.4440
25212SOL     OW77789   1.092   8.619   0.881  0.0257 -0.1256 -0.0075
25212SOL    HW177790   1.037   8.542   0.865 -0.1102 -0.1232  0.4341
25212SOL    HW277791   1.033   8.693   0.866  0.1961 -0.0978 -0.5823
25213SOL     OW77792   5.313   3.382   5.174 -0.4606 -0.2486  0.4279
25213SOL    HW177793   5.375   3.434   5.225  0.4286 -1.7499  0.9592
25213SOL    HW277794   5.350   3.379   5.086 -0.7753  0.4143  0.2693
25214SOL     OW77795   4.344   4.095   2.942 -0.1974  0.4951 -0.2066
25214SOL    HW177796   4.322   4.044   2.864  2.3992 -0.2607 -0.5354
25214SOL    HW277797   4.388   4.173   2.908 -3.1103  2.5491  0.3577
25215SOL     OW77798   1.943   7.261   8.402 -0.0568  0.2332  0.2109
25215SOL    HW177799   1.926   7.281   8.494  0.4275 -0.2009  0.3972
25215SOL    HW277800   2.037   7.273   8.392 -0.2856  1.5925 -0.5558
25216SOL     OW77801   8.638   4.617   1.667 -0.6704 -0.0463  0.2996
25216SOL    HW177802   8.544   4.615   1.681 -0.5504 -0.9752  1.1160
25216SOL    HW277803   8.676   4.617   1.755  0.0816 -1.2226  0.0053
25217SOL     OW77804   8.829   8.671   8.034  0.6058  0.1133  0.1482
25217SOL    HW177805   8.817   8.582   8.067  1.0358  0.3235  0.9104
25217SOL    HW277806   8.891   8.710   8.095 -0.5369  1.3374  0.5671
25218SOL     OW77807   3.187   6.588   8.880 -0.2917 -0.1568 -0.4010
25218SOL    HW177808   3.186   6.534   8.802 -0.1361 -0.9787  0.1586
25218SOL    HW277809   3.145   6.670   8.853  0.7028 -0.0303 -1.6103
25219SOL     OW77810   0.926   6.127   7.088 -0.0574  0.0350 -0.1028
25219SOL    HW177811   1.016   6.156   7.081  0.0651  0.3700  2.1065
25219SOL    HW277812   0.926   6.064   7.160 -1.6166  0.2160  0.1045
25220SOL     OW77813   9.435   8.073   4.851  0.1974 -0.8675 -0.3150
25220SOL    HW177814   9.426   8.064   4.946  2.5887 -1.0715 -0.0420
25220SOL    HW277815   9.514   8.125   4.839  1.8058 -3.4681 -2.1793
25221SOL     OW77816   3.936   7.410   3.940  0.3898 -0.3023  0.1000
25221SOL    HW177817   3.952   7.495   3.898  0.5921 -0.7618 -0.7782
25221SOL    HW277818   4.022   7.367   3.938 -0.0270 -1.1123 -0.8068
25222SOL     OW77819   2.305   7.892   6.017 -0.5273 -0.0293 -0.0356
25222SOL    HW177820   2.330   7.805   5.986  1.5676  0.5626 -0.1103
25222SOL    HW277821   2.315   7.888   6.112  1.7564  0.7204 -0.1909
25223SOL     OW77822   8.475   5.539   0.862  0.6413  0.5085  1.0506
25223SOL    HW177823   8.472   5.480   0.786  1.2539  0.5865  0.9627
25223SOL    HW277824   8.566   5.537   0.890  0.5081  0.8384  1.5073
25224SOL     OW77825   6.481   8.812   0.418 -0.2682 -0.6069 -0.4902
25224SOL    HW177826   6.512   8.822   0.508 -1.3806 -0.7770 -0.0714
25224SOL    HW277827   6.516   8.889   0.373  0.4777 -0.6283  0.0343
25225SOL     OW77828   6.378   0.817   3.000 -0.7835 -0.2772 -0.1131
25225SOL    HW177829   6.445   0.882   3.023 -1.9346  0.6336  0.7853
25225SOL    HW277830   6.311   0.826   3.068 -1.5440 -1.5826 -0.6517
25226SOL     OW77831   0.349   2.759   8.816  0.6564 -0.0902 -0.0703
25226SOL    HW177832   0.404   2.817   8.764  1.4933 -1.0045 -0.2266
25226SOL    HW277833   0.283   2.727   8.754  1.1629 -0.5410 -0.3896
25227SOL     OW77834   1.327   5.411   1.948 -0.2367 -0.2820 -0.4276
25227SOL    HW177835   1.314   5.344   1.881  0.6133 -2.0882  1.1321
25227SOL    HW277836   1.241   5.419   1.990 -0.1606 -0.9587 -0.1316
25228SOL     OW77837   2.815   7.693   6.034  0.4064  0.1788 -0.4304
25228SOL    HW177838   2.906   7.722   6.037  0.6679 -0.1415 -3.0123
25228SOL    HW277839   2.771   7.759   5.979 -1.0696  0.5745  1.1176
25229SOL     OW77840   4.690   3.058   5.818 -0.1735 -0.4205 -0.0885
25229SOL    HW177841   4.694   2.962   5.817  1.9348 -0.4019  0.4856
25229SOL    HW277842   4.646   3.079   5.900 -0.7874 -0.8847 -0.2897
25230SOL     OW77843   0.037   3.241   1.190  0.5221 -0.0208  0.4219
25230SOL    HW177844  -0.040   3.255   1.246  0.8252 -2.4315  1.5516
25230SOL    HW277845   0.083   3.325   1.193 -2.1138  1.5740 -0.4652
25231SOL     OW77846   1.795   6.128   3.023 -0.2851  0.0025  0.7024
25231SOL    HW177847   1.851   6.187   3.074 -1.4411  1.9708 -0.1488
25231SOL    HW277848   1.837   6.122   2.938 -0.0381 -0.6362  0.8646
25232SOL     OW77849   4.982   6.315   6.655 -0.3129 -0.2922 -0.0431
25232SOL    HW177850   4.951   6.402   6.679 -0.7291  0.0147 -1.5845
25232SOL    HW277851   4.928   6.255   6.706 -0.8271  0.3233  0.1452
25233SOL     OW77852   0.958   2.139   9.092 -0.6730 -0.1127 -0.1841
25233SOL    HW177853   0.939   2.218   9.041  1.0357  1.5472  1.6049
25233SOL    HW277854   0.984   2.074   9.026  0.5390  1.6526 -1.5476
25234SOL     OW77855   2.993   2.637   7.228 -0.6658  0.1799  0.0058
25234SOL    HW177856   2.940   2.639   7.149  0.0058  0.6632 -0.4441
25234SOL    HW277857   3.069   2.584   7.205 -1.4369 -1.4446  0.9853
25235SOL     OW77858   1.789   7.896   6.332 -0.2433 -0.2101  0.5810
25235SOL    HW177859   1.770   7.803   6.324  1.2580 -0.7102  2.2906
25235SOL    HW277860   1.878   7.906   6.299 -0.2670  0.5691  0.7247
25236SOL     OW77861   8.114   7.190   6.891 -0.3535 -0.1438  0.0046
25236SOL    HW177862   8.135   7.282   6.875  0.4526 -0.5569 -1.5043
25236SOL    HW277863   8.199   7.148   6.906 -0.5820 -0.8888 -0.7093
25237SOL     OW77864   2.232   3.275   5.644 -0.9723  0.6748 -0.0545
25237SOL    HW177865   2.253   3.183   5.629 -1.8305  0.2146  1.3773
25237SOL    HW277866   2.157   3.292   5.586 -1.6555  0.0783  0.6297
25238SOL     OW77867   2.959   0.658   2.834  0.3789  0.0134 -0.4419
25238SOL    HW177868   2.970   0.608   2.915  0.3725 -1.1712 -1.1560
25238SOL    HW277869   2.869   0.641   2.807  0.7542 -0.5895 -1.3414
25239SOL     OW77870   4.524   0.543   3.308 -0.7041  0.1503 -0.6090
25239SOL    HW177871   4.443   0.512   3.348 -1.1400  0.1381 -1.4816
25239SOL    HW277872   4.582   0.468   3.310 -1.1596 -0.2219 -1.1335
25240SOL     OW77873   5.876   2.452   8.993  0.4469  0.1286 -0.2316
25240SOL    HW177874   5.805   2.516   9.002 -0.8936 -1.4252  0.9088
25240SOL    HW277875   5.942   2.479   9.057  0.6936  1.3215 -0.9670
25241SOL     OW77876   1.780   7.174   4.405 -0.2015  0.0709  0.5596
25241SOL    HW177877   1.786   7.257   4.356  1.0842 -0.9739 -1.1666
25241SOL    HW277878   1.854   7.176   4.465 -0.6776  0.5309  1.1430
25242SOL     OW77879   2.738   0.507   9.060 -0.5341 -0.0795  0.0684
25242SOL    HW177880   2.817   0.542   9.103 -0.7711  0.0466  0.4052
25242SOL    HW277881   2.682   0.480   9.132 -0.6902 -0.4166 -0.1796
25243SOL     OW77882   1.710   3.893   3.813 -0.5490 -0.4493  0.6380
25243SOL    HW177883   1.671   3.862   3.895  0.2659  0.1102  1.2565
25243SOL    HW277884   1.678   3.982   3.803 -1.0574 -0.6842  0.0591
25244SOL     OW77885   5.143   2.531   8.957  0.6988 -0.3565 -0.3555
25244SOL    HW177886   5.121   2.473   8.884 -1.4370 -0.7906  0.5527
25244SOL    HW277887   5.146   2.619   8.918  2.6866 -0.8662 -1.4934
25245SOL     OW77888   2.351   4.840   3.168 -0.8090 -0.0064 -0.1480
25245SOL    HW177889   2.372   4.790   3.090 -0.3759  0.8806 -0.6224
25245SOL    HW277890   2.426   4.829   3.226 -1.6689 -1.6987  0.7142
25246SOL     OW77891   5.329   4.018   8.448  0.5833 -0.4370  0.0534
25246SOL    HW177892   5.379   4.040   8.526 -1.0211  1.5181  0.6165
25246SOL    HW277893   5.377   4.060   8.376  0.4563  0.3698  0.4232
25247SOL     OW77894   2.258   0.673   6.564 -0.3002  0.4911 -0.2935
25247SOL    HW177895   2.344   0.668   6.522  0.0184  0.9226  0.2999
25247SOL    HW277896   2.244   0.766   6.581  1.0135  0.1453  3.4222
25248SOL     OW77897   3.526   3.146   3.537  0.1563 -0.2884  0.1136
25248SOL    HW177898   3.613   3.169   3.569  0.8182 -1.6935 -0.6118
25248SOL    HW277899   3.473   3.138   3.616  0.4327  1.3988  0.5211
25249SOL     OW77900   2.748   8.980   3.498  0.3779  0.1718  0.5417
25249SOL    HW177901   2.832   8.972   3.452 -0.4943  1.6601 -1.4735
25249SOL    HW277902   2.711   9.062   3.466 -1.6573 -0.2132  1.7435
25250SOL     OW77903   6.582   6.273   2.730 -0.1989  0.3736  0.0603
25250SOL    HW177904   6.625   6.187   2.732 -0.0648  0.4475  0.4827
25250SOL    HW277905   6.499   6.259   2.776 -0.2869  0.4107 -0.0886
25251SOL     OW77906   6.951   1.490   9.026 -0.4081  0.1099  0.2502
25251SOL    HW177907   7.028   1.434   9.036 -0.9806 -0.8093 -0.3340
25251SOL    HW277908   6.915   1.498   9.114 -1.1141 -1.6313  0.1509
25252SOL     OW77909   0.530   4.642   4.626 -0.4150  0.1516  0.2033
25252SOL    HW177910   0.460   4.629   4.689  0.8796  1.0516  1.9226
25252SOL    HW277911   0.544   4.737   4.624  1.8594 -0.0938  1.2587
25253SOL     OW77912   9.331   1.527   3.614  0.1847 -0.3549  0.2494
25253SOL    HW177913   9.380   1.592   3.564  1.3554 -1.6669 -0.3850
25253SOL    HW277914   9.316   1.456   3.552  0.3777 -1.3900  1.3600
25254SOL     OW77915   5.787   9.205   3.928 -0.4405 -0.2317 -0.7125
25254SOL    HW177916   5.836   9.191   3.847 -0.4305  1.6006 -1.0827
25254SOL    HW277917   5.839   9.269   3.977 -1.6803  0.6141 -0.4342
25255SOL     OW77918   7.769   5.051   7.006  0.0636 -0.0655 -0.4163
25255SOL    HW177919   7.769   5.081   6.915  0.0053  0.0084 -0.3921
25255SOL    HW277920   7.749   4.957   7.001  1.4550 -0.3811 -0.5854
25256SOL     OW77921   3.691   4.227   7.134  0.0521  0.1819  0.7090
25256SOL    HW177922   3.782   4.253   7.149  0.2798  0.7231 -1.3231
25256SOL    HW277923   3.691   4.132   7.146  1.0734  0.0748 -0.0079
25257SOL     OW77924   0.796   0.542   7.931 -0.4016 -0.3023 -0.1830
25257SOL    HW177925   0.782   0.486   7.855  1.6781  0.4227 -1.1681
25257SOL    HW277926   0.842   0.618   7.897  1.4788 -0.3854  1.9298
25258SOL     OW77927   0.113   0.594   1.999  0.7030 -0.3052 -0.0794
25258SOL    HW177928   0.116   0.505   1.965  0.7437 -0.8818  1.3539
25258SOL    HW277929   0.205   0.622   2.000  0.4783  0.9982 -3.4872
25259SOL     OW77930   4.912   8.840   4.613  0.4182 -0.3556 -0.7113
25259SOL    HW177931   4.869   8.819   4.696  1.6218  0.0910  0.0381
25259SOL    HW277932   4.877   8.774   4.552  1.6879 -2.6158  0.8312
25260SOL     OW77933   3.586   4.828   0.461 -0.1362 -0.1981  0.1720
25260SOL    HW177934   3.521   4.777   0.412 -0.7817  0.3075  0.4923
25260SOL    HW277935   3.535   4.872   0.529  0.5735  0.0698  0.5351
25261SOL     OW77936   3.597   4.504   1.740 -0.0056  0.3432  0.1375
25261SOL    HW177937   3.549   4.494   1.657  2.0303 -0.5629 -0.9957
25261SOL    HW277938   3.689   4.494   1.716  0.7458  1.3663  2.3365
25262SOL     OW77939   2.726   0.191   7.573  0.2722  0.6114 -0.6567
25262SOL    HW177940   2.710   0.284   7.556 -1.2065  0.6424  0.6930
25262SOL    HW277941   2.638   0.153   7.580  0.8037 -0.3662  1.4469
25263SOL     OW77942   4.272   6.594   7.642 -0.1140 -0.5234 -0.0735
25263SOL    HW177943   4.291   6.688   7.640 -1.0750 -0.3345 -1.6329
25263SOL    HW277944   4.358   6.553   7.636  0.2222  0.2664 -0.9015
25264SOL     OW77945   6.408   6.046   5.178  0.2870 -0.0848 -0.1817
25264SOL    HW177946   6.335   6.075   5.123  0.1733 -0.7600 -0.3977
25264SOL    HW277947   6.372   6.044   5.267 -0.0121 -0.5986 -0.3138
25265SOL     OW77948   8.811   2.268   7.269  0.1824 -0.4825 -0.2029
25265SOL    HW177949   8.830   2.250   7.177 -0.4101 -1.0178 -0.2291
25265SOL    HW277950   8.734   2.215   7.288  0.2454 -0.3029  0.5802
25266SOL     OW77951   7.758   8.432   6.915  0.5988 -0.4969  0.0349
25266SOL    HW177952   7.799   8.517   6.933 -0.6706  0.5474 -1.7932
25266SOL    HW277953   7.756   8.389   7.001  0.8036  1.5139  1.1191
25267SOL     OW77954   6.255   6.555   9.178  0.0910 -0.0317  0.2118
25267SOL    HW177955   6.347   6.583   9.176  0.3243 -0.7700  0.0768
25267SOL    HW277956   6.224   6.579   9.265  1.1198 -1.8878  1.1495
25268SOL     OW77957   1.557   3.927   1.819  0.4138  0.0535  0.1886
25268SOL    HW177958   1.519   3.954   1.736  1.1264  0.3082 -0.0623
25268SOL    HW277959   1.629   3.988   1.834 -0.3669  0.6921  1.5282
25269SOL     OW77960   9.539   0.671   3.244  0.1022  0.4157  0.5467
25269SOL    HW177961   9.516   0.602   3.182  3.4157  0.5646 -1.0558
25269SOL    HW277962   9.483   0.745   3.219 -1.9538 -0.9288  0.9018
25270SOL     OW77963   1.611   9.247   3.211  0.3468  0.1864 -0.6519
25270SOL    HW177964   1.705   9.261   3.220  0.2927 -0.2350  0.9376
25270SOL    HW277965   1.571   9.328   3.242  0.1763 -0.5410  1.1701
25271SOL     OW77966   0.393   9.235   0.248 -0.2467  0.2479 -0.1833
25271SOL    HW177967   0.444   9.312   0.274 -0.5013  0.0664  0.8744
25271SOL    HW277968   0.305   9.269   0.232  0.2418  0.6352 -2.4077
25272SOL     OW77969   8.699   2.290   9.580 -0.1051  0.1010 -0.4032
25272SOL    HW177970   8.752   2.259   9.507 -0.0260 -0.2406 -0.2028
25272SOL    HW277971   8.710   2.224   9.648  1.0820  1.1856  0.5089
25273SOL     OW77972   1.097   9.279   2.771  0.4210  0.3186  0.3478
25273SOL    HW177973   1.072   9.202   2.823 -0.4967  0.2541 -0.1603
25273SOL    HW277974   1.033   9.281   2.700  0.9544  1.0733 -0.1186
25274SOL     OW77975   2.122   4.540   0.051 -0.1701  0.3299 -0.2621
25274SOL    HW177976   2.143   4.457   0.008 -0.5140 -0.3178  0.7845
25274SOL    HW277977   2.026   4.544   0.047 -0.1672  0.5480 -0.0755
25275SOL     OW77978   5.022   0.249   7.718 -0.1062 -0.2767 -0.3203
25275SOL    HW177979   4.948   0.196   7.689 -0.9738  0.5998  0.2195
25275SOL    HW277980   5.100   0.200   7.689 -0.8698 -1.6720 -0.0968
25276SOL     OW77981   1.617   0.877   5.199  0.6502 -0.2636  0.2224
25276SOL    HW177982   1.621   0.958   5.251  1.2086 -1.3845  2.0364
25276SOL    HW277983   1.546   0.827   5.239  0.9784 -1.0879 -0.2060
25277SOL     OW77984   1.810   7.749   3.907  0.0651  0.0365  0.5193
25277SOL    HW177985   1.834   7.840   3.888 -0.5077  0.0152 -0.3527
25277SOL    HW277986   1.810   7.706   3.822 -1.1368 -0.4203  0.7288
25278SOL     OW77987   5.121   3.302   5.353  0.0904  0.5598  0.4034
25278SOL    HW177988   5.191   3.333   5.295  1.1473  0.9940  1.8613
25278SOL    HW277989   5.128   3.357   5.431 -1.5418  0.2440  0.7992
25279SOL     OW77990   1.959   5.564   2.239 -0.1106 -0.1906 -0.1334
25279SOL    HW177991   1.914   5.487   2.272 -0.3940 -1.5594 -3.3480
25279SOL    HW277992   2.036   5.529   2.192  0.4701  1.5701 -0.5851
25280SOL     OW77993   7.961   0.041   2.777  0.0885 -0.3144 -0.2571
25280SOL    HW177994   7.906   0.108   2.736  1.4890  0.0320 -1.6893
25280SOL    HW277995   7.902  -0.032   2.793 -1.0670  0.5310 -0.4960
25281SOL     OW77996   1.533   3.595   9.213  0.2725  0.0733  0.1295
25281SOL    HW177997   1.491   3.681   9.205 -1.0311 -0.4830  0.6710
25281SOL    HW277998   1.616   3.613   9.256 -0.9205  0.8610  2.2430
25282SOL     OW77999   7.588   1.856   8.340 -0.2147 -0.5666  0.3458
25282SOL    HW178000   7.639   1.798   8.282 -0.9404 -0.4364 -0.4529
25282SOL    HW278001   7.505   1.810   8.351  0.1123 -0.8493  1.7578
25283SOL     OW78002   4.698   6.183   0.302  0.3578 -0.0117 -0.0029
25283SOL    HW178003   4.630   6.231   0.255  0.5764 -0.5874 -0.9105
25283SOL    HW278004   4.727   6.245   0.370  0.3961  1.0234 -0.9351
25284SOL     OW78005   6.969   7.693   0.223 -0.5504 -0.3742 -0.4005
25284SOL    HW178006   6.950   7.643   0.144 -1.2036 -1.4003  0.3879
25284SOL    HW278007   6.934   7.780   0.204 -2.0935 -1.0169 -0.6780
25285SOL     OW78008   8.436   4.409   5.633  0.3748 -0.4364 -0.2519
25285SOL    HW178009   8.423   4.410   5.538  0.7569 -0.8866 -0.3107
25285SOL    HW278010   8.513   4.354   5.647  0.4646 -0.1821  0.3046
25286SOL     OW78011   1.191   2.054   3.923  0.3618 -0.3681  0.4737
25286SOL    HW178012   1.211   2.095   3.839 -0.7652  1.0226  0.8488
25286SOL    HW278013   1.274   2.053   3.971  0.5183  1.0833  0.2694
25287SOL     OW78014   6.856   6.520   1.543 -0.1258  0.5652 -0.2738
25287SOL    HW178015   6.877   6.427   1.538 -0.4856  0.3338  1.6423
25287SOL    HW278016   6.910   6.561   1.476  1.9722 -0.7096  0.5527
25288SOL     OW78017   9.499   2.011   3.670  0.0504  0.4796 -0.4246
25288SOL    HW178018   9.406   1.996   3.649  0.1705  0.5134 -0.9995
25288SOL    HW278019   9.528   2.074   3.604  0.2589  1.1449  0.2994
25289SOL     OW78020   5.287   0.341   3.389 -0.0396 -0.4516 -0.7884
25289SOL    HW178021   5.204   0.386   3.401 -0.9589 -2.6169  2.1546
25289SOL    HW278022   5.267   0.249   3.403  3.1106 -0.8857  2.0609
25290SOL     OW78023   8.293   4.606   7.318  0.1233  0.0609  0.0788
25290SOL    HW178024   8.266   4.581   7.230 -0.1477  1.2466 -0.1879
25290SOL    HW278025   8.301   4.523   7.365  1.1708 -0.6555 -1.3036
25291SOL     OW78026   9.103   2.838   7.816  0.0651  0.2507 -0.0261
25291SOL    HW178027   9.019   2.858   7.858  0.5098  2.8982 -0.1810
25291SOL    HW278028   9.082   2.771   7.751 -1.9962  1.0016 -0.2264
25292SOL     OW78029   3.384   0.052   3.457  0.1768  0.3044 -0.0405
25292SOL    HW178030   3.293   0.070   3.434  0.0583 -0.5053 -0.2373
25292SOL    HW278031   3.434   0.081   3.380 -0.0289 -0.3579 -0.4376
25293SOL     OW78032   0.027   5.215   8.444  0.1576 -0.6423  0.5244
25293SOL    HW178033   0.108   5.261   8.424 -0.8341  0.3204 -1.6537
25293SOL    HW278034  -0.039   5.285   8.449 -1.0802 -1.6445 -1.0554
25294SOL     OW78035   7.948   1.728   0.319  0.1893  0.1670  0.3327
25294SOL    HW178036   7.857   1.713   0.296  0.1282 -1.2431  1.3439
25294SOL    HW278037   7.995   1.724   0.236 -0.6909  1.2740 -0.2412
25295SOL     OW78038   9.062   5.606   6.230  0.0450  0.0016  0.2358
25295SOL    HW178039   8.975   5.604   6.191  0.3755  0.4029 -0.5561
25295SOL    HW278040   9.090   5.514   6.230 -0.5170 -0.1745  0.8357
25296SOL     OW78041   3.341   8.216   3.885 -0.6454  0.0900  0.8911
25296SOL    HW178042   3.432   8.224   3.914 -0.7180 -0.7696  1.4026
25296SOL    HW278043   3.301   8.156   3.948 -0.9119 -1.5704 -0.7503
25297SOL     OW78044   6.561   3.874   6.098 -0.1886 -0.5500  0.2245
25297SOL    HW178045   6.636   3.896   6.154  1.3707 -0.0853 -1.9429
25297SOL    HW278046   6.596   3.812   6.034 -1.8886 -0.9693 -0.3545
25298SOL     OW78047   6.642   1.609   4.523  0.3156  0.3656 -0.0399
25298SOL    HW178048   6.689   1.660   4.457 -0.3820 -0.3259 -1.1094
25298SOL    HW278049   6.710   1.567   4.576  1.0255 -1.8912 -2.5258
25299SOL     OW78050   2.231   2.600   2.417  0.2296 -0.0696 -0.0116
25299SOL    HW178051   2.158   2.563   2.467 -0.8161  1.1485 -0.5572
25299SOL    HW278052   2.271   2.525   2.373 -0.3599 -0.8313  0.7207
25300SOL     OW78053   0.415   8.547   8.803 -0.0610  0.0096  0.2438
25300SOL    HW178054   0.498   8.503   8.784 -0.4476 -0.9474  0.6601
25300SOL    HW278055   0.432   8.639   8.788  0.5839 -0.3377 -1.3906
25301SOL     OW78056   5.301   7.317   4.918  0.0350 -0.1032 -0.1410
25301SOL    HW178057   5.327   7.404   4.947 -0.7667 -0.2892  1.2051
25301SOL    HW278058   5.208   7.312   4.938  0.3528 -1.7695  1.1136
25302SOL     OW78059   5.811   7.502   5.802  0.5694 -0.1238  0.8629
25302SOL    HW178060   5.752   7.577   5.792 -0.4379 -0.8371  1.2894
25302SOL    HW278061   5.889   7.538   5.844  0.4363  0.8279  0.3250
25303SOL     OW78062   5.313   7.418   0.426 -0.0227 -0.5402  0.0510
25303SOL    HW178063   5.225   7.382   0.431  0.2535 -1.1474  0.7729
25303SOL    HW278064   5.350   7.402   0.513  0.3022  1.0166  0.2365
25304SOL     OW78065   6.420   4.298   5.508  0.1500 -0.0576 -0.5360
25304SOL    HW178066   6.513   4.295   5.528 -0.0829 -0.5731  0.5373
25304SOL    HW278067   6.379   4.244   5.575 -0.6274 -2.7201 -2.9799
25305SOL     OW78068   5.461   5.937   8.823 -0.1647 -0.5141 -0.1480
25305SOL    HW178069   5.544   5.926   8.777 -0.1438 -0.0776 -0.2187
25305SOL    HW278070   5.471   6.019   8.872  0.0254 -1.2438  1.0950
25306SOL     OW78071   5.264   0.798   6.309 -0.1309 -0.2255  0.2020
25306SOL    HW178072   5.200   0.812   6.379 -0.8202 -1.7786 -0.0757
25306SOL    HW278073   5.349   0.810   6.351 -0.5519 -0.6388  1.1925
25307SOL     OW78074   1.700   6.829   4.505 -0.0788  0.1636 -0.3715
25307SOL    HW178075   1.777   6.832   4.448 -0.1465  2.7017 -0.4193
25307SOL    HW278076   1.641   6.895   4.469 -0.7779  0.7642  1.7529
25308SOL     OW78077   2.183   1.306   0.009 -0.5932  0.1126 -0.0757
25308SOL    HW178078   2.258   1.257   0.043  1.1102  1.4786 -1.6504
25308SOL    HW278079   2.152   1.254  -0.065  0.6148  0.8344 -1.1477
25309SOL     OW78080   1.169   0.361   3.805  0.1982  0.2072  0.2609
25309SOL    HW178081   1.193   0.274   3.773  1.1268  1.1344 -1.7205
25309SOL    HW278082   1.077   0.371   3.781  0.4956  0.3365 -0.8457
25310SOL     OW78083   9.256   1.467   8.206 -0.2433 -0.5238  0.3675
25310SOL    HW178084   9.172   1.464   8.252 -0.7639  0.1819 -0.5177
25310SOL    HW278085   9.245   1.533   8.138  1.0397 -0.4048  0.2377
25311SOL     OW78086   4.706   4.344   5.266  0.5675 -0.1799 -0.0816
25311SOL    HW178087   4.635   4.306   5.319  0.0804 -1.8913 -1.8276
25311SOL    HW278088   4.746   4.408   5.324 -0.6075 -1.1579  1.9833
25312SOL     OW78089   3.859   9.352   1.684 -0.3187  0.2203 -0.0322
25312SOL    HW178090   3.923   9.349   1.612 -2.3356  0.6747 -1.9648
25312SOL    HW278091   3.851   9.445   1.704  1.2546  0.0114  1.8435
25313SOL     OW78092   1.335   0.756   6.877 -0.8194 -0.2947  0.3836
25313SOL    HW178093   1.338   0.686   6.941 -0.9098  1.4587  2.4340
25313SOL    HW278094   1.425   0.788   6.872 -1.2198  1.1402  1.5587
25314SOL     OW78095   9.464   2.195   3.014 -0.2773  0.0009  0.0572
25314SOL    HW178096   9.415   2.242   2.947 -0.6430  0.2735  0.5109
25314SOL    HW278097   9.415   2.211   3.095 -0.7424 -1.6173  0.1366
25315SOL     OW78098   8.444   3.228   7.358  0.4299 -0.3047 -0.5557
25315SOL    HW178099   8.468   3.266   7.274  3.4186 -0.1224  0.2450
25315SOL    HW278100   8.506   3.267   7.420  0.0303 -2.3905  1.2697
25316SOL     OW78101   2.475   3.338   1.923  0.0310  0.0962  0.2551
25316SOL    HW178102   2.474   3.265   1.984 -0.4511  0.5320  0.7810
25316SOL    HW278103   2.386   3.374   1.927  0.6255  1.5955  1.1052
25317SOL     OW78104   0.841   2.082   3.724 -0.1709 -0.3593 -0.0868
25317SOL    HW178105   0.929   2.055   3.750  0.2185  0.3382 -0.6526
25317SOL    HW278106   0.826   2.038   3.640 -1.3935 -2.5383  1.1722
25318SOL     OW78107   9.362   5.014   4.420  0.3401  0.0263 -0.6305
25318SOL    HW178108   9.286   4.968   4.456 -0.2544  2.3218  1.3417
25318SOL    HW278109   9.339   5.031   4.328 -0.2051 -1.8719 -0.8743
25319SOL     OW78110   2.871   1.518   6.739 -0.1494 -0.5698  0.0126
25319SOL    HW178111   2.877   1.613   6.751 -0.3318 -0.5075 -0.3999
25319SOL    HW278112   2.862   1.505   6.645  2.5983 -1.1370 -0.2652
25320SOL     OW78113   3.898   0.567   5.778 -0.0127  0.0931 -0.4110
25320SOL    HW178114   3.869   0.627   5.708  1.3889  0.0431 -1.0609
25320SOL    HW278115   3.960   0.619   5.830  0.1143 -0.3526 -0.1131
25321SOL     OW78116   6.432   8.302   9.604  0.1123  0.2920 -0.0393
25321SOL    HW178117   6.507   8.268   9.556  0.2027 -1.8040  1.4299
25321SOL    HW278118   6.468   8.326   9.690 -0.6698  0.4289  0.2568
25322SOL     OW78119   4.385   8.170   3.368  0.1519  0.1902  0.2064
25322SOL    HW178120   4.402   8.088   3.415  0.4542 -0.7674 -1.4935
25322SOL    HW278121   4.294   8.164   3.341  0.2866  0.2219 -0.2625
25323SOL     OW78122   8.382   7.218   2.679  0.2729  0.3901 -0.3258
25323SOL    HW178123   8.340   7.170   2.751  0.9591 -0.8532 -0.7315
25323SOL    HW278124   8.336   7.187   2.601  0.8098  0.2832 -0.6014
25324SOL     OW78125   9.532   2.074   1.077  0.3771  0.0309 -0.1559
25324SOL    HW178126   9.624   2.050   1.083  0.1771 -0.5590  0.6572
25324SOL    HW278127   9.504   2.041   0.991  0.0408 -3.0114  1.0186
25325SOL     OW78128   5.534   6.781   4.722 -0.2068 -0.1018  0.2240
25325SOL    HW178129   5.439   6.792   4.720 -0.2692 -0.1854  1.8351
25325SOL    HW278130   5.561   6.791   4.630 -1.9153 -1.5483 -0.4977
25326SOL     OW78131   5.322   3.365   0.568 -0.0075  0.7198  0.1792
25326SOL    HW178132   5.298   3.340   0.479  1.9731  0.3873 -0.3018
25326SOL    HW278133   5.247   3.338   0.622 -1.3728  1.2337 -1.4025
25327SOL     OW78134   2.286   5.816   3.738  0.4592 -0.1780  0.2202
25327SOL    HW178135   2.271   5.723   3.755 -0.4131 -0.0757  0.0548
25327SOL    HW278136   2.242   5.861   3.809 -0.1857  0.1421 -0.3743
25328SOL     OW78137   1.077   4.778   7.930  0.0993  0.1141 -0.1245
25328SOL    HW178138   1.119   4.774   7.843 -2.8771 -1.0622 -1.6343
25328SOL    HW278139   1.007   4.842   7.919  1.0335  1.6307  2.1596
25329SOL     OW78140   1.992   4.787   0.935 -0.3817 -0.1019 -0.7615
25329SOL    HW178141   2.060   4.854   0.945 -0.5447 -0.2073  1.5655
25329SOL    HW278142   2.040   4.708   0.910  0.2305  0.1210 -0.3281
25330SOL     OW78143   8.976   6.578   7.467  0.1740 -0.2299  0.1640
25330SOL    HW178144   8.888   6.613   7.477 -0.6171 -2.2448  0.8531
25330SOL    HW278145   9.019   6.637   7.405 -1.0393  1.8231  1.2038
25331SOL     OW78146   6.806   6.082   5.328 -0.5937 -0.5724  0.1308
25331SOL    HW178147   6.748   6.099   5.254  1.3830  1.7279 -0.9996
25331SOL    HW278148   6.767   6.131   5.401  0.4900  2.0597 -0.9511
25332SOL     OW78149   1.294   7.637   7.016  0.2198  0.5023 -0.4462
25332SOL    HW178150   1.286   7.722   7.057  1.5621 -0.2637  1.5156
25332SOL    HW278151   1.292   7.655   6.922 -2.1374  2.3884 -0.1028
25333SOL     OW78152   2.431   5.748   3.443  0.2025  0.0118  0.0654
25333SOL    HW178153   2.443   5.653   3.451 -1.1459 -0.0871  1.1471
25333SOL    HW278154   2.428   5.780   3.533 -1.8223  0.7276 -0.2037
25334SOL     OW78155   2.198   9.347   5.412  0.3806  0.0318 -0.2077
25334SOL    HW178156   2.155   9.413   5.358  0.2889 -0.4730 -0.7696
25334SOL    HW278157   2.205   9.271   5.355 -1.2338 -1.0971  0.9839
25335SOL     OW78158   3.164   1.957   0.197 -0.5343  0.2157 -0.1816
25335SOL    HW178159   3.225   1.947   0.124 -1.7366 -0.4698 -1.1295
25335SOL    HW278160   3.078   1.957   0.156 -1.2395 -0.1642  1.2484
25336SOL     OW78161   0.229   8.990   8.940 -0.1756  0.0015  0.5135
25336SOL    HW178162   0.266   9.059   8.996  1.1465  0.6120 -1.0355
25336SOL    HW278163   0.286   8.915   8.955 -0.0883  0.0294  0.3255
25337SOL     OW78164   0.350   7.187   7.101  0.9857  0.5627 -0.5099
25337SOL    HW178165   0.444   7.203   7.114  1.0540 -0.5125  0.5146
25337SOL    HW278166   0.338   7.095   7.125 -0.1534  0.3734 -1.7115
25338SOL     OW78167   8.922   7.587   4.966  0.0476  0.1760 -0.8872
25338SOL    HW178168   9.016   7.597   4.975  0.1372  0.5082 -1.9528
25338SOL    HW278169   8.911   7.500   4.926 -0.0560  0.3810 -1.3076
25339SOL     OW78170   5.339   1.661   2.259  0.3598  0.1698 -0.0984
25339SOL    HW178171   5.305   1.649   2.348  0.4473  2.3718  0.2936
25339SOL    HW278172   5.369   1.574   2.232 -0.9435 -0.8083  1.4842
25340SOL     OW78173   9.433   0.356   8.231 -0.1165 -0.2305  0.2241
25340SOL    HW178174   9.394   0.345   8.145  0.4595 -2.5317  0.1843
25340SOL    HW278175   9.416   0.273   8.276  1.0922  0.2619  1.6827
25341SOL     OW78176   3.784   6.275   6.749 -0.5337 -0.0571  0.4312
25341SOL    HW178177   3.770   6.184   6.724 -3.6229  0.9644 -2.2164
25341SOL    HW278178   3.722   6.290   6.820  0.6890 -0.1836  1.5759
25342SOL     OW78179   7.452   0.920   9.245  0.9485 -0.3094 -0.3755
25342SOL    HW178180   7.535   0.953   9.209  1.6187  0.0670  1.4090
25342SOL    HW278181   7.472   0.899   9.336 -1.0509  0.2868  0.2614
25343SOL     OW78182   4.339   6.694   6.303  0.6635  0.2970 -0.4298
25343SOL    HW178183   4.379   6.656   6.225 -0.4906  0.0257 -0.9008
25343SOL    HW278184   4.295   6.773   6.272 -1.1058 -0.6082 -0.3787
25344SOL     OW78185   0.780   7.208   8.710 -0.2186  0.5954 -0.5155
25344SOL    HW178186   0.845   7.141   8.689 -0.1436  0.4783  0.0669
25344SOL    HW278187   0.832   7.285   8.732 -0.1756 -0.0458  1.8778
25345SOL     OW78188   3.760   0.831   0.940  0.0493  0.0161  0.3651
25345SOL    HW178189   3.717   0.910   0.907  0.0232 -0.3884 -0.6339
25345SOL    HW278190   3.839   0.823   0.887  0.1660 -0.4930  0.6140
25346SOL     OW78191   9.343   2.306   4.477 -0.3708  0.0666  0.5010
25346SOL    HW178192   9.408   2.244   4.511  0.5163  0.4280 -0.4755
25346SOL    HW278193   9.342   2.291   4.383 -1.3227  0.4470  0.4355
25347SOL     OW78194   7.882   0.248   1.051 -0.9059 -0.0664  0.2336
25347SOL    HW178195   7.959   0.271   1.000 -1.3800  1.0454 -0.0289
25347SOL    HW278196   7.909   0.174   1.105 -0.5107 -1.5900 -1.9179
25348SOL     OW78197   9.030   1.604   6.921  0.0854 -0.0577  0.2184
25348SOL    HW178198   9.018   1.662   6.996 -0.0127  0.5103 -0.2306
25348SOL    HW278199   9.095   1.540   6.950  1.6158  1.3754  0.1061
25349SOL     OW78200   0.129   4.363   2.697  0.3746  0.3100  0.0952
25349SOL    HW178201   0.135   4.304   2.621  0.3737  0.0298  0.3094
25349SOL    HW278202   0.046   4.339   2.739 -0.2918  1.3877 -0.5721
25350SOL     OW78203   2.307   7.523   3.729 -0.5638 -0.3793  0.2763
25350SOL    HW178204   2.344   7.445   3.688 -0.5280 -0.8240  1.1352
25350SOL    HW278205   2.216   7.502   3.746 -0.9354  0.3068 -0.8106
25351SOL     OW78206   4.641   6.407   4.514  0.0008  0.0514 -0.1651
25351SOL    HW178207   4.673   6.423   4.603  0.1324 -0.7442 -0.0596
25351SOL    HW278208   4.553   6.445   4.512 -1.4141 -2.7972  1.3820
25352SOL     OW78209   6.913   0.143   3.296  0.0532 -0.1457  0.0177
25352SOL    HW178210   6.824   0.129   3.265 -0.0568  0.2158  0.1658
25352SOL    HW278211   6.961   0.173   3.218 -0.4810  1.8556  0.3884
25353SOL     OW78212   8.811   8.925   1.395  0.0538  0.2810 -0.3913
25353SOL    HW178213   8.812   8.944   1.301  0.3312  0.0027 -0.4459
25353SOL    HW278214   8.903   8.911   1.418 -0.1605 -1.2728 -0.4121
25354SOL     OW78215   0.908   8.016   3.962  0.0441 -0.3140 -0.1986
25354SOL    HW178216   0.991   8.063   3.970  0.2784 -0.8687  0.7687
25354SOL    HW278217   0.847   8.081   3.927  1.1693 -0.2406 -2.1778
25355SOL     OW78218   1.348   0.422   5.579 -0.0336  0.3941  0.6598
25355SOL    HW178219   1.364   0.437   5.672 -2.8747 -2.1890  1.7209
25355SOL    HW278220   1.260   0.456   5.563 -0.8193 -1.8723 -0.2471
25356SOL     OW78221   7.649   8.623   4.856 -0.5788 -0.3666 -0.4368
25356SOL    HW178222   7.652   8.715   4.831 -2.8885 -0.2838 -0.6928
25356SOL    HW278223   7.706   8.617   4.932  0.8583  0.9183 -1.3551
25357SOL     OW78224   7.500   1.671   5.531 -0.0890  0.5453 -0.4775
25357SOL    HW178225   7.523   1.732   5.462  0.8469 -1.6406 -2.2166
25357SOL    HW278226   7.472   1.592   5.486 -0.3399 -0.6725  1.6497
25358SOL     OW78227   8.221   7.437   8.654  0.0863  0.2493 -0.1085
25358SOL    HW178228   8.276   7.511   8.627  0.5878  0.4096  1.2816
25358SOL    HW278229   8.210   7.385   8.574  0.1497  1.5423 -0.9925
25359SOL     OW78230   5.629   6.237   6.889 -0.1219  0.0895 -0.3860
25359SOL    HW178231   5.593   6.228   6.977 -0.2176 -1.4598 -0.5454
25359SOL    HW278232   5.724   6.228   6.901 -0.1271 -0.0240 -0.4280
25360SOL     OW78233   0.573   7.431   5.729 -0.4762  0.5981  0.4985
25360SOL    HW178234   0.584   7.510   5.782  1.8186  1.0699 -0.5706
25360SOL    HW278235   0.598   7.457   5.641 -1.9269 -0.7751 -0.3761
25361SOL     OW78236   5.944   0.794   4.719  1.0669 -0.0510  0.2764
25361SOL    HW178237   5.900   0.876   4.741 -2.4284 -1.6895  0.1238
25361SOL    HW278238   5.949   0.746   4.801  1.6616 -0.3108  0.0938
25362SOL     OW78239   0.938   7.749   1.091  0.0495 -0.5023 -0.0475
25362SOL    HW178240   0.939   7.682   1.022  0.2517 -0.4148 -0.1287
25362SOL    HW278241   0.998   7.817   1.060  1.0746 -1.0177  0.7764
25363SOL     OW78242   9.494   8.649   0.393  0.1042 -0.6400 -0.6512
25363SOL    HW178243   9.578   8.605   0.378  1.7129  2.4791 -1.5256
25363SOL    HW278244   9.501   8.683   0.482  0.4276  0.8044 -1.1972
25364SOL     OW78245   5.333   7.527   8.460 -0.3991  0.1241 -0.9507
25364SOL    HW178246   5.415   7.507   8.506 -0.4886 -0.9232 -1.2082
25364SOL    HW278247   5.304   7.442   8.426 -1.7059  0.4427 -0.6882
25365SOL     OW78248   2.816   4.793   4.356 -0.3849  0.2225 -0.3038
25365SOL    HW178249   2.725   4.806   4.329 -0.4628 -0.7310 -0.5127
25365SOL    HW278250   2.821   4.702   4.383  0.6974  0.0360 -1.0368
25366SOL     OW78251   1.926   0.657   2.943  0.2346  0.3598  0.0942
25366SOL    HW178252   1.904   0.708   2.865  1.2588  1.8401  0.7135
25366SOL    HW278253   2.020   0.672   2.956  0.2036 -0.3263  1.2712
25367SOL     OW78254   0.459   4.749   9.073 -0.2353  0.3723  0.5183
25367SOL    HW178255   0.409   4.713   9.000 -0.9332 -1.0915  1.6798
25367SOL    HW278256   0.408   4.824   9.103 -0.4351  0.3975  0.1141
25368SOL     OW78257   8.158   3.065   0.066 -0.1009 -0.2579  0.2424
25368SOL    HW178258   8.245   3.026   0.063 -0.3256 -0.7244 -0.5142
25368SOL    HW278259   8.108   3.007   0.124 -0.7309 -1.7741 -1.7111
25369SOL     OW78260   2.515   7.221   6.234  0.1355  0.5755  0.0534
25369SOL    HW178261   2.545   7.312   6.227 -1.0609  0.9371 -0.5922
25369SOL    HW278262   2.586   7.170   6.194  1.5625  1.0349  1.8608
25370SOL     OW78263   0.773   9.108   9.398  0.3746  0.3950  0.8238
25370SOL    HW178264   0.705   9.135   9.459  0.8396  2.8875  0.3348
25370SOL    HW278265   0.825   9.187   9.383  2.2291 -0.9559 -0.2959
25371SOL     OW78266   4.296   4.158   8.440  0.4033 -0.6965 -0.1600
25371SOL    HW178267   4.380   4.120   8.414  1.1202  0.2832  0.6325
25371SOL    HW278268   4.269   4.212   8.366 -0.3578 -2.2613 -1.0736
25372SOL     OW78269   1.588   7.469   8.231 -0.0222 -0.2722  0.1347
25372SOL    HW178270   1.516   7.499   8.174 -0.4733  0.9838  1.2884
25372SOL    HW278271   1.584   7.374   8.227 -1.4317 -0.2219 -0.2391
25373SOL     OW78272   8.515   0.479   4.150  0.3088  0.0356  0.3694
25373SOL    HW178273   8.432   0.431   4.156  0.4089 -0.0031  1.7813
25373SOL    HW278274   8.576   0.415   4.113 -0.7457  0.7395 -2.9314
25374SOL     OW78275   2.053   7.714   7.825  0.5884  0.2027 -0.1235
25374SOL    HW178276   1.968   7.736   7.787 -0.0019 -1.0709  0.4154
25374SOL    HW278277   2.116   7.764   7.773 -0.3454 -0.0607 -1.5773
25375SOL     OW78278   6.209   7.967   2.875  0.8805  0.2265  0.3047
25375SOL    HW178279   6.298   7.957   2.906  0.0204 -1.8182  2.4261
25375SOL    HW278280   6.182   8.054   2.906  1.4114 -0.0776  1.6498
25376SOL     OW78281   4.755   9.577   0.948 -0.6445 -0.6654  0.1444
25376SOL    HW178282   4.674   9.573   0.998  0.1646  0.9491  1.7128
25376SOL    HW278283   4.771   9.671   0.936  1.5881 -0.8676  0.9740
25377SOL     OW78284   4.342   0.152   5.203  0.3904  0.1686 -0.0253
25377SOL    HW178285   4.427   0.179   5.238  1.6417 -0.0123 -2.6434
25377SOL    HW278286   4.353   0.061   5.178 -0.4508  0.2375 -0.7196
25378SOL     OW78287   7.185   0.464   6.511  0.2238 -0.1172 -0.4092
25378SOL    HW178288   7.126   0.428   6.445  1.5797 -0.1540 -1.6478
25378SOL    HW278289   7.150   0.551   6.530 -1.1639 -0.7547  0.1380
25379SOL     OW78290   9.308   0.250   7.731  0.1051  0.4557 -0.3708
25379SOL    HW178291   9.335   0.331   7.773  2.3940 -1.5791  2.5274
25379SOL    HW278292   9.387   0.219   7.686  0.0341 -1.2438  0.5820
25380SOL     OW78293   8.181   7.710   8.167  0.3359 -0.6681  0.2726
25380SOL    HW178294   8.227   7.776   8.220  1.8457 -1.6319  0.2452
25380SOL    HW278295   8.157   7.756   8.087 -0.6363  0.4189  1.1580
25381SOL     OW78296   8.797   2.755   0.288  0.6598  0.1830  0.0890
25381SOL    HW178297   8.728   2.781   0.228 -0.4619 -0.2301  1.1462
25381SOL    HW278298   8.876   2.750   0.234  0.0472  1.5081 -0.9685
25382SOL     OW78299   2.971   8.506   6.073 -0.1497 -0.3847  0.4328
25382SOL    HW178300   2.889   8.541   6.036 -0.3549 -0.5832  0.6952
25382SOL    HW278301   2.969   8.533   6.164 -0.4931 -1.4008  0.7362
25383SOL     OW78302   4.768   2.328   1.861  0.3671 -0.0118  0.1136
25383SOL    HW178303   4.848   2.284   1.889  0.9328  1.6260  1.2299
25383SOL    HW278304   4.732   2.271   1.793  1.3939 -1.8156  0.9998
25384SOL     OW78305   7.331   8.655   8.053  0.2014 -0.1173  0.4398
25384SOL    HW178306   7.346   8.709   7.975 -2.8921 -2.5770 -2.1174
25384SOL    HW278307   7.240   8.672   8.077  1.1683  0.9683  4.0630
25385SOL     OW78308   4.486   2.915   0.879  0.2152 -0.4088  0.6402
25385SOL    HW178309   4.409   2.907   0.823  0.8584 -1.1582 -0.1580
25385SOL    HW278310   4.451   2.910   0.968 -0.5269 -2.1709  0.2828
25386SOL     OW78311   4.739   7.830   0.226 -0.1886  0.0532 -0.1107
25386SOL    HW178312   4.811   7.770   0.210 -0.0534  0.1435  0.1522
25386SOL    HW278313   4.660   7.777   0.216 -0.0632 -0.2181  0.3294
25387SOL     OW78314   7.524   9.262   5.184  0.1812  0.5325 -0.0164
25387SOL    HW178315   7.451   9.321   5.169 -0.4693 -0.3873 -0.5848
25387SOL    HW278316   7.523   9.246   5.278 -1.4904 -0.8533 -0.2218
25388SOL     OW78317   5.544   2.662   5.556 -0.3012 -0.6255  0.1311
25388SOL    HW178318   5.560   2.610   5.635  1.4135 -1.6768 -0.8456
25388SOL    HW278319   5.586   2.613   5.485 -1.5257  0.4316 -1.4132
25389SOL     OW78320   1.884   4.883   7.827 -0.1143  0.1305  0.1960
25389SOL    HW178321   1.968   4.861   7.786  0.2322 -0.8670  1.4012
25389SOL    HW278322   1.824   4.817   7.794 -0.1192  0.0498  0.3695
25390SOL     OW78323   3.945   0.074   8.585  0.1798 -0.3262 -0.2840
25390SOL    HW178324   3.922   0.136   8.515 -1.5917  0.1206  0.6258
25390SOL    HW278325   3.986   0.001   8.540  1.1842  0.9481 -1.5278
25391SOL     OW78326   3.095   4.121   9.606  0.3891 -0.0762  0.1724
25391SOL    HW178327   3.148   4.066   9.549  0.8914  1.4346 -0.8644
25391SOL    HW278328   3.112   4.211   9.577 -2.4185  0.5275  0.0360
25392SOL     OW78329   0.361   3.509   4.922  0.1573  0.3334  0.4552
25392SOL    HW178330   0.453   3.516   4.894  0.3335  2.3768  1.3414
25392SOL    HW278331   0.363   3.533   5.014 -1.0174 -1.7219  1.0515
25393SOL     OW78332   5.562   8.885   1.037 -0.5071  0.0330  0.0640
25393SOL    HW178333   5.602   8.945   0.974  0.5065 -0.4519  0.2153
25393SOL    HW278334   5.476   8.865   1.001 -0.0551 -0.0062 -1.0123
25394SOL     OW78335   7.749   8.873   1.031  0.3276 -0.2103  0.4119
25394SOL    HW178336   7.675   8.825   1.069 -0.9380  0.7981 -0.6909
25394SOL    HW278337   7.710   8.926   0.962  1.6494  2.4000  1.5349
25395SOL     OW78338   2.482   6.391   0.669 -0.1622 -0.5846  0.2328
25395SOL    HW178339   2.530   6.316   0.704  0.5015  0.1209  0.8787
25395SOL    HW278340   2.390   6.367   0.677  0.0432 -1.3185  0.4574
25396SOL     OW78341   3.212   8.814   4.299  0.3251 -0.3316  0.1142
25396SOL    HW178342   3.251   8.746   4.354 -1.6250 -1.7651 -0.1687
25396SOL    HW278343   3.222   8.782   4.210 -3.8248 -2.3017  0.1021
25397SOL     OW78344   2.098   3.490   3.596  0.4924 -0.1115 -0.2813
25397SOL    HW178345   2.167   3.521   3.538  1.7367 -0.4043  0.9838
25397SOL    HW278346   2.072   3.567   3.647 -0.8264  0.2209 -1.4114
25398SOL     OW78347   8.450   3.787   7.759  0.8690 -0.0404  0.0114
25398SOL    HW178348   8.442   3.796   7.854 -1.0295 -1.7355  0.0783
25398SOL    HW278349   8.411   3.867   7.724 -0.2973 -0.2995  0.6694
25399SOL     OW78350   6.866   6.979   5.758 -0.0928 -0.0295 -0.3424
25399SOL    HW178351   6.924   7.041   5.804  1.2184 -1.6853  0.3505
25399SOL    HW278352   6.864   6.902   5.815 -0.4096 -1.2203 -1.9095
25400SOL     OW78353   3.548   5.063   0.247  0.1929 -0.1161 -0.4932
25400SOL    HW178354   3.602   5.124   0.197  1.5776  0.8192  1.9309
25400SOL    HW278355   3.606   4.990   0.268 -0.1519 -0.1985  0.2310
25401SOL     OW78356   3.555   4.168   9.537  0.5822  0.0108 -0.1292
25401SOL    HW178357   3.555   4.146   9.444  0.5720 -0.5757  0.0106
25401SOL    HW278358   3.469   4.207   9.552 -0.7086 -2.8184  0.3158
25402SOL     OW78359   8.514   1.784   6.692 -0.2588 -0.0682 -0.5883
25402SOL    HW178360   8.529   1.844   6.765 -1.1042 -0.3815 -0.1497
25402SOL    HW278361   8.499   1.699   6.733 -0.2766 -0.3417 -1.1547
25403SOL     OW78362   5.343   0.343   2.351  0.5289  0.1074  0.4711
25403SOL    HW178363   5.377   0.377   2.268  1.4045  0.4369  0.9536
25403SOL    HW278364   5.249   0.331   2.335  0.6947  0.1073 -0.5812
25404SOL     OW78365   0.717   6.242   5.918 -0.2644 -0.0701  0.3269
25404SOL    HW178366   0.693   6.220   6.009  0.0703 -1.6103  0.0730
25404SOL    HW278367   0.807   6.274   5.924 -0.9497  1.8809  0.7800
25405SOL     OW78368   0.407   4.075   4.913  0.7195 -0.5684  0.0491
25405SOL    HW178369   0.428   3.985   4.888 -0.2045 -0.8862  0.3958
25405SOL    HW278370   0.316   4.086   4.889  0.9514  0.4320 -0.4053
25406SOL     OW78371   5.920   9.426   3.301  0.3115 -0.0034 -0.0465
25406SOL    HW178372   6.005   9.383   3.303  0.1623 -0.3520 -0.8996
25406SOL    HW278373   5.869   9.376   3.237 -0.7846 -0.2652  0.9903
25407SOL     OW78374   2.110   9.554   2.842  0.2326 -0.5012  0.3057
25407SOL    HW178375   2.082   9.464   2.826  0.1413 -0.3639 -0.3335
25407SOL    HW278376   2.035   9.596   2.884 -0.5235 -0.1568 -1.3222
25408SOL     OW78377   5.947   5.923   6.398 -0.2551 -0.0904 -0.2044
25408SOL    HW178378   5.871   5.955   6.350 -0.5053  0.2242  0.3929
25408SOL    HW278379   6.021   5.974   6.363 -0.2271 -0.7435 -1.1355
25409SOL     OW78380   2.834   0.723   0.379 -0.1741 -1.0524  0.3048
25409SOL    HW178381   2.799   0.684   0.299 -0.8789 -0.6534  0.4055
25409SOL    HW278382   2.843   0.650   0.440 -0.9210 -1.1602  0.2981
25410SOL     OW78383   8.187   6.298   2.408  0.0548 -0.1405  0.3532
25410SOL    HW178384   8.151   6.354   2.338  1.1559 -0.0529 -0.1715
25410SOL    HW278385   8.164   6.209   2.381  2.1736 -0.2971 -1.2486
25411SOL     OW78386   5.322   4.914   7.860  0.2718  0.8930  0.2631
25411SOL    HW178387   5.320   4.828   7.902  0.7845  0.4665 -0.5699
25411SOL    HW278388   5.361   4.898   7.774  0.1264  1.9161 -0.0019
25412SOL     OW78389   1.299   7.025   3.840  0.4796  0.4032 -0.1858
25412SOL    HW178390   1.302   7.046   3.747  0.0372 -0.2889 -0.3625
25412SOL    HW278391   1.226   6.964   3.849  0.7392  0.1878  0.5597
25413SOL     OW78392   2.965   0.561   3.109 -0.2318 -0.0229  0.0819
25413SOL    HW178393   2.928   0.627   3.169  0.6369  0.4585  0.1136
25413SOL    HW278394   2.931   0.478   3.141 -0.8831  0.3550  0.4015
25414SOL     OW78395   6.718   0.455   9.254 -0.1910  0.0559  0.1524
25414SOL    HW178396   6.682   0.520   9.194  1.3916 -0.7173 -1.7271
25414SOL    HW278397   6.672   0.470   9.337 -1.3908  2.1213 -0.8344
25415SOL     OW78398   0.538   8.785   2.147 -0.1630 -0.0272 -0.5687
25415SOL    HW178399   0.632   8.766   2.143  0.5569  3.1096 -1.0457
25415SOL    HW278400   0.523   8.849   2.078 -2.8780 -0.9941 -1.0100
25416SOL     OW78401   6.952   7.240   0.196  0.8293  0.0669  0.1559
25416SOL    HW178402   6.993   7.187   0.264  1.9199 -0.2754 -0.7375
25416SOL    HW278403   6.858   7.225   0.207  1.0904 -4.1976 -1.6800
25417SOL     OW78404   1.156   1.721   2.268 -0.3359 -0.2699  0.4980
25417SOL    HW178405   1.116   1.806   2.285 -0.6899 -0.4296  0.4518
25417SOL    HW278406   1.084   1.659   2.269 -0.3355 -0.3448 -1.2521
25418SOL     OW78407   6.972   6.523   0.274  0.3912  0.1658 -0.1440
25418SOL    HW178408   7.016   6.479   0.202  2.1658 -0.6459  1.3678
25418SOL    HW278409   7.041   6.576   0.315 -0.4795  0.2863  1.2007
25419SOL     OW78410   7.536   7.361   5.240  0.0115  0.2069  0.2275
25419SOL    HW178411   7.569   7.316   5.318  0.4358  1.9236  1.1024
25419SOL    HW278412   7.615   7.390   5.194 -0.2470 -0.2818 -0.5426
25420SOL     OW78413   1.936   0.239   4.057  0.2946 -0.6741 -0.0703
25420SOL    HW178414   1.951   0.244   4.152  0.3602 -2.0260  0.0117
25420SOL    HW278415   1.863   0.177   4.047 -0.3695  0.1983 -0.8676
25421SOL     OW78416   0.093   5.641   5.867  0.5153 -0.1400 -0.4870
25421SOL    HW178417   0.082   5.691   5.785  2.0091  2.0684  0.5696
25421SOL    HW278418   0.025   5.676   5.925  1.8528  1.0612  0.4099
25422SOL     OW78419   6.692   5.752   0.397  0.1377 -0.2472  0.4738
25422SOL    HW178420   6.710   5.810   0.471  0.7777 -1.2198  1.1117
25422SOL    HW278421   6.599   5.732   0.405 -0.6584  2.4360 -1.0780
25423SOL     OW78422   1.714   3.235   6.738  0.1621  0.2278 -0.0330
25423SOL    HW178423   1.670   3.285   6.806  0.1365 -0.3175  0.3632
25423SOL    HW278424   1.806   3.232   6.765  0.2189  0.3259 -0.2151
25424SOL     OW78425   5.900   6.309   9.060  0.3837 -0.1080 -0.8897
25424SOL    HW178426   5.856   6.319   9.145  1.2230 -1.1111 -0.3151
25424SOL    HW278427   5.993   6.304   9.082  0.7079  0.7653 -1.9803
25425SOL     OW78428   0.742   2.197   7.784  0.0543 -0.1307  0.1741
25425SOL    HW178429   0.795   2.129   7.744  0.7624  0.0936  0.7084
25425SOL    HW278430   0.762   2.276   7.735 -1.6497 -0.4922 -1.2154
25426SOL     OW78431   1.140   9.070   1.372 -0.1454 -0.2989  0.1212
25426SOL    HW178432   1.216   9.036   1.420 -0.0107 -2.2949 -1.3898
25426SOL    HW278433   1.154   9.165   1.370  1.1884 -0.4133  1.6967
25427SOL     OW78434   4.441   3.240   3.420  0.5567  0.7643 -0.0689
25427SOL    HW178435   4.375   3.280   3.477  0.4459  0.5161 -0.0175
25427SOL    HW278436   4.438   3.147   3.443 -0.8942  0.3136 -1.8458
25428SOL     OW78437   1.101   4.945   9.596  0.0838  0.2736  0.0507
25428SOL    HW178438   1.154   4.915   9.670  0.3411 -0.6325 -0.4816
25428SOL    HW278439   1.011   4.941   9.628 -0.0463 -2.4363 -0.3699
25429SOL     OW78440   9.524   5.652   8.736 -0.3012  0.1320  0.0943
25429SOL    HW178441   9.566   5.566   8.744 -3.0526 -1.1415  2.6436
25429SOL    HW278442   9.575   5.709   8.794  1.2904  0.2101 -1.2981
25430SOL     OW78443   1.326   7.910   4.181 -0.4380  0.4879  0.2386
25430SOL    HW178444   1.329   7.942   4.271 -4.1385  0.0160  0.7133
25430SOL    HW278445   1.349   7.818   4.187  1.3781  0.9147  0.3068
25431SOL     OW78446   8.711   4.660   5.572 -0.1072  0.1050  0.2043
25431SOL    HW178447   8.742   4.741   5.532 -1.2639  0.3976 -0.1445
25431SOL    HW278448   8.642   4.687   5.632  0.4315 -0.5083  1.1352
25432SOL     OW78449   8.228   7.383   4.132 -0.1332  0.4188  0.0897
25432SOL    HW178450   8.271   7.348   4.210  0.3003 -1.0864 -0.7789
25432SOL    HW278451   8.282   7.457   4.105 -0.4049  1.0816  1.3108
25433SOL     OW78452   5.233   3.731   9.278 -0.0897 -0.1481 -0.7502
25433SOL    HW178453   5.243   3.826   9.285  1.5834 -0.3085 -0.5346
25433SOL    HW278454   5.190   3.705   9.359  2.4043  0.0991  0.7531
25434SOL     OW78455   3.668   8.067   2.257 -0.1614  0.5665 -0.4157
25434SOL    HW178456   3.613   8.124   2.204 -3.2660 -1.0212  0.8085
25434SOL    HW278457   3.651   8.094   2.347 -1.3785 -1.8519  0.1705
25435SOL     OW78458   0.907   0.231   2.148  0.0370 -0.2010  0.3506
25435SOL    HW178459   1.000   0.251   2.134  0.5476 -0.7710  2.4978
25435SOL    HW278460   0.901   0.137   2.129 -0.2352 -0.0710 -0.2472
25436SOL     OW78461   1.105   4.466   2.085 -0.1027 -0.3968  0.0243
25436SOL    HW178462   1.120   4.536   2.149 -0.5555 -0.3110  0.0430
25436SOL    HW278463   1.027   4.421   2.118  0.1878 -0.9161  0.0152
25437SOL     OW78464   8.161   5.332   6.114 -0.0549 -0.2852 -0.0561
25437SOL    HW178465   8.098   5.291   6.173  1.0089 -3.2046 -0.7566
25437SOL    HW278466   8.240   5.343   6.168  0.5381 -1.8670 -0.5236
25438SOL     OW78467   8.836   4.362   5.221  0.1464 -0.4904 -0.0618
25438SOL    HW178468   8.894   4.419   5.170 -1.7747 -0.2937 -2.1355
25438SOL    HW278469   8.851   4.275   5.186  1.2684 -0.9491  1.4319
25439SOL     OW78470   0.959   4.234   2.055 -0.3824  0.0184  0.1969
25439SOL    HW178471   0.886   4.216   1.996  0.2588 -0.1219 -0.5687
25439SOL    HW278472   1.028   4.174   2.028  0.6001  1.2743 -0.1879
25440SOL     OW78473   0.559   8.323   0.208 -0.0320  0.6272  0.1922
25440SOL    HW178474   0.592   8.235   0.226  1.4353  1.1426  0.1431
25440SOL    HW278475   0.591   8.376   0.281 -1.0566  1.0980  0.3162
25441SOL     OW78476   6.638   5.503   3.080  0.2204  0.7417  0.3746
25441SOL    HW178477   6.646   5.598   3.078  2.0322  0.6233 -1.5973
25441SOL    HW278478   6.722   5.472   3.112  0.4527 -0.2261 -1.0853
25442SOL     OW78479   9.252   1.034   1.480 -0.0119 -0.3385  0.2597
25442SOL    HW178480   9.289   0.957   1.438 -0.6975 -0.2062 -0.6172
25442SOL    HW278481   9.327   1.091   1.495  0.5798 -1.3858  1.4222
25443SOL     OW78482   9.497   4.272   3.755 -0.7296 -0.0693  0.5728
25443SOL    HW178483   9.560   4.310   3.816 -0.7309  0.9200 -0.0317
25443SOL    HW278484   9.543   4.196   3.718  1.8179  2.8365 -2.8621
25444SOL     OW78485   1.274   7.337   2.100 -0.1535 -0.4069  0.2189
25444SOL    HW178486   1.192   7.386   2.094  0.5070  0.5168 -2.5754
25444SOL    HW278487   1.260   7.260   2.045  0.7437 -0.3901 -0.0447
25445SOL     OW78488   4.362   4.053   6.888 -1.0958  0.2166 -0.2722
25445SOL    HW178489   4.327   3.972   6.925 -2.2065  0.3198 -1.0572
25445SOL    HW278490   4.307   4.072   6.812  1.1618 -0.0457 -2.0984
25446SOL     OW78491   0.965   9.101   2.230  0.1421  0.1863 -0.3423
25446SOL    HW178492   0.908   9.119   2.156 -1.0330 -0.6331  0.3318
25446SOL    HW278493   0.905   9.094   2.305  0.9403 -2.1545  0.1481
25447SOL     OW78494   6.905   2.735   8.306 -0.0466 -0.0087  0.2435
25447SOL    HW178495   6.948   2.654   8.281 -1.2599 -0.5440 -0.1398
25447SOL    HW278496   6.973   2.802   8.297  0.5278 -0.7328 -0.9864
25448SOL     OW78497   5.477   0.309   3.155  0.4791  0.0419 -0.6337
25448SOL    HW178498   5.457   0.300   3.248  1.6440 -0.2387 -0.3996
25448SOL    HW278499   5.473   0.403   3.139  0.3746  0.1014 -0.2759
25449SOL     OW78500   0.456   3.174   1.336 -1.1392 -0.1071 -0.0729
25449SOL    HW178501   0.426   3.264   1.341 -1.0017 -0.0516 -0.2392
25449SOL    HW278502   0.428   3.134   1.419  1.1186  0.7742  1.2022
25450SOL     OW78503   2.228   0.174   5.689 -0.2129  0.1301  0.5870
25450SOL    HW178504   2.262   0.203   5.773 -0.1138  1.1644  0.2059
25450SOL    HW278505   2.305   0.147   5.639 -0.1253  0.8022  0.3513
25451SOL     OW78506   5.452   2.069   5.809 -0.0260  0.0710 -0.1451
25451SOL    HW178507   5.375   2.113   5.774  0.3494  1.6332  0.8677
25451SOL    HW278508   5.425   1.977   5.819 -1.4967  0.4414 -0.4961
25452SOL     OW78509   4.011   0.013   2.177  0.3155 -0.5251 -0.1800
25452SOL    HW178510   3.929   0.057   2.200  1.8452  2.4288  0.1345
25452SOL    HW278511   4.078   0.060   2.227  2.4796 -1.2515 -2.2109
25453SOL     OW78512   5.833   7.394   6.719  0.1936 -0.4563  0.0953
25453SOL    HW178513   5.906   7.334   6.703  0.1580 -0.3823 -0.3617
25453SOL    HW278514   5.782   7.351   6.787 -1.0982 -2.1183 -1.8048
25454SOL     OW78515   4.402   6.061   0.228  0.2809  0.0228 -0.0772
25454SOL    HW178516   4.367   6.135   0.178  2.0713  2.5422  2.0629
25454SOL    HW278517   4.374   5.984   0.180 -0.8719  2.0965 -3.0560
25455SOL     OW78518   3.043   6.721   2.134 -0.1981 -0.3207 -0.0932
25455SOL    HW178519   3.057   6.638   2.090 -0.8943 -1.8043  2.2759
25455SOL    HW278520   2.978   6.702   2.201 -0.2937  2.1244  0.6196
25456SOL     OW78521   6.441   7.654   4.148  0.7576 -0.2190 -0.4357
25456SOL    HW178522   6.385   7.654   4.070  0.5507  0.6955 -0.2991
25456SOL    HW278523   6.413   7.578   4.198 -0.1091  0.0226 -0.5487
25457SOL     OW78524   4.766   2.630   4.082 -0.4690 -0.2328 -0.7007
25457SOL    HW178525   4.742   2.677   4.162 -0.7080  1.1685 -1.5514
25457SOL    HW278526   4.831   2.687   4.039 -3.2301  1.1475 -3.4475
25458SOL     OW78527   5.036   4.025   3.811 -0.0638  0.5055  0.4395
25458SOL    HW178528   4.990   3.959   3.759  1.7780  0.5645 -1.3575
25458SOL    HW278529   4.975   4.099   3.815 -0.5470  0.2166 -1.0256
25459SOL     OW78530   1.434   3.721   3.193  0.2504 -0.2024  0.1727
25459SOL    HW178531   1.374   3.754   3.127 -0.7787 -0.8941  0.7437
25459SOL    HW278532   1.438   3.790   3.259  0.6673  0.1497 -0.2083
25460SOL     OW78533   7.594   3.767   5.727  0.1744 -0.2471 -0.1467
25460SOL    HW178534   7.669   3.825   5.712 -2.2996  2.8022 -2.1819
25460SOL    HW278535   7.542   3.812   5.794  0.4147 -2.7233  1.8622
25461SOL     OW78536   0.553   8.163   8.642  0.0408 -0.8582  0.4199
25461SOL    HW178537   0.459   8.178   8.630  0.3778  1.6861  0.3739
25461SOL    HW278538   0.575   8.095   8.579 -1.3002  0.4784 -1.5927
25462SOL     OW78539   2.795   7.570   5.368  0.5329  0.2038 -0.5513
25462SOL    HW178540   2.805   7.496   5.428  0.4479  1.1775  0.7239
25462SOL    HW278541   2.752   7.534   5.291 -1.4476 -0.6838  0.8819
25463SOL     OW78542   7.542   5.648   6.275 -0.0266  0.6485  0.0730
25463SOL    HW178543   7.513   5.576   6.332 -0.6242  0.6342 -0.2336
25463SOL    HW278544   7.563   5.719   6.335  1.5815 -0.1037  0.4577
25464SOL     OW78545   8.403   2.589   3.826  0.5166  0.2614  0.1702
25464SOL    HW178546   8.388   2.498   3.800 -2.9975  0.3466  1.4156
25464SOL    HW278547   8.371   2.640   3.751  0.0034  0.4630  0.5249
25465SOL     OW78548   0.287   9.069   1.274 -0.3422  0.0749  1.0120
25465SOL    HW178549   0.377   9.049   1.250 -1.4814 -0.7858 -3.3870
25465SOL    HW278550   0.261   9.137   1.212 -2.4224  1.1325  2.9354
25466SOL     OW78551   2.632   1.615   7.292 -0.7113 -0.0415  0.3878
25466SOL    HW178552   2.682   1.696   7.287 -1.1722  0.2698  0.7155
25466SOL    HW278553   2.616   1.590   7.201 -1.1996  0.6399  0.2809
25467SOL     OW78554   1.197   9.483   4.794 -0.0869 -0.6186 -0.0640
25467SOL    HW178555   1.165   9.397   4.770  0.0763 -0.7477  0.1723
25467SOL    HW278556   1.235   9.471   4.881  0.3134 -0.4007 -0.2042
25468SOL     OW78557   7.499   5.050   2.066 -0.8525 -0.1733  0.1227
25468SOL    HW178558   7.490   4.959   2.094  0.2144  0.1143  1.5339
25468SOL    HW278559   7.593   5.068   2.075 -0.6771  0.4078 -2.3588
25469SOL     OW78560   5.656   4.827   5.270 -0.2827 -0.0484 -0.7921
25469SOL    HW178561   5.594   4.773   5.222  0.6548 -2.9667  1.0471
25469SOL    HW278562   5.739   4.814   5.223  0.3217 -1.7543  0.6357
25470SOL     OW78563   7.695   3.174   2.906 -0.6769 -0.4361  0.3425
25470SOL    HW178564   7.695   3.243   2.972  0.3331  0.1939 -0.3009
25470SOL    HW278565   7.730   3.215   2.827 -1.6154 -1.2473 -0.5282
25471SOL     OW78566   4.458   5.631   4.462 -0.2512 -0.0650  0.2889
25471SOL    HW178567   4.377   5.678   4.484 -0.0300  0.1406  0.6742
25471SOL    HW278568   4.528   5.683   4.501  0.2489  0.7407 -1.5766
25472SOL     OW78569   5.547   7.838   7.740 -0.2147 -0.1042 -0.4183
25472SOL    HW178570   5.529   7.793   7.657 -0.5119  0.2969 -0.5747
25472SOL    HW278571   5.580   7.924   7.714 -0.9428  0.2686 -0.1221
25473SOL     OW78572   7.296   7.178   9.187  0.2813 -0.1547 -0.0054
25473SOL    HW178573   7.214   7.191   9.234 -0.3322 -1.3837 -0.6594
25473SOL    HW278574   7.301   7.251   9.126 -1.3557 -1.0693 -1.3217
25474SOL     OW78575   7.866   0.641   6.450 -0.2515 -0.5051 -0.0994
25474SOL    HW178576   7.789   0.617   6.501  0.0789  0.0641  0.6904
25474SOL    HW278577   7.870   0.576   6.380 -0.9841 -1.0203  0.3230
25475SOL     OW78578   3.752   6.229   2.058 -0.2473  0.2649  0.1659
25475SOL    HW178579   3.688   6.168   2.094 -0.1967  0.6652  0.9677
25475SOL    HW278580   3.726   6.241   1.967 -1.0376  0.0629  0.3551
25476SOL     OW78581   4.144   6.612   7.078 -0.2170  0.5204 -0.0204
25476SOL    HW178582   4.187   6.555   7.142  0.6976  0.7806 -0.3759
25476SOL    HW278583   4.215   6.638   7.019  0.0273  4.2696  1.7067
25477SOL     OW78584   4.077   4.556   3.146  0.2919  0.6855 -0.4416
25477SOL    HW178585   4.143   4.520   3.087  0.9560  0.1383  0.6229
25477SOL    HW278586   4.046   4.636   3.101  0.7728  0.2835 -1.5212
25478SOL     OW78587   3.605   5.893   3.314  0.7627 -0.3425  0.6266
25478SOL    HW178588   3.629   5.947   3.239  0.0588 -0.9571 -0.0424
25478SOL    HW278589   3.607   5.803   3.282 -2.1901 -0.4685  0.5629
25479SOL     OW78590   6.202   1.937   6.068 -0.1751 -0.0880  0.7668
25479SOL    HW178591   6.169   2.001   6.131  0.8848  1.9168 -0.5970
25479SOL    HW278592   6.145   1.946   5.992 -1.4798 -2.5243  1.3214
25480SOL     OW78593   4.105   1.615   2.146  0.4159 -0.2145 -0.2950
25480SOL    HW178594   4.014   1.586   2.133  0.7889 -1.9695  0.6176
25480SOL    HW278595   4.133   1.644   2.060 -1.2949  1.3098 -0.4069
25481SOL     OW78596   1.528   1.751   0.035  0.0632  0.2309  0.4582
25481SOL    HW178597   1.571   1.815  -0.021 -0.4731 -0.5004 -0.8410
25481SOL    HW278598   1.439   1.743  -0.001 -0.2114 -0.4466  1.2532
25482SOL     OW78599   5.480   2.231   4.040 -0.0037 -0.1016  0.4131
25482SOL    HW178600   5.402   2.281   4.018  0.8576  1.0472 -0.0994
25482SOL    HW278601   5.551   2.296   4.044  1.0733 -1.2132  0.1137
25483SOL     OW78602   8.735   3.029   2.074  0.1555  0.1214  0.4674
25483SOL    HW178603   8.640   3.037   2.072  0.1200 -0.3200  0.2333
25483SOL    HW278604   8.758   3.037   2.166 -0.2851 -1.6784  0.7560
25484SOL     OW78605   3.237   6.311   5.401  0.0336 -0.4214 -0.1059
25484SOL    HW178606   3.214   6.381   5.463  0.0782  1.6305 -2.2904
25484SOL    HW278607   3.180   6.326   5.326  2.1008 -0.8820 -1.8494
25485SOL     OW78608   0.015   5.149   6.205 -0.2589  0.4780  0.5111
25485SOL    HW178609   0.073   5.207   6.157 -0.9579  0.4578 -0.3846
25485SOL    HW278610   0.024   5.177   6.296  0.7687  0.7906  0.3282
25486SOL     OW78611   0.327   1.994   9.455  0.0614  0.3773 -0.0303
25486SOL    HW178612   0.367   2.022   9.372 -0.5490  0.3062 -0.3536
25486SOL    HW278613   0.246   2.045   9.460 -1.0133 -1.2093 -0.5606
25487SOL     OW78614   0.519   2.084   8.665 -0.0867  0.1412  0.0388
25487SOL    HW178615   0.503   1.995   8.695 -0.6031 -0.0341 -0.7395
25487SOL    HW278616   0.614   2.089   8.655 -0.0421 -0.2666  0.2308
25488SOL     OW78617   2.623   0.162   8.167  0.7602  0.5618  0.6245
25488SOL    HW178618   2.583   0.114   8.239  0.3810  1.9938  1.4188
25488SOL    HW278619   2.624   0.253   8.197  1.7776  1.0072 -0.6639
25489SOL     OW78620   4.444   4.539   6.565 -0.2257 -0.0195 -0.8718
25489SOL    HW178621   4.476   4.472   6.625  0.9002  1.2245 -0.0302
25489SOL    HW278622   4.465   4.504   6.478  1.7758 -0.1143 -0.4167
25490SOL     OW78623   6.363   8.513   2.016 -0.0546  0.4360 -0.1603
25490SOL    HW178624   6.377   8.423   2.045  1.3364  0.9635  0.9685
25490SOL    HW278625   6.371   8.510   1.921  0.6773 -0.5311 -0.0790
25491SOL     OW78626   3.577   9.115   7.899  0.2794  0.3213 -0.5516
25491SOL    HW178627   3.534   9.083   7.820 -1.5807  0.3362  0.3983
25491SOL    HW278628   3.529   9.194   7.923  0.3942 -0.0166  0.9220
25492SOL     OW78629   6.388   1.161   7.855  0.3688 -0.7016  0.3337
25492SOL    HW178630   6.398   1.094   7.787 -0.0317  0.7711 -1.2372
25492SOL    HW278631   6.449   1.230   7.831 -0.5509  0.3305  0.8546
25493SOL     OW78632   4.876   5.558   3.025  0.3576  0.2682  0.2854
25493SOL    HW178633   4.957   5.596   3.060  1.2512 -0.2145 -1.1946
25493SOL    HW278634   4.896   5.538   2.934 -1.8873  1.4060 -0.5114
25494SOL     OW78635   4.869   5.960   9.324  0.8869  0.4208 -0.1790
25494SOL    HW178636   4.845   6.036   9.377  0.0189  0.3353 -0.4363
25494SOL    HW278637   4.877   5.994   9.235  0.8396  0.2732 -0.2405
25495SOL     OW78638   0.477   4.838   1.619 -0.1134  0.2425  0.1510
25495SOL    HW178639   0.435   4.909   1.668  1.3645  0.3392  1.3524
25495SOL    HW278640   0.419   4.763   1.633 -0.0778  0.4395  1.5288
25496SOL     OW78641   1.142   2.797   8.813  0.4920  0.0067  0.0962
25496SOL    HW178642   1.193   2.718   8.830  0.8445  0.3052  0.4247
25496SOL    HW278643   1.064   2.787   8.868  0.5289 -0.1187  0.1252
25497SOL     OW78644   5.120   9.048   2.538 -0.6156 -0.2396 -0.4904
25497SOL    HW178645   5.191   9.093   2.492 -2.2473  2.4374 -0.6544
25497SOL    HW278646   5.102   9.104   2.614 -0.3688 -2.6511  1.4730
25498SOL     OW78647   3.394   5.303   7.343 -0.4647  0.4812 -0.3439
25498SOL    HW178648   3.305   5.312   7.377 -0.0321  2.7082  0.3637
25498SOL    HW278649   3.419   5.392   7.320  1.3606 -0.2085 -1.1558
25499SOL     OW78650   4.692   7.824   3.233 -0.0450 -0.5065 -0.6553
25499SOL    HW178651   4.636   7.836   3.311  0.4136  0.2402 -0.4346
25499SOL    HW278652   4.780   7.846   3.263  0.0366  0.4945 -1.5610
25500SOL     OW78653   8.656   0.099   5.332 -0.1819 -0.0980 -0.0069
25500SOL    HW178654   8.748   0.083   5.315 -0.3355 -0.5450 -0.4292
25500SOL    HW278655   8.610   0.024   5.294 -0.7032  0.0107  0.3854
25501SOL     OW78656   5.766   0.718   1.229  0.2005 -0.7421  0.9219
25501SOL    HW178657   5.704   0.668   1.175 -1.3770  1.8973  0.0876
25501SOL    HW278658   5.727   0.716   1.317 -1.6091  1.4488  0.2768
25502SOL     OW78659   7.124   4.865   1.818  0.2767  0.6096  0.1497
25502SOL    HW178660   7.211   4.841   1.851  0.6248  1.3419 -0.2180
25502SOL    HW278661   7.129   4.959   1.803 -1.2673  1.0797  2.1757
25503SOL     OW78662   9.253   6.417   5.307 -0.0391  0.0180 -0.0850
25503SOL    HW178663   9.250   6.324   5.285  0.8045 -0.0365 -0.0086
25503SOL    HW278664   9.345   6.441   5.297 -0.4377  1.1564 -1.3237
25504SOL     OW78665   3.558   5.269   7.781 -0.1333  0.7623 -0.3567
25504SOL    HW178666   3.592   5.198   7.726  0.4045  0.3728  0.4604
25504SOL    HW278667   3.469   5.242   7.803 -1.0552  1.7825 -2.4985
25505SOL     OW78668   6.007   6.041   0.879 -0.2959  0.4099 -0.2511
25505SOL    HW178669   6.029   6.054   0.971 -0.1890 -2.1204  0.1729
25505SOL    HW278670   5.911   6.034   0.878 -0.2028 -1.5374  0.0579
25506SOL     OW78671   0.027   8.588   4.766  0.0775 -0.1979  0.5912
25506SOL    HW178672  -0.057   8.544   4.753 -0.6170  1.7112 -2.9235
25506SOL    HW278673   0.078   8.564   4.689  1.9986  0.3315  1.6442
25507SOL     OW78674   1.214   0.281   4.095  0.1238  0.2545 -0.0597
25507SOL    HW178675   1.307   0.303   4.103 -0.3529  2.8047 -0.5922
25507SOL    HW278676   1.195   0.291   4.001 -1.4341  3.5829  0.4888
25508SOL     OW78677   5.547   8.677   3.118 -0.0932 -0.0736 -0.0256
25508SOL    HW178678   5.570   8.609   3.054 -0.7517 -0.1725 -0.1637
25508SOL    HW278679   5.511   8.628   3.193 -0.1128  0.0956  0.0764
25509SOL     OW78680   1.564   7.595   1.000 -0.0095  0.4764  0.0284
25509SOL    HW178681   1.595   7.619   1.087 -1.0851  1.4193  0.1907
25509SOL    HW278682   1.628   7.533   0.967  2.9316  3.3960 -0.3089
25510SOL     OW78683   2.492   5.039   0.734  0.4534 -0.1848  0.0292
25510SOL    HW178684   2.535   4.963   0.696  0.4331 -0.1387 -0.0867
25510SOL    HW278685   2.487   5.020   0.827 -0.8081 -0.9563 -0.1664
25511SOL     OW78686   2.625   7.913   7.355 -0.3502  0.3683 -0.0584
25511SOL    HW178687   2.591   7.928   7.443  0.1282  0.3289  0.1352
25511SOL    HW278688   2.690   7.982   7.342  3.2733 -2.4061  1.5660
25512SOL     OW78689   4.310   8.730   2.775  0.3486 -0.1515  0.1164
25512SOL    HW178690   4.356   8.728   2.691  2.7070 -0.4422  1.3166
25512SOL    HW278691   4.380   8.725   2.840 -1.4834 -1.8478  2.1100
25513SOL     OW78692   4.065   8.831   2.409 -0.1327 -0.2958  0.6720
25513SOL    HW178693   4.007   8.863   2.477  0.3397 -0.7794  1.3144
25513SOL    HW278694   4.139   8.892   2.409 -1.4883  1.5415 -1.5186
25514SOL     OW78695   7.836   4.191   0.099  0.0863  0.4921  0.5564
25514SOL    HW178696   7.855   4.182   0.005 -0.4737 -1.8529  0.6083
25514SOL    HW278697   7.903   4.252   0.131  1.2299  0.1734 -1.0951
25515SOL     OW78698   6.938   8.224   1.299 -0.5805 -0.0798  0.0697
25515SOL    HW178699   6.899   8.293   1.246 -2.1250 -0.5960  0.4761
25515SOL    HW278700   6.863   8.174   1.332  0.4591 -1.3961  0.5223
25516SOL     OW78701   8.380   3.668   2.312 -0.3542 -0.0945  0.3196
25516SOL    HW178702   8.456   3.638   2.361 -0.1299 -0.2821 -0.1382
25516SOL    HW278703   8.309   3.672   2.377 -0.1909 -0.8384  0.5564
25517SOL     OW78704   2.768   3.312   7.321  0.3828  0.1092  0.0699
25517SOL    HW178705   2.776   3.220   7.294  1.5075  0.1094  0.3657
25517SOL    HW278706   2.674   3.331   7.313  0.1250 -1.0832  0.0783
25518SOL     OW78707   5.536   7.494   0.006 -0.4335  0.4319 -0.4708
25518SOL    HW178708   5.520   7.401  -0.009 -0.4305  0.3533 -0.0089
25518SOL    HW278709   5.619   7.498   0.054 -0.5241  0.6603 -0.3275
25519SOL     OW78710   9.603   1.555   3.334 -0.1335 -0.1737  0.2875
25519SOL    HW178711   9.570   1.609   3.405  1.1805 -0.7549  1.3961
25519SOL    HW278712   9.563   1.592   3.255 -0.6710  1.2646  1.1893
25520SOL     OW78713   1.890   1.233   3.268 -0.2990  0.2813 -0.2032
25520SOL    HW178714   1.895   1.320   3.308 -1.4919  0.4453 -0.3838
25520SOL    HW278715   1.797   1.218   3.255 -0.0511 -0.6650 -0.9754
25521SOL     OW78716   9.426   9.095   0.867  0.3267  0.4393 -0.1976
25521SOL    HW178717   9.461   9.022   0.919 -0.4355  1.1073  1.3056
25521SOL    HW278718   9.333   9.098   0.889 -0.1321  0.4510 -2.0058
25522SOL     OW78719   2.635   3.165   1.745 -0.5101  0.0759  0.1336
25522SOL    HW178720   2.669   3.246   1.705  2.2817  0.5801  3.0637
25522SOL    HW278721   2.586   3.195   1.821 -1.4035 -0.9461 -0.0259
25523SOL     OW78722   3.214   4.387   2.813 -0.0534  0.1406 -0.6480
25523SOL    HW178723   3.270   4.451   2.769  0.0857  0.1057 -0.5273
25523SOL    HW278724   3.273   4.344   2.876 -0.3118  0.3831 -0.2357
25524SOL     OW78725   1.645   1.757   6.918 -0.8368  0.3329 -0.3567
25524SOL    HW178726   1.676   1.769   6.828  1.5229 -0.6157  0.2548
25524SOL    HW278727   1.625   1.845   6.949 -1.9698  0.6455 -1.8624
25525SOL     OW78728   0.704   2.059   2.555 -0.4526 -0.2639  0.3433
25525SOL    HW178729   0.778   2.087   2.502 -0.3693 -0.9165  0.1164
25525SOL    HW278730   0.646   2.136   2.556  0.5529  0.5169  1.1444
25526SOL     OW78731   8.863   5.683   0.835 -0.2530  0.1263  0.2286
25526SOL    HW178732   8.948   5.643   0.819 -0.2230  0.0771  0.5202
25526SOL    HW278733   8.842   5.662   0.926 -0.4468  0.3785  0.2449
25527SOL     OW78734   7.040   6.123   2.749  0.2435 -0.3712 -0.4912
25527SOL    HW178735   7.061   6.178   2.674  0.3749  0.2870  0.0289
25527SOL    HW278736   7.101   6.149   2.817  0.2993 -1.1512 -0.2258
25528SOL     OW78737   5.599   7.451   2.178 -0.1947  0.7610 -0.0201
25528SOL    HW178738   5.586   7.460   2.083  0.6213  0.8135 -0.1351
25528SOL    HW278739   5.622   7.540   2.207  0.2863  0.6032  0.0990
25529SOL     OW78740   4.732   2.055   1.490 -0.1066 -0.4050  0.3287
25529SOL    HW178741   4.783   2.018   1.562  1.2933  1.2323  0.2339
25529SOL    HW278742   4.658   2.100   1.533 -0.1717 -0.7927  0.6246
25530SOL     OW78743   9.386   6.144   0.393 -0.3387  0.6957  0.6041
25530SOL    HW178744   9.418   6.215   0.338 -1.1517 -0.1063 -0.9827
25530SOL    HW278745   9.292   6.161   0.401 -0.2911  0.5909  1.4530
25531SOL     OW78746   8.105   9.028   5.912 -0.0593  0.5821  0.1910
25531SOL    HW178747   8.092   8.983   5.828 -0.5694  0.6445  0.2379
25531SOL    HW278748   8.045   8.984   5.972  0.4445  0.4060  0.5783
25532SOL     OW78749   5.118   1.090   7.491  0.2927  0.0246 -0.3711
25532SOL    HW178750   5.202   1.135   7.502  0.7629 -1.0972  0.8724
25532SOL    HW278751   5.054   1.151   7.529  0.7486  0.2206  0.1026
25533SOL     OW78752   0.557   1.725   9.422 -0.5690 -0.2043  0.3888
25533SOL    HW178753   0.569   1.813   9.460 -0.0771 -0.9669  2.1099
25533SOL    HW278754   0.621   1.721   9.351  0.0305  0.5266  0.8643
25534SOL     OW78755   6.866   7.665   3.206  0.0085  0.2178 -0.4818
25534SOL    HW178756   6.840   7.747   3.164  1.0108 -0.0913 -1.7706
25534SOL    HW278757   6.961   7.660   3.193 -0.0902 -1.3535 -0.8265
25535SOL     OW78758   1.637   0.485   7.652 -0.1411  0.3731 -0.0244
25535SOL    HW178759   1.694   0.442   7.588 -1.3533 -1.2089 -0.0990
25535SOL    HW278760   1.660   0.443   7.736  0.8350  1.8244  0.4670
25536SOL     OW78761   0.838   3.733   7.063 -0.1838  0.2049 -0.3470
25536SOL    HW178762   0.828   3.646   7.102 -0.2629  0.2021 -0.3735
25536SOL    HW278763   0.875   3.786   7.133 -1.7745  0.5943  0.2367
25537SOL     OW78764   5.203   1.541   6.807 -0.5568  0.1405 -0.0533
25537SOL    HW178765   5.227   1.585   6.888  0.1674  0.7411 -0.5812
25537SOL    HW278766   5.250   1.590   6.738 -2.3265  0.6061 -0.9972
25538SOL     OW78767   5.910   7.906   4.111 -0.5146  0.0646 -0.2772
25538SOL    HW178768   5.884   7.818   4.085 -1.5691  0.7959 -1.8104
25538SOL    HW278769   5.949   7.945   4.033 -0.2847  1.0454  0.3022
25539SOL     OW78770   8.585   5.138   1.497 -0.2222 -0.0978  0.4394
25539SOL    HW178771   8.566   5.048   1.524 -1.8280  0.6962  2.2213
25539SOL    HW278772   8.631   5.129   1.413 -2.0376 -2.5003 -0.4083
25540SOL     OW78773   7.056   8.443   3.776  0.4156 -0.1817  0.3639
25540SOL    HW178774   7.037   8.391   3.698 -1.4674 -1.2646  1.4839
25540SOL    HW278775   7.132   8.399   3.815  1.2116  0.2160 -0.6840
25541SOL     OW78776   1.625   8.961   0.686  0.0558 -0.3711  0.1201
25541SOL    HW178777   1.617   9.052   0.656 -0.8020 -0.4972 -0.0489
25541SOL    HW278778   1.595   8.963   0.776 -1.1448 -0.7001 -0.2591
25542SOL     OW78779   7.467   3.014   2.985 -0.1523  0.2289  0.6994
25542SOL    HW178780   7.444   3.088   2.929  1.2323  0.2580  0.1215
25542SOL    HW278781   7.545   3.043   3.033  0.5848 -0.9329  0.2498
25543SOL     OW78782   7.287   1.099   2.136  0.7332 -0.0367 -0.0516
25543SOL    HW178783   7.320   1.073   2.222  2.2359  0.4601 -0.4460
25543SOL    HW278784   7.272   1.017   2.090  0.1093 -0.3020  0.5995
25544SOL     OW78785   7.176   7.300   6.516  0.0988 -0.8076 -0.2902
25544SOL    HW178786   7.139   7.365   6.575 -1.9248 -1.9509 -0.2158
25544SOL    HW278787   7.226   7.241   6.573  2.7524  1.0686 -0.4626
25545SOL     OW78788   7.683   6.018   3.347 -0.1016  0.1249  0.0658
25545SOL    HW178789   7.749   5.971   3.297 -0.3520 -0.7978  0.5713
25545SOL    HW278790   7.714   6.013   3.438 -0.9584 -0.5310  0.3422
25546SOL     OW78791   0.439   4.177   6.893 -0.6483 -0.6744  0.0517
25546SOL    HW178792   0.390   4.258   6.876 -1.0914 -0.9293  0.0809
25546SOL    HW278793   0.529   4.206   6.909 -0.0761 -0.4299 -3.0363
25547SOL     OW78794   3.468   0.560   4.982  0.4918 -0.2005 -0.0471
25547SOL    HW178795   3.378   0.529   4.983  0.0358  0.9384  2.1714
25547SOL    HW278796   3.493   0.565   5.075  2.7799 -0.2784 -0.5835
25548SOL     OW78797   7.325   4.568   0.134 -0.5076 -0.2825 -0.2767
25548SOL    HW178798   7.381   4.532   0.203 -1.5231 -2.4345 -0.4732
25548SOL    HW278799   7.263   4.625   0.180  0.9179  1.0165  0.1087
25549SOL     OW78800   9.066   4.191   2.422  0.4278 -0.6411  0.2425
25549SOL    HW178801   9.122   4.252   2.374  0.3504 -0.4169  0.4344
25549SOL    HW278802   9.111   4.180   2.506  0.1146 -0.3517  0.4509
25550SOL     OW78803   1.762   1.662   2.375 -0.1799  0.1075 -0.5955
25550SOL    HW178804   1.675   1.644   2.411  0.6945 -0.8276  1.1935
25550SOL    HW278805   1.793   1.577   2.345  2.0168 -0.7288  3.3607
25551SOL     OW78806   1.403   0.847   9.466  0.3606  0.2618  0.2065
25551SOL    HW178807   1.442   0.761   9.480  1.4654  0.6989 -0.0583
25551SOL    HW278808   1.310   0.829   9.451  0.5259 -0.8527  0.4134
25552SOL     OW78809   3.291   8.061   2.188  1.0164  0.4156  0.0503
25552SOL    HW178810   3.287   8.117   2.266  0.0478  1.4850 -0.7405
25552SOL    HW278811   3.308   8.121   2.116  2.1318 -0.5904 -0.5553
25553SOL     OW78812   4.607   5.836   4.646 -0.1220  0.0951 -0.2668
25553SOL    HW178813   4.702   5.847   4.643 -0.0094 -0.9185 -0.7293
25553SOL    HW278814   4.573   5.924   4.629  0.7282  0.2671 -1.2096
25554SOL     OW78815   0.558   4.317   1.232 -0.8345 -0.3832 -0.3893
25554SOL    HW178816   0.616   4.377   1.185 -0.1541 -0.2261  0.6104
25554SOL    HW278817   0.548   4.242   1.173 -0.2874 -0.0473 -0.9268
25555SOL     OW78818   2.303   1.783   5.939 -0.1785 -0.0128 -0.7109
25555SOL    HW178819   2.225   1.728   5.930  0.1924 -0.5901 -0.4611
25555SOL    HW278820   2.372   1.723   5.968  0.3674  0.4840 -0.9479
25556SOL     OW78821   8.311   5.370   8.525  0.0972  0.2746 -0.3082
25556SOL    HW178822   8.231   5.421   8.519 -1.5434 -2.2947 -2.9109
25556SOL    HW278823   8.371   5.413   8.464  0.0797  1.1221  0.2464
25557SOL     OW78824   7.387   6.779   8.458 -0.1525  0.3739  0.1982
25557SOL    HW178825   7.392   6.827   8.541 -1.1149  0.9278 -0.0506
25557SOL    HW278826   7.436   6.699   8.474 -0.1378  0.5721  1.2332
25558SOL     OW78827   1.738   6.795   2.778 -0.3375  0.3135 -0.4777
25558SOL    HW178828   1.727   6.703   2.754  1.9317 -0.0630 -0.2780
25558SOL    HW278829   1.833   6.809   2.776 -0.5189  2.1636  1.2991
25559SOL     OW78830   6.079   1.165   4.185  0.6408 -0.4143  0.8684
25559SOL    HW178831   6.145   1.180   4.252 -0.5166 -1.3623  2.2813
25559SOL    HW278832   6.079   1.070   4.173  0.5213 -0.2947 -0.1598
25560SOL     OW78833   6.935   6.787   3.175 -0.2582  0.4200 -0.0018
25560SOL    HW178834   6.988   6.727   3.227 -0.6032 -0.3634 -0.5420
25560SOL    HW278835   6.910   6.856   3.236  1.5073  0.8929  0.2243
25561SOL     OW78836   0.378   9.522   5.641  0.2955  0.4211  0.2887
25561SOL    HW178837   0.348   9.445   5.688  0.2659 -0.9128 -1.8022
25561SOL    HW278838   0.465   9.499   5.609  0.4890  1.4363  0.0269
25562SOL     OW78839   1.276   8.807   8.083 -0.3114 -0.5810  0.1889
25562SOL    HW178840   1.201   8.778   8.135 -2.3764  3.4160 -0.1614
25562SOL    HW278841   1.260   8.772   7.996 -0.9669 -0.9838  0.4598
25563SOL     OW78842   5.437   8.635   1.560 -0.0618  0.0062 -0.5112
25563SOL    HW178843   5.362   8.694   1.562  1.2059  1.7149 -1.2168
25563SOL    HW278844   5.513   8.691   1.574  1.1794 -1.5335 -0.7366
25564SOL     OW78845   5.511   6.406   1.514  0.2963 -0.0724  0.1017
25564SOL    HW178846   5.443   6.409   1.581  0.9755 -0.1204  0.8012
25564SOL    HW278847   5.470   6.358   1.441 -0.4405 -0.0292  0.4792
25565SOL     OW78848   3.354   6.384   0.064  0.6100  0.0894  0.6688
25565SOL    HW178849   3.346   6.469   0.021 -0.7397 -1.1337 -1.6745
25565SOL    HW278850   3.449   6.372   0.075  1.0547  0.5646 -1.9283
25566SOL     OW78851   0.614   7.237   1.966 -0.7054 -0.4867  0.2805
25566SOL    HW178852   0.583   7.162   2.016  0.9708 -0.1157  1.9697
25566SOL    HW278853   0.664   7.198   1.894  0.0801 -1.0195  1.0945
25567SOL     OW78854   2.683   7.894   0.053 -0.3068 -0.4847  0.3597
25567SOL    HW178855   2.735   7.940   0.119  0.0570 -0.9796  0.4236
25567SOL    HW278856   2.592   7.917   0.073 -0.1753 -0.3608  0.8240
25568SOL     OW78857   2.170   9.218   7.750 -0.2895 -0.0842  0.1971
25568SOL    HW178858   2.201   9.276   7.681 -2.2663  2.1211  1.0338
25568SOL    HW278859   2.144   9.138   7.704 -1.0049  1.1079 -1.5781
25569SOL     OW78860   6.257   9.423   6.782  0.5396  0.3248 -0.1315
25569SOL    HW178861   6.219   9.350   6.734 -0.6061  0.3838  0.6572
25569SOL    HW278862   6.289   9.483   6.714 -0.5441  0.1449 -0.8146
25570SOL     OW78863   6.182   6.867   8.671 -0.2866  0.1018  0.1734
25570SOL    HW178864   6.112   6.922   8.706  0.1133 -0.4457  1.9527
25570SOL    HW278865   6.262   6.919   8.683 -0.2076  0.1675 -0.5763
25571SOL     OW78866   1.715   1.056   3.924 -0.0727  0.0995 -0.1548
25571SOL    HW178867   1.787   1.055   3.861  0.4900 -0.9855  0.4775
25571SOL    HW278868   1.637   1.073   3.871  0.4839  0.0076 -1.0300
25572SOL     OW78869   6.454   8.330   4.908  0.2906 -0.2170 -0.0479
25572SOL    HW178870   6.363   8.304   4.921  0.1849 -0.5052 -1.1842
25572SOL    HW278871   6.454   8.425   4.919  0.3736 -0.4494  2.5379
25573SOL     OW78872   5.933   5.986   7.596 -0.0020 -0.5486 -0.1053
25573SOL    HW178873   5.856   6.002   7.652  0.7028 -1.5626  1.2162
25573SOL    HW278874   6.008   6.000   7.654  0.8756  1.3410 -1.6277
25574SOL     OW78875   3.095   1.780   0.395  0.7408 -0.3821  0.0096
25574SOL    HW178876   3.105   1.824   0.310  2.2385 -0.1987  0.2594
25574SOL    HW278877   3.068   1.850   0.454  1.6320 -0.0963  0.0875
25575SOL     OW78878   7.668   6.062   7.294  0.2713  0.2431 -0.1642
25575SOL    HW178879   7.579   6.075   7.326  0.1536  0.4615 -0.5615
25575SOL    HW278880   7.673   6.118   7.216  1.7236  2.6930  1.5290
25576SOL     OW78881   5.412   0.422   5.354  0.3464  0.2756  0.8083
25576SOL    HW178882   5.412   0.351   5.418  1.0764 -0.8091 -0.3523
25576SOL    HW278883   5.482   0.480   5.383  0.6590 -0.1947  1.0123
25577SOL     OW78884   1.078   3.356   1.397 -0.0085  0.5924  0.2055
25577SOL    HW178885   1.002   3.369   1.340 -1.3203  0.7709  1.8963
25577SOL    HW278886   1.093   3.442   1.436  0.8485  0.4736  0.1513
25578SOL     OW78887   4.536   9.366   3.974  0.1316 -0.3178 -0.5503
25578SOL    HW178888   4.586   9.446   3.958 -0.2196  0.0778  0.2832
25578SOL    HW278889   4.445   9.394   3.970  0.0087 -0.6443 -0.0769
25579SOL     OW78890   3.815   1.432   1.006  0.2067 -0.8894  0.3552
25579SOL    HW178891   3.754   1.420   0.932 -0.2232  2.3861  0.0657
25579SOL    HW278892   3.890   1.478   0.968  0.4994 -0.1934  1.7312
25580SOL     OW78893   1.768   9.027   2.623  0.0820  0.1596 -0.0874
25580SOL    HW178894   1.709   9.089   2.582 -0.0665 -0.7582 -1.3189
25580SOL    HW278895   1.756   8.946   2.573 -0.9711 -1.3858  2.4722
25581SOL     OW78896   4.315   7.485   3.121  0.5057 -0.2515 -0.3427
25581SOL    HW178897   4.401   7.472   3.081  0.8925 -1.2118  0.7224
25581SOL    HW278898   4.262   7.527   3.053  1.0273 -2.0771 -1.9642
25582SOL     OW78899   9.509   2.566   4.439 -0.2896  0.7522  0.0158
25582SOL    HW178900   9.503   2.614   4.356  0.4630 -0.9920 -1.1082
25582SOL    HW278901   9.445   2.496   4.429 -0.1409  0.4922  0.8958
25583SOL     OW78902   4.930   8.022   8.984 -0.2073  0.4978  0.1708
25583SOL    HW178903   4.893   8.062   9.063 -1.5458 -1.0300  0.3729
25583SOL    HW278904   5.010   7.980   9.014 -0.4355  0.3676  0.6122
25584SOL     OW78905   5.654   2.252   2.851  0.2500  0.0095 -1.1134
25584SOL    HW178906   5.642   2.342   2.820 -1.3582 -0.1037 -0.9370
25584SOL    HW278907   5.581   2.204   2.811 -0.5610 -0.6078  0.9807
25585SOL     OW78908   7.466   0.650   9.128 -0.1086  0.0246 -0.1603
25585SOL    HW178909   7.448   0.585   9.196 -0.7949 -1.4835 -1.7042
25585SOL    HW278910   7.440   0.733   9.167  1.9377 -0.3856  2.3338
25586SOL     OW78911   3.549   5.847   1.681  0.3401 -0.4237  0.1206
25586SOL    HW178912   3.627   5.868   1.628 -0.1292 -1.2249 -0.9373
25586SOL    HW278913   3.520   5.762   1.647 -2.0133  0.6404 -0.7212
25587SOL     OW78914   1.298   0.313   3.454  0.4035 -0.3615 -0.1412
25587SOL    HW178915   1.349   0.256   3.510  0.5731 -0.3513 -0.2839
25587SOL    HW278916   1.295   0.397   3.501  0.1168 -0.4963  0.0891
25588SOL     OW78917   8.016   1.498   8.197 -0.0407 -0.1013 -0.0203
25588SOL    HW178918   8.020   1.420   8.141 -2.3512  1.2609 -2.3156
25588SOL    HW278919   7.946   1.479   8.260 -1.2431  0.3882 -1.1627
25589SOL     OW78920   2.299   9.507   2.624  0.1860 -0.1699 -0.4403
25589SOL    HW178921   2.207   9.524   2.644  0.1906  0.4840 -0.9492
25589SOL    HW278922   2.342   9.591   2.635  0.3665 -0.0088 -2.1091
25590SOL     OW78923   8.080   8.888   5.668  0.0759  0.0707  0.5012
25590SOL    HW178924   8.173   8.867   5.667 -0.0657 -0.7397  1.7570
25590SOL    HW278925   8.038   8.810   5.704 -0.9750  0.8237  0.9758
25591SOL     OW78926   8.618   9.512   6.465 -0.4011 -0.2102 -0.3261
25591SOL    HW178927   8.710   9.518   6.439  0.4093  0.8800  2.4810
25591SOL    HW278928   8.572   9.491   6.383  1.9433  2.1295 -2.4675
25592SOL     OW78929   1.245   5.164   0.467 -0.1934 -0.4732  0.0562
25592SOL    HW178930   1.173   5.136   0.409 -0.7973 -0.5495  0.8253
25592SOL    HW278931   1.240   5.104   0.541  0.8932 -0.6897 -0.0358
25593SOL     OW78932   1.391   0.158   8.239 -0.0860 -0.8097  0.1015
25593SOL    HW178933   1.414   0.188   8.152  0.8962  1.1167  0.9887
25593SOL    HW278934   1.346   0.074   8.224  2.8836 -2.2047 -2.0332
25594SOL     OW78935   1.903   8.860   8.083 -0.1289 -0.7506  0.1049
25594SOL    HW178936   1.854   8.897   8.009 -0.7023 -2.2248 -0.2783
25594SOL    HW278937   1.995   8.883   8.064 -0.3472 -0.5110 -0.7086
25595SOL     OW78938   1.616   8.721   2.027  0.0093 -0.3266 -0.6503
25595SOL    HW178939   1.692   8.685   1.982  0.0317 -1.1185 -0.0157
25595SOL    HW278940   1.578   8.646   2.073  0.4772  0.5779  1.3199
25596SOL     OW78941   5.288   7.930   9.234 -0.4903  0.5742 -0.4687
25596SOL    HW178942   5.328   7.955   9.151 -1.0933 -4.4177 -2.6289
25596SOL    HW278943   5.334   7.983   9.300  2.1420  2.6469 -3.6437
25597SOL     OW78944   4.084   7.943   1.741 -0.4447  0.3432  0.3483
25597SOL    HW178945   4.006   7.990   1.710 -0.5142 -0.1161 -0.1894
25597SOL    HW278946   4.134   7.926   1.662  0.5257  1.1797  0.7627
25598SOL     OW78947   7.730   3.248   5.031  0.2330  0.3637  0.2647
25598SOL    HW178948   7.805   3.280   5.081  0.8613 -3.5876  2.1916
25598SOL    HW278949   7.768   3.200   4.958 -0.5148  0.2931 -0.0927
25599SOL     OW78950   6.639   1.394   6.141  0.0519  0.0918 -0.2762
25599SOL    HW178951   6.697   1.469   6.155  0.1963 -0.0598 -0.0527
25599SOL    HW278952   6.670   1.355   6.058  1.9593 -1.4969  1.0753
25600SOL     OW78953   9.130   8.633   8.818 -0.0203 -0.3062  0.9031
25600SOL    HW178954   9.050   8.684   8.807  1.2572  1.6748  0.1734
25600SOL    HW278955   9.101   8.550   8.856 -2.4314  0.1965  0.3160
25601SOL     OW78956   5.035   1.673   6.007  0.2184  0.1164 -0.0378
25601SOL    HW178957   4.958   1.710   6.050  1.7639  2.5330  0.8159
25601SOL    HW278958   5.019   1.578   6.006 -2.7460  0.5385  0.0461
25602SOL     OW78959   0.153   7.979   1.316 -0.2433  0.2246 -0.0272
25602SOL    HW178960   0.129   8.013   1.403  0.8136 -0.1898  0.4496
25602SOL    HW278961   0.096   8.025   1.255 -1.6524 -0.1439  0.9666
25603SOL     OW78962   6.843   7.797   6.557 -0.1427 -0.2111 -0.5127
25603SOL    HW178963   6.888   7.717   6.527 -1.8524 -1.0165 -1.0372
25603SOL    HW278964   6.857   7.798   6.651  0.2714 -0.9023 -0.5583
25604SOL     OW78965   4.760   5.273   5.520 -0.3395  0.2835  0.6133
25604SOL    HW178966   4.786   5.362   5.495 -0.8298  0.1614 -0.3776
25604SOL    HW278967   4.813   5.216   5.464 -1.2798 -0.0010 -0.0117
25605SOL     OW78968   4.597   1.523   2.769  0.3201 -0.5859 -0.4615
25605SOL    HW178969   4.548   1.544   2.849  0.6626 -0.7593 -0.2026
25605SOL    HW278970   4.566   1.586   2.704  0.7323  0.1925  0.0766
25606SOL     OW78971   5.237   8.482   6.621 -0.1507  0.1164  0.1430
25606SOL    HW178972   5.168   8.421   6.595 -1.6563  1.2155  1.3366
25606SOL    HW278973   5.205   8.521   6.703  0.7094  2.4913 -0.5502
25607SOL     OW78974   5.380   7.225   6.852 -0.5804  0.4640  0.0360
25607SOL    HW178975   5.292   7.186   6.855 -0.9998  1.4331  1.5359
25607SOL    HW278976   5.366   7.314   6.821  0.2405 -0.1678 -2.3125
25608SOL     OW78977   4.969   2.777   3.999  0.4050  0.1211  0.0163
25608SOL    HW178978   4.994   2.859   4.041  0.8453  0.9441 -1.7549
25608SOL    HW278979   5.001   2.785   3.909  0.9811 -2.2580 -0.0532
25609SOL     OW78980   4.397   8.727   1.695 -0.2233  0.0576  0.2543
25609SOL    HW178981   4.365   8.804   1.648 -0.5415 -0.3263 -0.1646
25609SOL    HW278982   4.402   8.658   1.628  3.9422  0.7080 -0.3577
25610SOL     OW78983   1.228   8.807   0.689  0.2494 -0.1550  0.2239
25610SOL    HW178984   1.145   8.854   0.684  0.0722 -0.5551 -0.9073
25610SOL    HW278985   1.282   8.844   0.619  0.5036 -0.8681  0.0339
25611SOL     OW78986   0.109   7.033   1.553  0.2552  0.7649 -0.2833
25611SOL    HW178987   0.124   7.125   1.574  1.1344  0.3803  0.8990
25611SOL    HW278988   0.032   7.033   1.496 -0.1342  2.1704  0.2060
25612SOL     OW78989   0.485   1.233   5.024 -0.4904  0.0307 -0.5246
25612SOL    HW178990   0.577   1.209   5.022 -0.0395  1.0897  2.2184
25612SOL    HW278991   0.480   1.314   4.973  1.0000  2.1055  2.2705
25613SOL     OW78992   1.868   6.342   8.138  0.1443  0.1994  0.0630
25613SOL    HW178993   1.794   6.344   8.078 -0.4857  2.1509  0.8233
25613SOL    HW278994   1.872   6.431   8.173  3.5834  0.5458 -0.8304
25614SOL     OW78995   9.159   3.292   3.821 -0.1939  0.3882 -0.0109
25614SOL    HW178996   9.185   3.349   3.749 -1.5595  3.1510  1.5156
25614SOL    HW278997   9.079   3.249   3.791  0.1911  0.1529 -0.7327
25615SOL     OW78998   5.366   3.936   2.991  0.0205 -0.3842 -0.6330
25615SOL    HW178999   5.417   4.004   3.035 -0.5324  0.8945 -1.8993
25615SOL    HW279000   5.306   3.903   3.058  0.7677 -0.1092  0.1792
25616SOL     OW79001   2.060   5.751   7.019 -0.1016  0.3629 -0.3618
25616SOL    HW179002   2.075   5.657   7.003 -0.7804  0.2161 -0.1736
25616SOL    HW279003   2.138   5.794   6.984  0.0339 -0.2432 -0.8239
25617SOL     OW79004   6.448   3.735   2.259 -0.6145 -0.6476 -0.0477
25617SOL    HW179005   6.366   3.783   2.272 -0.3389  0.3226 -1.6133
25617SOL    HW279006   6.454   3.724   2.164  0.8461 -1.1107  0.0788
25618SOL     OW79007   7.887   5.142   7.449 -0.2546  0.3592  0.1233
25618SOL    HW179008   7.889   5.204   7.376 -3.9282  0.9156  0.3059
25618SOL    HW279009   7.967   5.090   7.439  0.4837  1.8771 -2.9597
25619SOL     OW79010   8.722   5.689   2.884 -0.0976  0.1064  0.8736
25619SOL    HW179011   8.775   5.765   2.907 -0.6054  1.5329 -2.1447
25619SOL    HW279012   8.637   5.705   2.927 -0.2631  1.3836  0.1024
25620SOL     OW79013   4.815   7.327   8.268  0.1128 -0.4717 -0.1039
25620SOL    HW179014   4.857   7.413   8.262 -0.0307 -0.3554  0.4724
25620SOL    HW279015   4.721   7.345   8.259  0.1440 -0.6680 -0.8454
25621SOL     OW79016   7.289   4.528   4.310  0.6743 -0.0482  0.4490
25621SOL    HW179017   7.272   4.539   4.404 -0.2226  0.2650  0.2646
25621SOL    HW279018   7.290   4.618   4.276 -0.6069 -0.2275 -0.0953
25622SOL     OW79019   9.479   2.815   5.237  0.2387 -0.0347  0.3190
25622SOL    HW179020   9.387   2.801   5.217  0.5728 -1.7494 -0.2049
25622SOL    HW279021   9.521   2.822   5.151  0.6468  0.5497  0.5517
25623SOL     OW79022   2.154   8.445   7.851 -0.3472  0.1978 -0.3233
25623SOL    HW179023   2.065   8.414   7.868 -0.3455  0.5544  0.3860
25623SOL    HW279024   2.207   8.408   7.921 -0.3535  1.7721  0.5575
25624SOL     OW79025   3.724   6.680   6.667  0.3533  0.3352  0.2673
25624SOL    HW179026   3.662   6.738   6.624 -1.0566 -0.9681  0.4467
25624SOL    HW279027   3.776   6.643   6.595  1.2018  1.6884  0.1480
25625SOL     OW79028   3.213   8.688   8.787 -0.5508  0.0093  0.2329
25625SOL    HW179029   3.306   8.691   8.809 -0.8423  1.6777  1.3946
25625SOL    HW279030   3.205   8.616   8.725  1.7404  0.6995 -0.9578
25626SOL     OW79031   8.898   4.052   8.480 -0.2896  0.3390  0.0313
25626SOL    HW179032   8.968   3.988   8.492  0.1773  0.9737  0.8087
25626SOL    HW279033   8.880   4.051   8.386  0.4447 -0.1621 -0.1078
25627SOL     OW79034   0.437   7.835   7.239  0.2235  0.0296 -1.0455
25627SOL    HW179035   0.369   7.848   7.173 -2.7062 -1.2861  1.4632
25627SOL    HW279036   0.395   7.860   7.321  2.9637 -0.4564  0.6138
25628SOL     OW79037   0.444   9.480   3.389 -0.1453 -0.2706  0.2689
25628SOL    HW179038   0.389   9.406   3.364  0.1234 -1.0209  1.8154
25628SOL    HW279039   0.409   9.553   3.338  0.0798 -1.5862 -1.8824
25629SOL     OW79040   1.091   2.463   8.298 -0.5912 -0.5246 -0.4207
25629SOL    HW179041   1.098   2.369   8.283 -0.8240 -0.4706 -0.8985
25629SOL    HW279042   1.148   2.503   8.233 -0.8525 -0.3185 -0.5289
25630SOL     OW79043   2.544   8.417   0.480  0.1399 -0.1509 -0.1473
25630SOL    HW179044   2.566   8.395   0.390 -2.0987 -2.8180 -0.2051
25630SOL    HW279045   2.626   8.410   0.528  0.9989 -0.7920 -1.6567
25631SOL     OW79046   0.788   6.049   3.799 -0.0442  0.4635 -0.2147
25631SOL    HW179047   0.737   6.022   3.875  0.7511  0.4802  0.3386
25631SOL    HW279048   0.873   6.073   3.835 -0.0503  1.6470 -0.9661
25632SOL     OW79049   7.750   5.045   4.466  0.2836 -0.7698 -0.0179
25632SOL    HW179050   7.719   5.125   4.508  2.9146  0.4648 -0.2014
25632SOL    HW279051   7.845   5.058   4.459  0.4403 -2.6919 -2.6253
25633SOL     OW79052   5.678   1.954   2.621  0.2532  0.0899  0.0035
25633SOL    HW179053   5.691   1.975   2.714 -1.1261  1.8978 -0.1543
25633SOL    HW279054   5.687   2.039   2.577  2.8647 -1.0021 -1.7996
25634SOL     OW79055   2.405   0.115   2.039 -0.0176 -0.4080  0.2293
25634SOL    HW179056   2.406   0.124   2.134  1.6547 -0.9228  0.3000
25634SOL    HW279057   2.349   0.186   2.008 -0.4195 -0.1142  1.5858
25635SOL     OW79058   5.473   4.536   6.268 -0.0804  0.0286  0.0489
25635SOL    HW179059   5.530   4.537   6.191 -0.3201  0.5481 -0.1307
25635SOL    HW279060   5.386   4.557   6.234  0.0075  1.3855  0.5963
25636SOL     OW79061   8.545   2.833   8.902  0.1176 -0.7119  0.4626
25636SOL    HW179062   8.635   2.824   8.933  0.6064 -0.7056 -0.8658
25636SOL    HW279063   8.544   2.784   8.819 -0.2311  1.8610 -1.1716
25637SOL     OW79064   4.584   8.006   9.253 -0.3780  0.2993 -0.3425
25637SOL    HW179065   4.580   8.084   9.308  1.1629 -0.6370  1.2012
25637SOL    HW279066   4.539   7.939   9.304  0.1317 -0.3299 -0.7028
25638SOL     OW79067   1.574   2.849   9.121  0.1654  0.1464 -0.1938
25638SOL    HW179068   1.524   2.870   9.200  0.4822 -2.5011  0.8308
25638SOL    HW279069   1.665   2.852   9.148  0.3698  0.7898 -0.9176
25639SOL     OW79070   2.942   3.597   2.393  0.0331 -0.2435 -0.1741
25639SOL    HW179071   2.952   3.686   2.427 -1.9485  0.4460 -1.1795
25639SOL    HW279072   3.020   3.582   2.340  0.5577  0.7615  0.2928
25640SOL     OW79073   6.359   6.349   4.162  0.3293  0.0846 -0.7161
25640SOL    HW179074   6.336   6.432   4.204 -0.5722 -0.8912  0.8041
25640SOL    HW279075   6.425   6.311   4.218 -2.1266 -2.0474  0.9741
25641SOL     OW79076   8.073   8.637   9.176 -0.1152  0.1674 -0.1581
25641SOL    HW179077   8.072   8.587   9.257  0.6423 -0.7553 -0.7023
25641SOL    HW279078   8.023   8.584   9.114 -0.5480  0.7870 -0.3499
25642SOL     OW79079   7.168   7.706   6.780  0.3457 -0.3706  0.0563
25642SOL    HW179080   7.219   7.783   6.804 -0.6892 -0.4085  2.7794
25642SOL    HW279081   7.078   7.738   6.776 -0.0041 -1.2612  0.4859
25643SOL     OW79082   8.774   7.302   8.090  0.2731  0.2597  0.3607
25643SOL    HW179083   8.818   7.278   8.171  1.0158  1.1001  0.2198
25643SOL    HW279084   8.718   7.226   8.069  0.8680 -0.3897  1.0926
25644SOL     OW79085   0.724   9.626   3.975 -0.3946 -0.2566 -0.3745
25644SOL    HW179086   0.768   9.550   3.937  0.9708  0.5369 -0.4196
25644SOL    HW279087   0.710   9.601   4.067  2.8138  0.5076  0.4496
25645SOL     OW79088   2.900   0.193   3.664  0.1529  0.2891 -0.7874
25645SOL    HW179089   2.895   0.274   3.613 -0.2597  0.6514 -0.1826
25645SOL    HW279090   2.809   0.164   3.672 -0.1432  1.6846  2.0157
25646SOL     OW79091   0.227   4.597   4.403  0.2902  0.8047 -0.3636
25646SOL    HW179092   0.226   4.683   4.360 -3.6609 -0.4586 -3.3443
25646SOL    HW279093   0.171   4.609   4.480 -1.3669  0.7140 -1.4996
25647SOL     OW79094   3.628   0.313   1.462  0.0657 -0.4774 -0.1475
25647SOL    HW179095   3.703   0.320   1.521 -0.6622 -0.0228  0.7614
25647SOL    HW279096   3.601   0.221   1.469 -0.1150 -0.3891  0.3718
25648SOL     OW79097   1.692   0.693   8.024 -0.5929  0.3360  0.1682
25648SOL    HW179098   1.639   0.669   8.101  0.8171  0.5729  1.2588
25648SOL    HW279099   1.722   0.782   8.043  0.0271  0.2778 -0.5155
25649SOL     OW79100   6.181   7.076   2.339 -0.8292  0.2208 -0.9201
25649SOL    HW179101   6.236   7.090   2.416 -0.7439  0.9369 -1.0959
25649SOL    HW279102   6.138   6.992   2.354  2.4436 -1.8195 -2.0614
25650SOL     OW79103   4.256   0.949   2.289 -0.0833 -0.2657 -0.5871
25650SOL    HW179104   4.253   0.866   2.337  1.1264  0.9359  1.7461
25650SOL    HW279105   4.169   0.956   2.248 -0.8350 -1.8581  0.6049
25651SOL     OW79106   6.078   8.603   0.171 -0.3087 -0.0801  0.1074
25651SOL    HW179107   6.071   8.508   0.164  1.3960 -0.2936  0.8228
25651SOL    HW279108   6.127   8.618   0.251 -0.2561  1.4031 -0.1652
25652SOL     OW79109   2.048   6.017   6.067 -0.7912 -0.1456 -0.0066
25652SOL    HW179110   2.100   6.074   6.009 -1.7346 -1.8962 -2.7714
25652SOL    HW279111   1.981   6.075   6.103 -1.5355  0.6755 -2.4707
25653SOL     OW79112   9.226   4.891   2.982 -0.0749  0.4483 -0.1547
25653SOL    HW179113   9.285   4.957   3.017 -1.7575  1.6198  0.6505
25653SOL    HW279114   9.246   4.812   3.033  0.9068  0.7623 -0.0348
25654SOL     OW79115   5.161   1.283   0.776  0.4084  0.0688 -0.4473
25654SOL    HW179116   5.125   1.366   0.745  0.6793 -0.2223 -1.5624
25654SOL    HW279117   5.255   1.300   0.783  0.2787  0.3761  1.0456
25655SOL     OW79118   5.009   4.570   3.350 -0.0488  0.1411  0.2369
25655SOL    HW179119   5.060   4.641   3.312  1.5770 -0.9032  0.3770
25655SOL    HW279120   4.919   4.602   3.348  0.4498  1.6083 -1.0328
25656SOL     OW79121   6.922   3.157   8.403 -0.0229  0.3976  0.0467
25656SOL    HW179122   6.953   3.157   8.493 -1.2703  3.5549  0.5946
25656SOL    HW279123   6.999   3.178   8.351  0.6619 -1.2532  0.3139
25657SOL     OW79124   0.444   1.176   1.422 -0.0029 -0.0976  0.2147
25657SOL    HW179125   0.411   1.232   1.493  0.4121  0.9862 -0.4192
25657SOL    HW279126   0.404   1.091   1.438 -1.8555  0.7407  0.3732
25658SOL     OW79127   4.872   4.817   3.039 -0.0712  0.0485 -0.2559
25658SOL    HW179128   4.810   4.820   2.966 -1.3727 -0.4530  0.7705
25658SOL    HW279129   4.939   4.755   3.012 -0.5770 -0.1968 -0.9878
25659SOL     OW79130   0.144   4.789   2.565  0.2979 -0.2908 -0.1226
25659SOL    HW179131   0.100   4.858   2.516  0.3715 -0.3632 -0.2890
25659SOL    HW279132   0.228   4.828   2.590  0.1435 -0.1523  0.1962
25660SOL     OW79133   6.300   6.805   8.128 -0.5621  0.0230 -0.8313
25660SOL    HW179134   6.359   6.804   8.204 -2.6661  2.3022  1.0212
25660SOL    HW279135   6.248   6.726   8.137 -1.1922  0.5522  0.5437
25661SOL     OW79136   0.124   2.129   9.570 -0.3415 -0.0312 -0.2064
25661SOL    HW179137   0.180   2.205   9.557  0.7677 -0.9155 -0.7740
25661SOL    HW279138   0.037   2.159   9.543  0.2401  0.7865 -1.2730
25662SOL     OW79139   6.053   0.735   5.039  0.6963  0.5299 -0.5838
25662SOL    HW179140   6.101   0.720   5.121 -1.5552  0.6245  0.8515
25662SOL    HW279141   6.010   0.652   5.021 -1.9054  1.5011  0.5619
25663SOL     OW79142   5.198   5.693   8.052  0.1211 -0.0303 -0.0326
25663SOL    HW179143   5.254   5.737   8.116  0.5869 -0.4427 -0.1601
25663SOL    HW279144   5.140   5.637   8.104 -1.7174  2.0220  0.3099
25664SOL     OW79145   9.073   6.642   7.880  0.0360  0.2267  0.5256
25664SOL    HW179146   9.081   6.737   7.891  0.4993  0.1727  0.6732
25664SOL    HW279147   9.148   6.606   7.927  0.5694 -0.1466 -0.5743
25665SOL     OW79148   5.443   4.347   9.631 -0.0839 -0.8203  0.3086
25665SOL    HW179149   5.526   4.320   9.592 -0.5427 -0.4924 -0.9660
25665SOL    HW279150   5.451   4.325   9.724  1.2234 -1.2536  0.1118
25666SOL     OW79151   6.235   6.979   7.104 -0.1327 -0.2560  0.2837
25666SOL    HW179152   6.198   7.036   7.171  1.4812  1.2519 -0.0447
25666SOL    HW279153   6.330   6.994   7.108  0.2447 -2.0538 -0.6205
25667SOL     OW79154   5.223   8.393   5.853  0.3236  0.1493 -0.0013
25667SOL    HW179155   5.225   8.353   5.766  0.3641  1.3501 -0.5580
25667SOL    HW279156   5.310   8.431   5.864 -0.0875  1.1083  0.0295
25668SOL     OW79157   1.234   7.302   9.472 -0.3271  0.2138 -0.1838
25668SOL    HW179158   1.156   7.338   9.431 -0.6272  0.6865  0.7816
25668SOL    HW279159   1.218   7.207   9.475 -1.4753  0.4092  1.1912
25669SOL     OW79160   1.535   4.976   2.749  0.2445  0.6655 -0.0369
25669SOL    HW179161   1.571   4.914   2.685 -1.8961  0.4842 -1.1831
25669SOL    HW279162   1.574   5.060   2.726  3.8672 -0.2383  2.0760
25670SOL     OW79163   8.365   5.484   1.297  0.2106  0.2949 -0.2141
25670SOL    HW179164   8.394   5.534   1.373  1.1436  1.2101 -1.1197
25670SOL    HW279165   8.270   5.485   1.302  0.2597 -0.1588  1.2330
25671SOL     OW79166   9.153   4.914   3.870 -0.2637  0.5524  0.1701
25671SOL    HW179167   9.102   4.935   3.948 -1.6687  0.3780 -0.6576
25671SOL    HW279168   9.149   4.818   3.863  1.4852  0.3958  0.9192
25672SOL     OW79169   8.234   2.489   6.080 -0.0295  0.0249  0.2182
25672SOL    HW179170   8.257   2.526   6.165  0.1705 -0.8236  0.5338
25672SOL    HW279171   8.154   2.438   6.096 -0.1336  0.0653 -0.1570
25673SOL     OW79172   2.107   8.142   0.190 -0.1657  0.1352  0.2241
25673SOL    HW179173   2.086   8.141   0.096  0.8936  1.7369 -0.0665
25673SOL    HW279174   2.034   8.188   0.230  0.0505  0.7159 -0.0292
25674SOL     OW79175   1.043   6.813   7.761 -0.1270  0.3558 -0.4430
25674SOL    HW179176   0.967   6.830   7.705 -0.1227  0.6434 -0.3629
25674SOL    HW279177   1.047   6.888   7.819 -1.0186 -0.6142  0.9325
25675SOL     OW79178   0.470   3.516   0.753  0.1757 -0.1604  0.4632
25675SOL    HW179179   0.441   3.519   0.844  1.2031  0.1644  0.7930
25675SOL    HW279180   0.390   3.499   0.703 -0.2980 -1.1092  1.4806
25676SOL     OW79181   6.512   1.759   6.109  0.7922 -0.1598  0.3753
25676SOL    HW179182   6.557   1.843   6.097  1.6065 -0.2211  2.5218
25676SOL    HW279183   6.583   1.695   6.115  0.2026 -0.9218 -0.4150
25677SOL     OW79184   4.643   5.592   0.224  0.0506  0.1524 -0.2262
25677SOL    HW179185   4.548   5.588   0.230 -0.0148 -2.6934 -1.7613
25677SOL    HW279186   4.670   5.639   0.303 -2.5893  0.9261  0.2973
25678SOL     OW79187   1.123   9.380   8.009 -0.2940  0.3719 -0.3479
25678SOL    HW179188   1.152   9.289   8.011  1.5143  0.9177  1.2829
25678SOL    HW279189   1.105   9.398   7.917  0.9310 -1.1564 -0.9237
25679SOL     OW79190   0.406   9.400   7.610  0.8657 -0.1542  0.0893
25679SOL    HW179191   0.428   9.460   7.538  0.9842 -0.8547 -0.4731
25679SOL    HW279192   0.311   9.408   7.619  0.8071 -0.2884 -0.3634
25680SOL     OW79193   7.510   0.103   4.821  0.9156  0.4421 -0.8014
25680SOL    HW179194   7.445   0.153   4.872  0.9363  0.2573 -0.5909
25680SOL    HW279195   7.463   0.076   4.742  1.0319  1.1634 -1.1242
25681SOL     OW79196   4.593   7.720   1.317 -0.1483 -0.0497  0.2486
25681SOL    HW179197   4.507   7.752   1.342  0.9167  3.8551 -0.4622
25681SOL    HW279198   4.636   7.698   1.400 -1.3303 -0.8288  0.6846
25682SOL     OW79199   9.014   9.020   3.603 -0.1852 -0.5684 -0.0500
25682SOL    HW179200   9.050   9.047   3.518 -0.7868 -0.2328 -0.2064
25682SOL    HW279201   9.086   8.974   3.646  0.7537  0.9422  0.0520
25683SOL     OW79202   1.718   0.220   6.031 -0.2001  0.8026  0.2014
25683SOL    HW179203   1.731   0.241   5.938  1.0751  1.8591  0.5915
25683SOL    HW279204   1.778   0.277   6.077 -0.0629 -0.4438  1.6398
25684SOL     OW79205   3.259   0.389   4.406 -0.1319 -0.1283  0.4811
25684SOL    HW179206   3.232   0.446   4.334 -0.1600 -0.0569  0.5476
25684SOL    HW279207   3.180   0.379   4.459 -0.1593 -0.3322  0.4008
25685SOL     OW79208   5.487   3.590   3.083  0.0867 -0.0382  0.0472
25685SOL    HW179209   5.569   3.617   3.042  0.3194 -0.8906 -0.0664
25685SOL    HW279210   5.507   3.587   3.177 -0.0769  0.6426  0.1062
25686SOL     OW79211   7.795   0.555   2.135 -0.3397 -0.4674  0.1798
25686SOL    HW179212   7.868   0.553   2.196  0.8249  1.7572 -1.0209
25686SOL    HW279213   7.720   0.580   2.188  0.2247 -0.5605  1.0435
25687SOL     OW79214   4.748   0.192   0.521  0.4953 -0.2398 -0.1637
25687SOL    HW179215   4.826   0.197   0.576 -0.0058  0.4638  0.5056
25687SOL    HW279216   4.775   0.229   0.437  1.0711 -0.6739 -0.1806
25688SOL     OW79217   7.777   0.785   0.953 -0.4796 -0.2357 -0.1052
25688SOL    HW179218   7.694   0.766   0.910 -0.3768 -0.3398 -0.2613
25688SOL    HW279219   7.836   0.808   0.882 -0.7989  1.4725  0.1395
25689SOL     OW79220   7.451   2.836   4.967  0.1836 -0.2753 -0.4454
25689SOL    HW179221   7.397   2.911   4.942  0.1260 -0.3279 -0.4778
25689SOL    HW279222   7.438   2.827   5.062  0.1268 -0.2963 -0.4556
25690SOL     OW79223   7.402   1.392   9.526 -0.2063  0.3631  0.4651
25690SOL    HW179224   7.460   1.455   9.481 -1.4900  1.1499 -0.1376
25690SOL    HW279225   7.328   1.444   9.555 -1.8188 -1.0167 -0.9491
25691SOL     OW79226   6.442   0.704   0.407  0.2901  0.4873  0.8356
25691SOL    HW179227   6.466   0.768   0.474 -0.2722  1.2947  0.2855
25691SOL    HW279228   6.396   0.635   0.454 -0.2662  1.1379  1.2637
25692SOL     OW79229   3.792   5.226   6.092 -0.6898 -0.6418 -1.0029
25692SOL    HW179230   3.824   5.218   6.002  0.0093 -2.2872 -0.6511
25692SOL    HW279231   3.760   5.139   6.114  0.5784 -0.7073  0.8416
25693SOL     OW79232   8.572   1.144   2.061 -0.1783 -0.5255  0.4107
25693SOL    HW179233   8.547   1.133   2.153  1.9765 -1.0889  0.9788
25693SOL    HW279234   8.632   1.072   2.044 -0.2413 -0.1991 -1.3440
25694SOL     OW79235   2.898   0.800   7.321 -0.0536  0.0374  0.4749
25694SOL    HW179236   2.990   0.812   7.345 -0.0222 -1.2292  1.0643
25694SOL    HW279237   2.861   0.748   7.392 -0.9857 -0.3007 -0.2355
25695SOL     OW79238   0.949   6.384   5.950 -0.2550  0.1329 -0.3669
25695SOL    HW179239   1.007   6.343   6.015  0.5366  2.1095  0.2449
25695SOL    HW279240   0.935   6.473   5.983 -2.0224  0.3541 -1.5609
25696SOL     OW79241   0.361   6.288   6.833 -0.0051 -0.3157  0.1651
25696SOL    HW179242   0.317   6.230   6.895 -1.2098 -0.4802 -0.8191
25696SOL    HW279243   0.301   6.294   6.758  1.2868  0.0852 -0.8777
25697SOL     OW79244   9.303   6.034   6.103  0.1507 -0.3397 -0.4590
25697SOL    HW179245   9.369   5.965   6.107 -1.7681 -2.2383  0.4285
25697SOL    HW279246   9.336   6.102   6.163  1.2722 -1.2360 -0.0225
25698SOL     OW79247   9.280   5.436   2.082  0.4220 -0.4316  0.7507
25698SOL    HW179248   9.231   5.365   2.123 -0.8160 -0.7219 -1.1495
25698SOL    HW279249   9.354   5.393   2.039  0.0867 -0.4865  0.2255
25699SOL     OW79250   6.609   5.039   4.359  0.0348  0.1484  0.6234
25699SOL    HW179251   6.525   5.015   4.320  0.6348  0.9417 -1.3138
25699SOL    HW279252   6.658   5.079   4.287  1.5267  1.0614  2.0717
25700SOL     OW79253   3.971   2.567   2.517  0.0250 -0.3870  0.5248
25700SOL    HW179254   4.031   2.538   2.586  0.5911  0.8875  0.5903
25700SOL    HW279255   3.931   2.646   2.552 -0.0493 -0.0041 -0.4073
25701SOL     OW79256   8.901   2.340   0.359 -0.3660  0.2312 -0.0120
25701SOL    HW179257   8.934   2.429   0.346  1.8350 -0.2466  1.5734
25701SOL    HW279258   8.976   2.292   0.393 -1.9947 -1.7716  0.9800
25702SOL     OW79259   6.755   1.987   8.771 -0.3202  0.0948  0.0512
25702SOL    HW179260   6.782   1.950   8.687  0.2564  1.7932 -0.5575
25702SOL    HW279261   6.825   1.962   8.832  0.4872  0.8646 -0.5405
25703SOL     OW79262   8.620   3.602   6.154  0.3727  0.2366  0.4910
25703SOL    HW179263   8.586   3.671   6.097 -1.4635  0.2894  1.5897
25703SOL    HW279264   8.639   3.647   6.236 -0.4460 -0.4696  1.0828
25704SOL     OW79265   3.732   7.992   9.066 -0.0271  0.3437  0.2918
25704SOL    HW179266   3.819   8.031   9.079  0.3463 -0.9113  1.8120
25704SOL    HW279267   3.672   8.066   9.074  0.8568  1.1962 -0.5237
25705SOL     OW79268   0.611   3.890   6.981 -0.1294 -0.1764 -0.3298
25705SOL    HW179269   0.697   3.849   6.969  1.6970  3.2386 -0.4645
25705SOL    HW279270   0.606   3.908   7.075 -0.4538  0.0550 -0.3887
25706SOL     OW79271   3.040   3.050   7.067  0.3579 -0.1167  0.3346
25706SOL    HW179272   3.114   3.006   7.110  0.5897 -0.1754 -0.1195
25706SOL    HW279273   2.989   2.980   7.028  0.6337  0.0015 -0.2445
25707SOL     OW79274   1.576   8.947   0.169 -1.1357 -0.2436  0.2853
25707SOL    HW179275   1.541   9.031   0.199 -0.4876 -0.1889  0.9344
25707SOL    HW279276   1.662   8.968   0.133 -0.6967 -0.7034  1.0385
25708SOL     OW79277   8.745   3.815   2.716 -0.4241 -0.0705  0.0742
25708SOL    HW179278   8.731   3.909   2.718  4.0905  0.8403  1.7930
25708SOL    HW279279   8.812   3.801   2.649 -0.2686 -1.8523  0.5288
25709SOL     OW79280   9.463   7.687   8.338 -0.4473 -0.2991  0.2244
25709SOL    HW179281   9.470   7.706   8.244 -1.0493 -0.7725  0.0738
25709SOL    HW279282   9.547   7.713   8.375 -0.6909  1.1943 -0.2145
25710SOL     OW79283   0.526   8.059   4.401 -0.0555 -0.4385 -0.3841
25710SOL    HW179284   0.559   8.145   4.430  2.7324 -1.2595 -0.8545
25710SOL    HW279285   0.545   8.056   4.308  1.1178 -2.0424 -0.1361
25711SOL     OW79286   4.002   0.066   9.179 -0.3677  0.0210 -0.3385
25711SOL    HW179287   4.031   0.026   9.097 -0.7922  0.1279 -0.5411
25711SOL    HW279288   4.081   0.068   9.233  0.0182  0.3340 -0.8949
25712SOL     OW79289   6.070   8.899   0.424  0.2924  0.3042 -0.0425
25712SOL    HW179290   6.155   8.941   0.438 -0.3429  2.1289 -1.2712
25712SOL    HW279291   6.019   8.964   0.377 -0.7928 -1.8398 -2.0568
25713SOL     OW79292   5.972   7.825   6.840  0.4724 -0.6704 -0.8745
25713SOL    HW179293   6.015   7.739   6.831 -0.2692 -0.9467 -1.8555
25713SOL    HW279294   5.905   7.811   6.907  1.8289 -0.2379  0.6683
25714SOL     OW79295   6.655   4.774   3.453  0.0205 -0.2157 -0.4566
25714SOL    HW179296   6.730   4.816   3.495  0.2176 -1.6939  0.7493
25714SOL    HW279297   6.592   4.845   3.439  1.0392  0.7773 -0.1230
25715SOL     OW79298   7.236   8.825   7.194 -0.5777 -0.0431 -0.5693
25715SOL    HW179299   7.273   8.812   7.282  0.2003 -0.8522 -1.0003
25715SOL    HW279300   7.143   8.841   7.209 -0.0406  2.5152  0.5969
25716SOL     OW79301   5.881   1.667   7.912  0.1068 -0.1824 -0.9185
25716SOL    HW179302   5.976   1.675   7.908  0.0826  0.6823 -0.1152
25716SOL    HW279303   5.851   1.683   7.823  0.6563  0.3643 -1.0084
25717SOL     OW79304   0.919   5.871   8.389  0.2720  0.7332  0.3577
25717SOL    HW179305   0.890   5.961   8.377  2.2340  1.3131 -0.4005
25717SOL    HW279306   0.898   5.827   8.306 -0.3978  0.5650  0.6128
25718SOL     OW79307   5.547   8.761   8.325  0.0549  0.0003 -0.3185
25718SOL    HW179308   5.528   8.728   8.413 -0.3337 -1.4571 -0.9284
25718SOL    HW279309   5.642   8.778   8.326  0.0137  0.2520  0.4438
25719SOL     OW79310   2.043   8.931   9.589 -0.1021 -0.0845 -0.1633
25719SOL    HW179311   2.053   9.026   9.578 -1.2172 -0.0738 -1.3249
25719SOL    HW279312   2.095   8.893   9.518  0.3303 -0.3454  0.2905
25720SOL     OW79313   9.428   6.127   4.580 -0.1199  0.0411 -0.2973
25720SOL    HW179314   9.390   6.153   4.496  3.1561 -0.4561 -2.1079
25720SOL    HW279315   9.520   6.107   4.560  0.5234 -1.3074  3.2001
25721SOL     OW79316   9.114   3.344   0.600 -0.4856  0.6613 -0.3184
25721SOL    HW179317   9.190   3.397   0.625  1.1718  0.5918 -4.4527
25721SOL    HW279318   9.138   3.255   0.625  0.4018  0.7850 -0.6851
25722SOL     OW79319   8.136   9.082   8.290 -0.0766 -0.2586 -0.2526
25722SOL    HW179320   8.052   9.058   8.329 -0.6106 -0.3214 -1.4036
25722SOL    HW279321   8.199   9.074   8.361 -1.1333  0.3665  0.7834
25723SOL     OW79322   5.410   6.497   8.686 -0.4236  0.3949  0.0570
25723SOL    HW179323   5.381   6.413   8.650  1.8900  0.5840 -2.6114
25723SOL    HW279324   5.330   6.541   8.713 -1.8647 -1.9016 -0.2002
25724SOL     OW79325   8.108   7.523   2.194 -0.2205 -0.3341 -0.2852
25724SOL    HW179326   8.145   7.570   2.269  0.3638 -0.8627 -0.2378
25724SOL    HW279327   8.023   7.565   2.180  0.9031  1.7750 -1.2044
25725SOL     OW79328   2.479   7.768   0.626 -0.9620 -0.3645 -0.6786
25725SOL    HW179329   2.466   7.858   0.656 -4.1692 -0.4937 -1.3121
25725SOL    HW279330   2.514   7.776   0.538  1.2737  0.1475  0.2050
25726SOL     OW79331   8.938   7.943   0.430  0.0316 -0.0207  0.3268
25726SOL    HW179332   8.961   7.980   0.345  0.8072 -0.5367  0.3056
25726SOL    HW279333   9.008   7.970   0.489 -0.1876 -0.1774  0.6687
25727SOL     OW79334   8.199   8.810   2.621  0.1939 -0.4222  0.0068
25727SOL    HW179335   8.183   8.752   2.695 -3.0443  0.1156 -0.1184
25727SOL    HW279336   8.163   8.764   2.546  1.4854 -0.0412 -0.8856
25728SOL     OW79337   7.234   3.874   3.254  0.1834 -0.0259  0.1475
25728SOL    HW179338   7.141   3.878   3.273  0.2829 -1.3501  1.0641
25728SOL    HW279339   7.252   3.954   3.204 -1.0912  1.1374  1.4466
25729SOL     OW79340   5.206   5.518   0.633  0.0529 -0.0275  0.2224
25729SOL    HW179341   5.124   5.494   0.590 -0.7405  0.4085  1.4424
25729SOL    HW279342   5.180   5.578   0.703  1.3489 -0.3277  1.0000
25730SOL     OW79343   5.661   3.948   5.306  0.3407  0.0269  0.6094
25730SOL    HW179344   5.698   4.033   5.329 -0.3572  0.1498  1.3068
25730SOL    HW279345   5.710   3.885   5.359 -0.0056  0.1281  1.0580
25731SOL     OW79346   4.546   5.277   2.038  0.2670  0.0658  0.3274
25731SOL    HW179347   4.532   5.313   1.951 -0.7929 -1.6487 -0.2753
25731SOL    HW279348   4.580   5.350   2.090  0.1112  1.3403 -1.2972
25732SOL     OW79349   6.701   4.148   3.866  0.2789 -0.2945  0.3436
25732SOL    HW179350   6.672   4.210   3.799 -1.6651 -1.6719 -0.1849
25732SOL    HW279351   6.703   4.199   3.946 -0.9344  0.5599 -0.1366
25733SOL     OW79352   4.602   7.126   1.207 -0.6644  0.0086  0.4922
25733SOL    HW179353   4.672   7.112   1.271 -1.1142  0.0975  1.0126
25733SOL    HW279354   4.564   7.210   1.231  1.1913  1.6230 -1.8430
25734SOL     OW79355   4.443   6.539   4.025  0.0222 -0.3805  0.3785
25734SOL    HW179356   4.488   6.462   3.991 -1.0456 -0.9718  0.2600
25734SOL    HW279357   4.366   6.504   4.071 -0.8962  0.6337 -0.3306
25735SOL     OW79358   1.728   1.536   0.104 -0.7498 -0.0823  0.0716
25735SOL    HW179359   1.703   1.497   0.188 -2.6162  0.6828 -0.0740
25735SOL    HW279360   1.672   1.613   0.096 -0.7673 -0.2522 -1.9763
25736SOL     OW79361   1.385   9.082   1.511 -0.6625  0.1154 -0.0169
25736SOL    HW179362   1.328   9.100   1.586 -2.5138  0.4111 -1.4019
25736SOL    HW279363   1.468   9.124   1.533 -0.9105 -0.4044  2.1450
25737SOL     OW79364   2.305   2.853   5.175  0.7004 -0.0975  0.0947
25737SOL    HW179365   2.353   2.775   5.202 -1.4309 -0.7973  2.1692
25737SOL    HW279366   2.319   2.916   5.246 -0.2303  0.1980  0.0291
25738SOL     OW79367   2.704   9.413   0.821 -0.3805 -0.2502 -0.0086
25738SOL    HW179368   2.649   9.482   0.783 -0.3622 -0.1116  0.2123
25738SOL    HW279369   2.789   9.423   0.777  0.0758  0.8209  1.0589
25739SOL     OW79370   0.766   7.894   3.229 -0.0115  0.3921 -0.0297
25739SOL    HW179371   0.737   7.822   3.173 -0.2581  1.9236 -2.0251
25739SOL    HW279372   0.693   7.907   3.290 -0.1496 -0.7481  0.0744
25740SOL     OW79373   6.957   1.516   2.719 -0.5631  0.4559 -0.6473
25740SOL    HW179374   6.863   1.537   2.725 -0.8620 -1.0141  0.3286
25740SOL    HW279375   6.962   1.451   2.649  0.1273  2.3585 -2.4790
25741SOL     OW79376   3.676   8.820   4.819  0.2022  0.5361 -0.1839
25741SOL    HW179377   3.712   8.865   4.743  2.2646 -0.1288  0.3288
25741SOL    HW279378   3.644   8.891   4.876  0.5953  1.1634 -0.7279
25742SOL     OW79379   1.023   1.208   2.365 -0.2149 -0.3918 -0.0949
25742SOL    HW179380   1.062   1.126   2.335 -0.6863 -0.0343 -1.7988
25742SOL    HW279381   1.082   1.238   2.434 -0.0266 -2.1325  0.5470
25743SOL     OW79382   2.855   3.631   7.104  0.6782 -0.5834  0.1646
25743SOL    HW179383   2.767   3.654   7.134  1.0245 -1.5812  2.1263
25743SOL    HW279384   2.897   3.593   7.181  2.7252 -0.4467 -0.8231
25744SOL     OW79385   7.717   2.742   8.387 -0.0828 -0.2921  0.1536
25744SOL    HW179386   7.702   2.820   8.439 -0.8156  0.0164 -0.5190
25744SOL    HW279387   7.708   2.670   8.449  0.7480  0.1445  0.8073
25745SOL     OW79388   5.405   8.638   6.501  0.3310  0.0160 -0.2816
25745SOL    HW179389   5.418   8.723   6.544 -0.8185  0.0193  0.1043
25745SOL    HW279390   5.354   8.588   6.565 -0.4579 -0.3691 -1.2071
25746SOL     OW79391   7.333   7.877   2.392  0.1863  0.1663 -0.1228
25746SOL    HW179392   7.416   7.829   2.384 -0.1835 -0.4342 -0.4376
25746SOL    HW279393   7.286   7.831   2.461 -0.0893  0.1930 -0.2909
25747SOL     OW79394   5.624   5.320   7.815  0.0111 -0.2506  0.6744
25747SOL    HW179395   5.668   5.398   7.848 -1.9309 -0.1314  3.3145
25747SOL    HW279396   5.585   5.347   7.732  0.2471  1.2607  1.0397
25748SOL     OW79397   2.066   1.856   7.180  0.9152  0.1175 -0.2676
25748SOL    HW179398   2.049   1.837   7.272  0.8761  2.2992  0.2181
25748SOL    HW279399   1.988   1.824   7.134  1.1740 -1.4885  0.3401
25749SOL     OW79400   7.211   1.401   1.308  0.2196 -0.1487 -0.6602
25749SOL    HW179401   7.288   1.383   1.361 -0.5704 -1.6931  0.0088
25749SOL    HW279402   7.197   1.496   1.318  1.6756  0.0496 -0.3388
25750SOL     OW79403   6.617   1.909   0.535  0.2633 -0.0201  0.1065
25750SOL    HW179404   6.627   2.002   0.511 -2.1201  0.0587 -0.8821
25750SOL    HW279405   6.601   1.865   0.452 -2.9367 -0.5987  0.9244
25751SOL     OW79406   9.408   1.687   5.187 -0.0194  0.3952 -0.4572
25751SOL    HW179407   9.430   1.612   5.242 -0.4497  0.5234 -0.0996
25751SOL    HW279408   9.416   1.762   5.246  0.2805  0.6154 -0.7787
25752SOL     OW79409   1.661   1.165   5.350  0.1836 -0.5054  0.0008
25752SOL    HW179410   1.596   1.221   5.391 -0.7802 -2.1492  0.7945
25752SOL    HW279411   1.707   1.124   5.423  0.0756 -1.6439 -0.5546
25753SOL     OW79412   8.641   1.585   9.297 -0.3298  0.1216 -0.4098
25753SOL    HW179413   8.557   1.542   9.312  1.0506 -2.4773  0.3059
25753SOL    HW279414   8.651   1.585   9.201 -1.3941  1.0798 -0.5480
25754SOL     OW79415   9.321   7.720   4.204  0.0143  0.3807 -0.1016
25754SOL    HW179416   9.237   7.764   4.193 -0.3440 -0.4671 -0.8922
25754SOL    HW279417   9.371   7.746   4.126 -0.2309 -0.6563 -0.6175
25755SOL     OW79418   4.566   7.805   1.688 -0.3835  0.5272  0.4782
25755SOL    HW179419   4.625   7.846   1.624 -0.2003  0.2667  0.4754
25755SOL    HW279420   4.563   7.867   1.761  0.8772 -0.0034  1.0112
25756SOL     OW79421   7.719   2.103   7.554 -0.3025  0.0592 -0.4571
25756SOL    HW179422   7.636   2.062   7.576  0.4757 -0.8113  0.9993
25756SOL    HW279423   7.750   2.141   7.636  2.1869 -2.3585 -0.1299
25757SOL     OW79424   5.383   3.346   1.499  0.2507 -0.2536 -0.4491
25757SOL    HW179425   5.466   3.330   1.455  2.1369  0.7352  2.4106
25757SOL    HW279426   5.335   3.404   1.441  2.5409  0.9637 -1.2469
25758SOL     OW79427   4.214   3.729   8.277 -0.1237  0.2184  0.2567
25758SOL    HW179428   4.211   3.825   8.277  0.7070  0.2697  1.5327
25758SOL    HW279429   4.302   3.708   8.308 -1.0828 -0.9405  2.4603
25759SOL     OW79430   7.666   1.042   9.171  0.4051 -0.0464  0.3792
25759SOL    HW179431   7.737   1.014   9.114  0.3185 -0.9908  0.7261
25759SOL    HW279432   7.709   1.071   9.251  0.3540 -2.4647  1.3745
25760SOL     OW79433   3.771   3.396   4.460  0.1191 -0.1158  0.3176
25760SOL    HW179434   3.801   3.477   4.502 -1.9514 -0.2156  2.1464
25760SOL    HW279435   3.838   3.331   4.483  0.9035  0.6666  0.2990
25761SOL     OW79436   7.311   9.244   9.240 -0.1174  0.1875  0.0541
25761SOL    HW179437   7.399   9.207   9.236 -0.1085 -0.0062  1.6668
25761SOL    HW279438   7.322   9.327   9.286 -0.8116  0.0836  0.4165
25762SOL     OW79439   8.499   4.470   3.277 -0.2411 -0.6621 -0.3492
25762SOL    HW179440   8.468   4.559   3.294 -1.9230 -1.2245 -0.3191
25762SOL    HW279441   8.592   4.480   3.256 -0.8187  1.3288 -2.2826
25763SOL     OW79442   7.215   6.169   8.543 -0.2654 -0.2164 -0.3781
25763SOL    HW179443   7.222   6.258   8.511 -1.6034 -0.6416 -1.9521
25763SOL    HW279444   7.302   6.131   8.526  0.0518  0.5257 -0.4525
25764SOL     OW79445   5.955   4.384   8.042 -0.3083 -0.2036 -0.6103
25764SOL    HW179446   5.982   4.335   7.964  1.7228 -0.1473  0.0123
25764SOL    HW279447   5.915   4.318   8.099 -0.0904 -0.6082 -0.9168
25765SOL     OW79448   3.626   0.223   5.338 -0.0702 -0.0938 -0.1395
25765SOL    HW179449   3.579   0.201   5.258 -0.3551 -0.3570  0.1004
25765SOL    HW279450   3.563   0.209   5.408 -0.5453  2.2181 -0.0192
25766SOL     OW79451   0.550   8.827   1.718 -0.1862 -0.2454 -0.3073
25766SOL    HW179452   0.615   8.801   1.653  2.8233  0.2100  2.2445
25766SOL    HW279453   0.577   8.915   1.744  0.3438 -1.2776  3.1960
25767SOL     OW79454   3.226   2.562   9.334 -0.4750 -0.1356  0.2202
25767SOL    HW179455   3.206   2.636   9.392 -0.2726  0.1197 -0.0304
25767SOL    HW279456   3.251   2.491   9.393 -0.9508 -0.0947  0.4770
25768SOL     OW79457   6.517   7.390   3.976 -0.2839 -0.0043  0.1745
25768SOL    HW179458   6.551   7.351   3.896 -1.5734  0.7110 -0.7543
25768SOL    HW279459   6.580   7.458   3.999  0.2094 -0.3675 -0.0892
25769SOL     OW79460   7.934   3.146   4.379 -0.6393 -0.3242  0.7843
25769SOL    HW179461   7.889   3.228   4.360 -1.7023 -0.5370  2.1899
25769SOL    HW279462   7.874   3.078   4.349  0.3632 -0.6264 -0.6427
25770SOL     OW79463   6.806   4.312   8.172  0.0328 -0.0680 -0.1402
25770SOL    HW179464   6.744   4.385   8.167  1.2919  1.0301 -0.3913
25770SOL    HW279465   6.792   4.274   8.258  0.7356  1.7896  0.8448
25771SOL     OW79466   2.559   8.109   6.364  0.7536  0.2775 -0.3148
25771SOL    HW179467   2.520   8.081   6.281  2.1596 -2.6612 -0.1147
25771SOL    HW279468   2.546   8.204   6.366 -1.6307  0.1098 -2.6398
25772SOL     OW79469   6.728   7.097   3.837  0.3238  0.2042  0.2890
25772SOL    HW179470   6.695   7.013   3.806  1.8920 -0.5291  0.5140
25772SOL    HW279471   6.653   7.156   3.831 -1.0666 -1.4187  0.9826
25773SOL     OW79472   2.188   9.613   7.183  0.0361 -0.0728  0.1977
25773SOL    HW179473   2.121   9.606   7.252 -0.5330 -1.7178 -0.4687
25773SOL    HW279474   2.271   9.604   7.230 -0.3292 -0.8429  0.7251
25774SOL     OW79475   8.709   7.730   5.468 -0.3306 -0.0225 -0.3515
25774SOL    HW179476   8.614   7.725   5.455 -0.2307 -0.6835 -0.8462
25774SOL    HW279477   8.743   7.757   5.383 -0.0252 -0.3226 -0.3222
25775SOL     OW79478   3.534   3.241   7.049 -0.1831 -0.6254 -0.0780
25775SOL    HW179479   3.617   3.274   7.013 -0.7322 -0.3431 -1.1289
25775SOL    HW279480   3.547   3.241   7.143  1.2474 -1.2076 -0.2559
25776SOL     OW79481   6.259   0.288   4.606 -0.1906 -0.3643  0.2649
25776SOL    HW179482   6.187   0.309   4.546  0.9881 -0.1791 -1.1557
25776SOL    HW279483   6.338   0.301   4.553  0.8877 -0.6532  1.7478
25777SOL     OW79484   3.760   3.024   2.464 -0.4300 -0.5553 -0.1714
25777SOL    HW179485   3.709   2.992   2.539  0.1290 -0.7683  0.1246
25777SOL    HW279486   3.834   2.963   2.458 -0.6033 -0.6888 -1.0536
25778SOL     OW79487   8.729   0.509   0.282 -0.4954 -0.3536 -0.1437
25778SOL    HW179488   8.785   0.584   0.305  0.8511 -1.0757 -0.9367
25778SOL    HW279489   8.671   0.499   0.358  1.3237 -0.3787  1.3399
25779SOL     OW79490   4.456   4.662   3.843 -0.7095  0.4027  0.0042
25779SOL    HW179491   4.470   4.679   3.936 -1.7911  1.9141 -0.0757
25779SOL    HW279492   4.394   4.730   3.815 -0.2401  0.1137 -1.8649
25780SOL     OW79493   4.117   7.666   1.853  0.3045 -0.4072 -0.4076
25780SOL    HW179494   4.144   7.753   1.824  0.0119 -0.4416 -0.7819
25780SOL    HW279495   4.196   7.613   1.845 -0.1342 -0.7984 -2.6349
25781SOL     OW79496   0.766   5.021   3.213 -0.4110 -0.0153  0.6272
25781SOL    HW179497   0.826   5.048   3.282  2.3146 -0.3331 -1.4444
25781SOL    HW279498   0.737   4.933   3.240 -0.9497  0.6295  2.2500
25782SOL     OW79499   8.893   1.063   2.235 -0.4234 -0.0836 -0.0935
25782SOL    HW179500   8.977   1.036   2.198  0.5884  1.8084  0.7109
25782SOL    HW279501   8.831   1.055   2.163  0.8020  0.2014 -1.2091
25783SOL     OW79502   4.567   8.583   8.049 -0.3996  0.1819 -0.0942
25783SOL    HW179503   4.502   8.612   7.985 -0.0891  0.3584 -0.3327
25783SOL    HW279504   4.526   8.508   8.092  0.5076 -1.8250 -2.4978
25784SOL     OW79505   6.615   8.141   4.781  0.1731 -0.6202  0.7967
25784SOL    HW179506   6.558   8.193   4.838 -1.3446 -0.7425 -0.5582
25784SOL    HW279507   6.557   8.103   4.716  1.9076  0.0082 -1.2454
25785SOL     OW79508   2.549   0.828   1.140  0.1843 -0.1678  0.1322
25785SOL    HW179509   2.621   0.774   1.110 -0.2368 -1.3217  1.0976
25785SOL    HW279510   2.590   0.907   1.174  0.9340 -0.4773 -0.0404
25786SOL     OW79511   4.497   4.806   3.202  0.0127  0.0792  0.7988
25786SOL    HW179512   4.566   4.865   3.234 -1.0429  0.3457  2.7745
25786SOL    HW279513   4.478   4.750   3.277  1.4439 -3.3707 -1.1828
25787SOL     OW79514   2.087   0.864   3.158 -0.1466  0.7561  0.3071
25787SOL    HW179515   1.996   0.837   3.151 -0.1351  0.9381 -0.6586
25787SOL    HW279516   2.136   0.796   3.111  0.4167 -0.2729  2.2651
25788SOL     OW79517   5.403   5.312   7.129 -0.4034 -0.4450  0.3302
25788SOL    HW179518   5.345   5.388   7.137  1.8191  1.1870  2.7227
25788SOL    HW279519   5.436   5.317   7.039 -1.4524  0.5331 -0.0291
25789SOL     OW79520   7.751   0.007   5.685 -0.0866 -0.4100  0.8375
25789SOL    HW179521   7.823  -0.052   5.707  0.4240  0.7181  2.3407
25789SOL    HW279522   7.681  -0.016   5.747 -1.4493 -2.0970 -1.1687
25790SOL     OW79523   5.270   1.035   4.547  0.0418  0.4030 -0.1365
25790SOL    HW179524   5.176   1.041   4.528  0.1671 -1.5055 -1.7158
25790SOL    HW279525   5.274   0.997   4.635 -0.7127 -0.5507 -0.4904
25791SOL     OW79526   1.992   2.558   0.508 -0.2923 -0.3209 -0.3777
25791SOL    HW179527   1.976   2.576   0.415  0.4125 -1.3140 -0.7028
25791SOL    HW279528   1.937   2.621   0.554  0.9295  1.6411 -1.4554
25792SOL     OW79529   7.961   2.280   3.441 -0.3581  0.1979 -0.2966
25792SOL    HW179530   8.000   2.364   3.465 -0.9296  0.7861 -1.3213
25792SOL    HW279531   8.025   2.239   3.384  0.0133 -0.1555  0.3769
25793SOL     OW79532   9.098   3.843   4.511  0.1765  0.4136  0.7224
25793SOL    HW179533   9.169   3.896   4.549  0.6880 -1.0845  1.9223
25793SOL    HW279534   9.142   3.767   4.473 -0.5105  0.9854 -1.3696
25794SOL     OW79535   5.343   5.133   3.507  0.0081  0.0549 -0.0376
25794SOL    HW179536   5.437   5.148   3.517 -0.0525  0.6589 -0.2852
25794SOL    HW279537   5.335   5.090   3.422  0.1558 -1.0985  0.5190
25795SOL     OW79538   5.392   5.818   7.143  0.3765  0.1392 -0.0958
25795SOL    HW179539   5.434   5.749   7.194 -1.3055 -2.4981 -1.9810
25795SOL    HW279540   5.328   5.856   7.203 -0.5163 -1.8393  0.2956
25796SOL     OW79541   3.913   5.465   6.543 -0.2334 -0.4118  0.5275
25796SOL    HW179542   3.893   5.456   6.636  1.7986  0.9347  1.1773
25796SOL    HW279543   3.951   5.553   6.536  3.2036 -1.8104 -0.8076
25797SOL     OW79544   0.055   3.651   4.000 -0.9992  0.7002 -0.1174
25797SOL    HW179545   0.003   3.667   3.921  0.2691  1.9677 -0.7417
25797SOL    HW279546   0.052   3.733   4.048 -1.1375  0.1772  0.7940
25798SOL     OW79547   7.969   6.969   6.271  0.1697 -0.4031 -0.5343
25798SOL    HW179548   7.913   6.990   6.346 -0.2728 -0.1129 -0.9380
25798SOL    HW279549   8.017   7.049   6.254  2.2868 -1.2174  1.0940
25799SOL     OW79550   5.701   7.642   6.825  0.3200  0.0533  0.0885
25799SOL    HW179551   5.695   7.642   6.921  0.8700 -0.6516  0.1361
25799SOL    HW279552   5.765   7.573   6.806  1.1675  1.0385 -0.7280
25800SOL     OW79553   1.083   3.077   4.055 -0.5062  0.1787 -0.2300
25800SOL    HW179554   1.084   3.007   4.120  0.0083  0.4397  0.0520
25800SOL    HW279555   1.053   3.154   4.103  1.1091  0.6810  0.0536
25801SOL     OW79556   3.518   3.544   4.982  0.2492 -0.5233  0.0467
25801SOL    HW179557   3.500   3.631   4.947 -0.0714 -0.4153  0.4691
25801SOL    HW279558   3.437   3.495   4.969  0.1041 -0.4607  0.6911
25802SOL     OW79559   4.531   7.028   3.485  0.6194 -0.0343  0.6655
25802SOL    HW179560   4.511   7.047   3.394  1.3395  0.5138  0.6105
25802SOL    HW279561   4.582   6.947   3.483  0.8620  0.1194  0.5516
25803SOL     OW79562   7.655   2.494   9.599 -0.2195  0.4348  0.3589
25803SOL    HW179563   7.738   2.526   9.634 -1.2717  1.7916  1.7415
25803SOL    HW279564   7.672   2.483   9.505  1.1511  1.9665  0.3697
25804SOL     OW79565   1.525   3.735   2.718 -0.9980  0.0568 -0.0003
25804SOL    HW179566   1.617   3.756   2.705 -0.3527 -1.8158  1.1124
25804SOL    HW279567   1.494   3.706   2.632  0.6760 -3.3742  0.3972
25805SOL     OW79568   9.087   7.395   7.804 -0.5613 -0.4196  0.0333
25805SOL    HW179569   9.182   7.398   7.811 -0.5863 -0.9100  0.8754
25805SOL    HW279570   9.068   7.307   7.771 -0.6915  0.0163 -1.0835
25806SOL     OW79571   0.075   5.748   2.444  0.1823 -0.7131  0.4975
25806SOL    HW179572  -0.008   5.779   2.481 -0.0601  0.0426 -0.6352
25806SOL    HW279573   0.140   5.767   2.511 -0.1857  1.0088  0.4076
25807SOL     OW79574   8.402   8.483   8.459  0.3548  0.2794 -0.2414
25807SOL    HW179575   8.461   8.553   8.487 -1.8607  1.9287  0.6611
25807SOL    HW279576   8.336   8.528   8.405  1.0834 -1.8396 -3.1630
25808SOL     OW79577   1.529   6.839   5.413 -0.6138  0.4434  0.2034
25808SOL    HW179578   1.453   6.782   5.424 -0.4655  0.1968 -0.0360
25808SOL    HW279579   1.508   6.917   5.464 -0.8120  0.1694  0.5459
25809SOL     OW79580   2.920   8.716   3.218 -0.1363  0.1512 -0.3533
25809SOL    HW179581   2.915   8.645   3.154  0.8232 -0.4048  0.1627
25809SOL    HW279582   2.831   8.724   3.253 -0.5449  0.0932 -1.3495
25810SOL     OW79583   3.238   7.216   2.227  1.0317  0.1553 -0.6136
25810SOL    HW179584   3.228   7.138   2.281  1.6065  0.3573 -0.1988
25810SOL    HW279585   3.194   7.195   2.145 -0.8910  0.2655  0.3224
25811SOL     OW79586   0.028   7.443   3.588  0.6422 -0.5461  0.1255
25811SOL    HW179587   0.107   7.494   3.610  1.3219 -1.9222  0.9838
25811SOL    HW279588   0.054   7.352   3.601 -1.2571 -1.0061  1.0071
25812SOL     OW79589   7.904   3.954   2.801 -0.3052 -0.3014  0.0532
25812SOL    HW179590   7.952   4.037   2.805 -0.7822  0.1388 -2.1122
25812SOL    HW279591   7.973   3.887   2.799  0.2366  0.2450 -1.4248
25813SOL     OW79592   5.648   2.028   9.014 -0.0537 -0.4628 -0.2658
25813SOL    HW179593   5.624   2.103   8.960  1.0145 -0.4697 -0.7762
25813SOL    HW279594   5.731   2.053   9.054 -0.8967 -0.3852  1.5504
25814SOL     OW79595   8.367   3.210   0.334 -0.5063 -0.4177 -0.0441
25814SOL    HW179596   8.403   3.256   0.410  0.7736  0.8587 -1.3604
25814SOL    HW279597   8.443   3.184   0.283 -1.2959  1.5659 -2.4666
25815SOL     OW79598   3.702   1.065   4.705  0.1127  0.2793  0.4278
25815SOL    HW179599   3.608   1.046   4.703 -0.3034  2.0428  1.2901
25815SOL    HW279600   3.744   0.979   4.703 -1.4773 -0.5298 -0.8429
25816SOL     OW79601   7.704   4.375   5.477  0.8575 -0.0964  0.5454
25816SOL    HW179602   7.629   4.415   5.432  1.3056  1.0442  0.8007
25816SOL    HW279603   7.712   4.424   5.559  2.6008  0.5893  0.0103
25817SOL     OW79604   4.219   0.262   3.032 -0.0207  0.2452 -0.4567
25817SOL    HW179605   4.309   0.294   3.018  0.6850 -2.0444 -1.6741
25817SOL    HW279606   4.192   0.303   3.114  2.4690  0.3520  0.4111
25818SOL     OW79607   7.700   1.528   7.363 -0.0887  0.0926 -0.0548
25818SOL    HW179608   7.739   1.609   7.396  0.4986 -0.6700  1.1697
25818SOL    HW279609   7.732   1.460   7.422 -2.6652 -0.6901  0.5780
25819SOL     OW79610   6.959   2.369   1.422  0.4841  0.1939  0.6732
25819SOL    HW179611   6.979   2.443   1.480  0.8141 -0.2922  1.1861
25819SOL    HW279612   7.011   2.386   1.343 -0.4673  1.2016  0.2195
25820SOL     OW79613   3.547   2.191   9.606  0.5574 -0.0124  0.2289
25820SOL    HW179614   3.569   2.186   9.513  1.1433 -1.5997  0.4177
25820SOL    HW279615   3.630   2.174   9.651  0.2979  0.8064  1.0584
25821SOL     OW79616   7.192   8.623   0.947 -0.3295 -0.2522 -0.4995
25821SOL    HW179617   7.209   8.599   1.038 -0.4383 -1.2903 -0.7403
25821SOL    HW279618   7.271   8.669   0.919  0.6250 -1.8140 -0.5001
25822SOL     OW79619   5.329   1.322   7.519  0.1355 -0.0467  0.4889
25822SOL    HW179620   5.390   1.277   7.461 -0.6063  0.4866 -0.7452
25822SOL    HW279621   5.311   1.406   7.476 -1.4205 -0.1645  0.8302
25823SOL     OW79622   1.822   1.853   9.559  0.6664  0.0167 -0.2637
25823SOL    HW179623   1.774   1.890   9.485  0.9281  0.4786 -0.2056
25823SOL    HW279624   1.877   1.925   9.590 -1.9570  1.0156  2.5894
25824SOL     OW79625   4.639   5.683   2.950 -0.0987  0.5433  0.1814
25824SOL    HW179626   4.728   5.651   2.964  0.1101  1.0005 -0.0883
25824SOL    HW279627   4.588   5.604   2.929  0.1213  0.2052  0.8852
25825SOL     OW79628   1.894   1.022   6.348  0.0724  0.0282 -0.3631
25825SOL    HW179629   1.827   1.090   6.347  0.2718  0.2207 -0.7754
25825SOL    HW279630   1.861   0.956   6.410 -0.0670  0.5523  0.1261
25826SOL     OW79631   7.054   6.009   5.214  0.0526  0.1466  0.6101
25826SOL    HW179632   7.075   5.921   5.242 -0.4487  0.8253  3.4006
25826SOL    HW279633   6.959   6.016   5.224 -0.4697 -0.0178 -2.9903
25827SOL     OW79634   0.400   4.582   4.011 -0.0861 -0.1784 -0.2605
25827SOL    HW179635   0.348   4.594   3.931 -1.5749  0.1684  0.7266
25827SOL    HW279636   0.335   4.562   4.079  1.2689 -2.0665  0.5759
25828SOL     OW79637   0.843   7.956   0.354  0.2428 -0.2944  0.3080
25828SOL    HW179638   0.907   8.026   0.346 -0.8712  0.7497  0.2883
25828SOL    HW279639   0.889   7.878   0.322  1.6741  0.2946  0.8299
25829SOL     OW79640   6.716   1.506   2.016 -0.3197 -0.2838  0.5221
25829SOL    HW179641   6.661   1.519   2.094 -0.1990 -0.1311  0.5818
25829SOL    HW279642   6.770   1.585   2.011  1.2019 -1.1982  1.5334
25830SOL     OW79643   0.064   2.551   3.711 -0.1507 -0.2210  0.3368
25830SOL    HW179644   0.105   2.588   3.789  0.2000  0.3000 -0.0868
25830SOL    HW279645   0.094   2.460   3.708  1.1627  0.2054 -0.0770
25831SOL     OW79646   6.221   9.595   1.489 -0.1665 -0.3753  0.1315
25831SOL    HW179647   6.137   9.623   1.525 -0.8399 -1.6847 -0.3510
25831SOL    HW279648   6.283   9.662   1.518 -0.9736 -0.4574  2.2376
25832SOL     OW79649   2.790   4.908   3.570 -0.5088 -0.4965 -0.8429
25832SOL    HW179650   2.845   4.976   3.609 -2.4318 -0.8249  2.9308
25832SOL    HW279651   2.851   4.838   3.549  1.0351  0.8706 -1.1253
25833SOL     OW79652   7.810   4.780   9.577  0.1561 -0.2161  0.4732
25833SOL    HW179653   7.738   4.779   9.640  0.9225 -0.3969  1.3619
25833SOL    HW279654   7.855   4.862   9.594 -1.1201  1.0163 -1.6035
25834SOL     OW79655   0.831   2.995   7.396  0.0639  0.1027  0.1900
25834SOL    HW179656   0.850   3.055   7.324  2.7245  0.0382  0.7554
25834SOL    HW279657   0.881   2.916   7.376 -1.5214 -1.0916  0.6565
25835SOL     OW79658   2.673   6.251   1.843  0.5104 -0.0052  0.6445
25835SOL    HW179659   2.768   6.240   1.847  0.6420  0.8167  0.0491
25835SOL    HW279660   2.655   6.324   1.901  0.6959  2.1843 -1.8515
25836SOL     OW79661   8.614   0.466   0.523  0.5531  0.6462  0.6032
25836SOL    HW179662   8.552   0.521   0.476 -0.1519 -1.1724 -0.7434
25836SOL    HW279663   8.582   0.466   0.614 -0.9587  0.4457  0.1128
25837SOL     OW79664   8.605   6.590   7.207  0.2014 -0.0834  0.4219
25837SOL    HW179665   8.529   6.565   7.259  0.4328  0.5196  1.0704
25837SOL    HW279666   8.626   6.512   7.156  0.0363 -0.7357  1.3245
25838SOL     OW79667   8.106   5.847   8.647  0.2694 -0.0896  0.6478
25838SOL    HW179668   8.098   5.905   8.571 -0.2024  1.1524  1.6166
25838SOL    HW279669   8.199   5.848   8.669  0.5237 -0.9762 -0.2757
25839SOL     OW79670   5.693   2.852   3.097 -0.4989 -0.0140 -0.5780
25839SOL    HW179671   5.676   2.800   3.176 -0.2163  2.7990  1.4701
25839SOL    HW279672   5.789   2.848   3.087 -0.3900  0.7668  0.0853
25840SOL     OW79673   6.144   2.631   4.776 -0.0615  0.1775 -0.0283
25840SOL    HW179674   6.111   2.692   4.710  2.1406  0.9954 -0.4286
25840SOL    HW279675   6.173   2.686   4.848  0.2945 -0.5176  0.3744
25841SOL     OW79676   7.535   3.207   6.241  0.1396 -0.7978  0.2585
25841SOL    HW179677   7.573   3.286   6.204 -0.1927 -0.5446  0.4646
25841SOL    HW279678   7.610   3.146   6.248  0.6019 -0.1561  1.0606
25842SOL     OW79679   7.868   1.844   4.355 -0.0597 -0.1912  0.5143
25842SOL    HW179680   7.802   1.877   4.294 -0.1973 -0.7468  0.3539
25842SOL    HW279681   7.826   1.848   4.441 -0.8239 -1.7943  0.2612
25843SOL     OW79682   2.868   2.363   0.996 -0.3325  0.4215 -0.4695
25843SOL    HW179683   2.927   2.291   1.017 -0.0453  0.5555 -0.8100
25843SOL    HW279684   2.924   2.440   0.990 -0.8361  0.9591  1.3435
25844SOL     OW79685   1.769   6.087   9.062  0.8717 -0.4489 -0.4340
25844SOL    HW179686   1.844   6.144   9.078  0.3998  0.5651 -1.6107
25844SOL    HW279687   1.791   6.004   9.105  2.2249  0.1450  0.0575
25845SOL     OW79688   4.090   0.768   0.983  0.3720  0.5232  0.1016
25845SOL    HW179689   4.066   0.765   0.890  0.4837  0.9049  0.0614
25845SOL    HW279690   4.093   0.676   1.009 -1.6130  0.4373  0.2370
25846SOL     OW79691   8.512   9.130   9.087 -0.4728 -0.2218 -0.5033
25846SOL    HW179692   8.508   9.036   9.073  0.1020 -0.3130 -0.0789
25846SOL    HW279693   8.593   9.158   9.045 -0.5681  0.0612 -0.5037
25847SOL     OW79694   2.949   6.191   7.957 -0.4486  0.3925  0.4876
25847SOL    HW179695   3.027   6.245   7.947 -0.7097  0.3781 -3.1325
25847SOL    HW279696   2.878   6.253   7.968 -0.2631  0.5619  0.7336
25848SOL     OW79697   8.721   7.745   9.111  0.4101  0.4741 -0.0458
25848SOL    HW179698   8.666   7.823   9.112 -1.7970 -1.0202  0.0271
25848SOL    HW279699   8.809   7.778   9.131 -0.8139  2.6408  2.2363
25849SOL     OW79700   9.402   0.942   0.697 -0.0935 -0.3428 -0.2440
25849SOL    HW179701   9.466   0.994   0.649 -0.6670 -0.4644 -1.1727
25849SOL    HW279702   9.347   0.903   0.629 -2.5081  1.4678  0.5125
25850SOL     OW79703   3.425   5.618   2.522 -0.4382 -0.0653 -0.0185
25850SOL    HW179704   3.510   5.654   2.547 -0.9450 -0.8179  3.2401
25850SOL    HW279705   3.446   5.541   2.470  0.8628 -0.0203  0.4066
25851SOL     OW79706   8.946   3.484   7.801  0.3319 -0.0200  0.8085
25851SOL    HW179707   8.860   3.508   7.837  0.6044  1.9010  0.2942
25851SOL    HW279708   8.926   3.433   7.722 -0.3974  1.7544 -0.2024
25852SOL     OW79709   4.392   5.000   9.322  0.2197 -0.2450  1.1150
25852SOL    HW179710   4.315   5.057   9.330 -0.5791 -1.2787  1.1076
25852SOL    HW279711   4.384   4.960   9.236  0.8696 -0.2304  1.0432
25853SOL     OW79712   1.286   3.385   1.201  0.4425 -0.5581  0.0834
25853SOL    HW179713   1.248   3.350   1.281 -0.5638 -2.0676 -0.9930
25853SOL    HW279714   1.244   3.470   1.189 -1.2612 -1.3922 -0.1087
25854SOL     OW79715   2.442   3.160   0.348 -0.0893  0.0488 -0.2898
25854SOL    HW179716   2.517   3.122   0.301  0.2633 -0.4600  0.6412
25854SOL    HW279717   2.373   3.094   0.340  0.9661 -1.5889  2.5369
25855SOL     OW79718   0.447   1.347   4.381 -0.0946  0.4109 -0.2547
25855SOL    HW179719   0.421   1.313   4.467  1.8498 -1.5846 -0.3581
25855SOL    HW279720   0.527   1.396   4.398  0.1643  0.2078 -0.8645
25856SOL     OW79721   7.535   7.802   0.556  0.3652 -0.0198 -0.2522
25856SOL    HW179722   7.531   7.779   0.464  2.1228 -2.3601  0.1745
25856SOL    HW279723   7.601   7.744   0.593 -0.5608  0.5634  2.5779
25857SOL     OW79724   9.479   8.618   6.798  0.0226 -0.6325 -0.1645
25857SOL    HW179725   9.455   8.660   6.715  0.0296  0.3096  0.3004
25857SOL    HW279726   9.517   8.534   6.772 -0.2693 -0.4855 -1.0985
25858SOL     OW79727   0.911   3.445   0.888  0.6634  0.1551 -0.7746
25858SOL    HW179728   0.933   3.446   0.981  2.9318  1.5644 -1.2249
25858SOL    HW279729   0.822   3.411   0.884  1.1423 -1.6717  1.7451
25859SOL     OW79730   6.853   4.621   1.752  0.3691 -0.1377  0.0604
25859SOL    HW179731   6.786   4.558   1.724 -0.9181  0.1879  2.2140
25859SOL    HW279732   6.897   4.647   1.671 -0.9566 -1.6750 -1.2060
25860SOL     OW79733   1.976   6.116   2.457  0.3086  0.0538 -0.6528
25860SOL    HW179734   2.031   6.038   2.450  1.8978  0.9578  1.0216
25860SOL    HW279735   1.891   6.088   2.423  1.1925 -2.0119 -1.3269
25861SOL     OW79736   5.888   7.199   5.272  0.5289  0.0657  0.4663
25861SOL    HW179737   5.877   7.282   5.225  0.5073 -0.5223 -0.6123
25861SOL    HW279738   5.804   7.183   5.315  0.3252  0.2909  0.1491
25862SOL     OW79739   8.982   2.607   0.430 -0.7063 -0.2599  0.3130
25862SOL    HW179740   9.055   2.666   0.446 -0.5314 -0.7946  1.5834
25862SOL    HW279741   8.917   2.661   0.385  0.8430 -0.0431 -1.7557
25863SOL     OW79742   6.720   9.108   2.557 -0.4403  0.8598 -0.2389
25863SOL    HW179743   6.687   9.185   2.603 -0.5899  0.0759  1.0413
25863SOL    HW279744   6.706   9.036   2.619 -0.5323 -0.2358 -1.4864
25864SOL     OW79745   9.303   6.526   7.251 -0.2517 -0.2036  0.6038
25864SOL    HW179746   9.350   6.606   7.226 -0.5420 -0.4364 -0.7672
25864SOL    HW279747   9.213   6.541   7.222 -0.3593 -0.9377  0.5404
25865SOL     OW79748   8.915   4.856   0.726  0.5266 -0.4395  0.6470
25865SOL    HW179749   8.958   4.924   0.778 -0.9191  0.2587  0.9538
25865SOL    HW279750   8.934   4.879   0.635  2.9439 -1.5820  0.7803
25866SOL     OW79751   8.329   7.010   4.247  0.5601 -0.2215 -0.1110
25866SOL    HW179752   8.310   7.091   4.296 -1.7872 -0.4606 -0.4919
25866SOL    HW279753   8.340   6.943   4.315  1.0158  0.1312  0.1688
25867SOL     OW79754   5.597   3.748   7.018 -0.0833  0.1606  0.1558
25867SOL    HW179755   5.533   3.683   7.046 -1.5412  1.0303 -1.0402
25867SOL    HW279756   5.558   3.832   7.042 -0.9857  0.9160 -3.4229
25868SOL     OW79757   6.574   1.836   2.080 -0.5523  0.0514  0.0507
25868SOL    HW179758   6.539   1.845   2.168  0.4078 -2.4074  0.7719
25868SOL    HW279759   6.508   1.787   2.032 -1.0481  1.3302 -0.6314
25869SOL     OW79760   2.971   5.998   9.093 -0.3882  0.6239 -0.1448
25869SOL    HW179761   2.879   6.007   9.115 -0.6287 -1.9347  0.2424
25869SOL    HW279762   2.979   6.036   9.005 -1.8415  0.7560 -0.2435
25870SOL     OW79763   8.922   8.998   8.497 -0.6369 -0.1577  0.8089
25870SOL    HW179764   8.960   9.085   8.489 -0.4950 -0.2750  0.1685
25870SOL    HW279765   8.868   8.988   8.419 -0.8484 -0.5516  1.0018
25871SOL     OW79766   1.201   9.469   1.961  0.2807  0.3684  0.4296
25871SOL    HW179767   1.142   9.452   2.035 -1.1312  0.5894 -0.5959
25871SOL    HW279768   1.198   9.564   1.949  0.8124  0.3748  0.3274
25872SOL     OW79769   4.287   1.540   1.919  0.1703  0.0660 -0.9146
25872SOL    HW179770   4.266   1.508   1.831  0.3887 -0.3028 -0.8320
25872SOL    HW279771   4.278   1.464   1.976 -1.7889  0.6906 -0.3103
25873SOL     OW79772   0.874   1.504   0.875 -0.7460 -0.2976  0.4694
25873SOL    HW179773   0.902   1.530   0.963 -0.3158  0.2572  0.1842
25873SOL    HW279774   0.805   1.566   0.852  1.4289  1.8179 -0.8762
25874SOL     OW79775   3.845   7.392   9.340 -0.3924 -0.2877 -0.0219
25874SOL    HW179776   3.851   7.365   9.431  0.1533 -2.0126 -0.5398
25874SOL    HW279777   3.800   7.320   9.296  0.5885 -0.1326 -1.3506
25875SOL     OW79778   3.598   0.536   2.045 -0.0271 -0.2504  0.1254
25875SOL    HW179779   3.677   0.505   2.090 -0.3875 -0.5635  0.5589
25875SOL    HW279780   3.605   0.631   2.047  0.4832 -0.2786 -0.1019
25876SOL     OW79781   2.640   9.344   1.796 -0.1315 -0.4710  0.6364
25876SOL    HW179782   2.671   9.383   1.878 -1.7604  0.1940  0.9670
25876SOL    HW279783   2.689   9.390   1.728  0.5163 -0.3324  1.1759
25877SOL     OW79784   1.124   3.063   5.266  0.4950 -0.0416  0.3023
25877SOL    HW179785   1.180   3.000   5.310 -0.5164 -0.6479  0.7745
25877SOL    HW279786   1.061   3.090   5.333  0.6419  1.1571 -0.0126
25878SOL     OW79787   0.216   8.651   3.413  0.4300  0.9368 -0.3505
25878SOL    HW179788   0.182   8.599   3.341 -0.4829  2.4437 -1.0468
25878SOL    HW279789   0.223   8.589   3.486 -0.4044 -0.1969 -1.1999
25879SOL     OW79790   2.028   6.940   9.515  0.2060 -0.1837 -0.3657
25879SOL    HW179791   1.992   6.916   9.600  0.0445  0.0412 -0.3671
25879SOL    HW279792   2.087   7.013   9.533 -0.4962  0.4495 -0.5455
25880SOL     OW79793   4.538   1.598   9.409  0.1714 -0.3556  0.2489
25880SOL    HW179794   4.539   1.571   9.317 -1.2686  1.4158 -0.3577
25880SOL    HW279795   4.444   1.601   9.431  0.4849 -0.2924  1.6461
25881SOL     OW79796   3.643   4.365   8.752  0.2265 -0.4575 -0.5322
25881SOL    HW179797   3.661   4.276   8.720  1.1532 -0.1089 -1.0278
25881SOL    HW279798   3.702   4.421   8.701 -0.6365  0.4954 -0.5226
25882SOL     OW79799   7.616   3.050   0.075  0.0058  0.8141 -0.1845
25882SOL    HW179800   7.665   2.997   0.138 -2.6327  1.7660  2.8731
25882SOL    HW279801   7.636   3.141   0.099  0.8628  1.2861 -2.4037
25883SOL     OW79802   1.825   9.386   2.864  0.0908  0.3250  0.5182
25883SOL    HW179803   1.753   9.323   2.870  1.7721 -1.6356  1.4113
25883SOL    HW279804   1.899   9.341   2.905  2.2775  1.5795 -1.8138
25884SOL     OW79805   0.988   7.392   0.354  0.0513  0.0289 -0.5405
25884SOL    HW179806   0.960   7.446   0.280 -0.8148  1.3326  0.6715
25884SOL    HW279807   0.907   7.367   0.398  0.5453 -0.7746 -0.0539
25885SOL     OW79808   1.725   4.872   0.939 -0.4586 -0.3204  0.4192
25885SOL    HW179809   1.817   4.865   0.913 -1.0393 -0.8248 -1.6113
25885SOL    HW279810   1.707   4.789   0.984  0.1883 -0.0026  1.3061
25886SOL     OW79811   1.520   1.862   8.546 -0.2912 -0.1325  0.3479
25886SOL    HW179812   1.608   1.839   8.578 -0.9552 -1.0136  1.6345
25886SOL    HW279813   1.476   1.777   8.535  0.0546 -0.0107 -3.6481
25887SOL     OW79814   8.246   1.492   4.688 -0.0844  0.2330 -0.0674
25887SOL    HW179815   8.208   1.438   4.620  0.9870  1.2969 -1.5732
25887SOL    HW279816   8.337   1.463   4.695 -0.3383 -0.3244  1.4322
25888SOL     OW79817   4.393   2.090   7.067 -0.1285 -0.2025  0.2381
25888SOL    HW179818   4.477   2.045   7.055  0.4226  0.6062  0.9425
25888SOL    HW279819   4.408   2.179   7.033 -1.3821 -0.6657 -1.7087
25889SOL     OW79820   4.080   1.200   9.441 -0.6019 -0.2592 -0.5501
25889SOL    HW179821   4.168   1.237   9.445 -0.6669 -0.1136 -0.4224
25889SOL    HW279822   4.030   1.263   9.389 -0.7576 -0.0706 -0.1817
25890SOL     OW79823   3.403   4.024   6.503  0.5678 -0.4029 -0.1171
25890SOL    HW179824   3.452   4.065   6.574 -2.1603  0.4481  1.4583
25890SOL    HW279825   3.365   3.946   6.543 -1.2087  0.2164 -0.4859
25891SOL     OW79826   2.063   9.109   9.153 -0.0826 -0.0582  0.0827
25891SOL    HW179827   2.070   9.154   9.237 -1.9385  0.0834  0.2007
25891SOL    HW279828   2.120   9.159   9.095 -0.1687  0.9318  0.8171
25892SOL     OW79829   8.608   1.032   9.269 -0.5432  0.3127  0.2789
25892SOL    HW179830   8.655   0.989   9.198 -0.7058 -0.2167  0.4872
25892SOL    HW279831   8.611   0.970   9.342 -1.5194  0.2799  0.3072
25893SOL     OW79832   7.656   0.663   4.584  0.1734  0.1011 -0.1232
25893SOL    HW179833   7.689   0.693   4.669  0.2429 -0.0327 -0.1022
25893SOL    HW279834   7.686   0.572   4.577 -3.2681 -1.3160  1.5093
25894SOL     OW79835   3.370   0.729   8.789 -0.0943 -0.4279 -0.7192
25894SOL    HW179836   3.336   0.733   8.700 -1.1590  1.8904 -0.2763
25894SOL    HW279837   3.403   0.817   8.806  2.0508 -1.3888  0.4743
25895SOL     OW79838   0.212   0.604   9.107  0.1068 -0.3134  0.2807
25895SOL    HW179839   0.203   0.513   9.136 -1.5775 -0.1736  0.3051
25895SOL    HW279840   0.247   0.597   9.018 -2.3882 -1.1607 -0.7221
25896SOL     OW79841   5.497   2.609   0.349  0.5705 -0.3431 -0.1076
25896SOL    HW179842   5.413   2.632   0.388  1.2872  0.0964  1.2262
25896SOL    HW279843   5.550   2.577   0.422  1.3912 -1.1601 -1.0185
25897SOL     OW79844   3.861   5.487   7.905 -0.0317  0.1795 -0.0100
25897SOL    HW179845   3.767   5.491   7.923 -0.1442  0.3071 -0.6185
25897SOL    HW279846   3.887   5.578   7.894 -0.0868  0.0827 -1.0650
25898SOL     OW79847   5.140   4.629   7.867 -0.2792 -0.6368 -0.3667
25898SOL    HW179848   5.098   4.664   7.946  1.4103  1.1325 -0.1787
25898SOL    HW279849   5.223   4.594   7.898 -0.1096 -0.9842 -1.1998
25899SOL     OW79850   1.705   5.686   4.260 -0.3499  0.2242 -1.0256
25899SOL    HW179851   1.690   5.600   4.222  0.3152 -1.0544  1.4495
25899SOL    HW279852   1.628   5.703   4.314  0.2598  0.4258 -0.1972
25900SOL     OW79853   2.946   6.145   2.200  0.0528 -0.1802 -0.0797
25900SOL    HW179854   2.873   6.096   2.238 -1.8719  0.6887 -2.4078
25900SOL    HW279855   3.009   6.078   2.175  0.3854 -0.9110  2.5069
25901SOL     OW79856   8.011   3.752   2.039  0.1469 -0.3023 -0.4524
25901SOL    HW179857   8.020   3.847   2.031 -0.1162 -0.3693 -1.7969
25901SOL    HW279858   7.992   3.737   2.131  2.0971  0.7921  0.1773
25902SOL     OW79859   2.689   2.381   7.599 -0.2858  0.4211 -0.0189
25902SOL    HW179860   2.706   2.445   7.668 -0.9405  0.6219 -0.0348
25902SOL    HW279861   2.708   2.428   7.518 -1.4570  0.8367 -0.0662
25903SOL     OW79862   6.314   8.258   8.327  0.6864 -0.3113  0.0455
25903SOL    HW179863   6.375   8.281   8.398 -0.5881 -0.9566  1.3911
25903SOL    HW279864   6.306   8.163   8.332  0.2167 -0.3136 -0.6757
25904SOL     OW79865   8.335   9.447   0.117 -0.1107  0.7359  0.2157
25904SOL    HW179866   8.258   9.491   0.081  0.0313  1.1076  0.3607
25904SOL    HW279867   8.350   9.373   0.058 -0.4795  0.7530  0.0943
25905SOL     OW79868   4.560   9.262   3.196  0.3799 -0.3424 -0.2034
25905SOL    HW179869   4.581   9.220   3.280 -2.3934 -0.0482  0.7311
25905SOL    HW279870   4.520   9.345   3.221  1.1476  0.6098 -1.9220
25906SOL     OW79871   1.682   3.719   1.241 -0.0139 -0.2641  0.0663
25906SOL    HW179872   1.666   3.629   1.211 -1.4263 -0.5792  1.5668
25906SOL    HW279873   1.767   3.715   1.285  0.4958 -0.5638 -0.9175
25907SOL     OW79874   5.785   3.074   4.929  0.3412 -0.4851  0.8597
25907SOL    HW179875   5.719   3.129   4.971  0.7439  2.5932 -2.0793
25907SOL    HW279876   5.735   3.011   4.878 -0.3092 -0.0209  0.9116
25908SOL     OW79877   2.611   0.337   3.337 -0.0677  0.0222  0.1263
25908SOL    HW179878   2.543   0.284   3.295  1.2686 -1.5225 -0.2299
25908SOL    HW279879   2.571   0.369   3.417 -0.8541 -1.9091  0.5652
25909SOL     OW79880   0.691   2.571   9.366  0.0502  0.0080  0.3638
25909SOL    HW179881   0.619   2.558   9.305  0.1243  1.6051 -0.1176
25909SOL    HW279882   0.767   2.534   9.321 -0.3799 -1.4368  0.7585
25910SOL     OW79883   4.931   1.096   8.794  0.7520  0.1327 -0.0839
25910SOL    HW179884   4.852   1.066   8.748  0.3452 -0.2893  0.8765
25910SOL    HW279885   4.915   1.189   8.809 -0.2681 -0.2509  1.4462
25911SOL     OW79886   6.683   8.321   8.943  0.0084  0.2080 -0.3933
25911SOL    HW179887   6.636   8.244   8.976 -0.8503  0.6895 -0.4469
25911SOL    HW279888   6.638   8.342   8.860 -0.0789  1.0438 -0.1375
25912SOL     OW79889   4.348   7.819   5.763 -0.6684 -0.1382  0.2378
25912SOL    HW179890   4.387   7.907   5.766 -0.6215 -0.0396 -1.8716
25912SOL    HW279891   4.261   7.830   5.800 -0.2062  0.5105  1.1823
25913SOL     OW79892   2.184   0.410   3.316  0.4168 -0.3120 -0.1075
25913SOL    HW179893   2.247   0.426   3.387  0.8693  1.7715 -0.9030
25913SOL    HW279894   2.098   0.422   3.357  0.6711  0.7850  0.1487
25914SOL     OW79895   2.515   2.437   1.940  0.5903 -0.6882  0.7312
25914SOL    HW179896   2.426   2.466   1.963 -0.6970 -2.0041 -2.0375
25914SOL    HW279897   2.556   2.514   1.901  0.0056 -0.5280  0.4191
25915SOL     OW79898   5.208   7.765   3.199  0.0197  0.2909  0.0752
25915SOL    HW179899   5.275   7.833   3.192  0.6200 -0.1372  1.2602
25915SOL    HW279900   5.257   7.683   3.189 -0.5686  0.0064 -0.5342
25916SOL     OW79901   6.765   2.898   8.574  0.2042  0.1360 -0.3083
25916SOL    HW179902   6.710   2.868   8.646  0.4839  0.3079 -0.0216
25916SOL    HW279903   6.771   2.822   8.516 -2.1271  0.7575 -1.4826
25917SOL     OW79904   5.869   4.606   7.545  0.2420 -0.0990 -0.6715
25917SOL    HW179905   5.841   4.656   7.468  1.1098  0.0313 -0.9201
25917SOL    HW279906   5.963   4.592   7.531 -0.0648 -2.3942 -0.9584
25918SOL     OW79907   3.464   3.269   2.697 -0.3398  0.3435 -0.1433
25918SOL    HW179908   3.550   3.296   2.729 -0.1928  0.2981 -0.4842
25918SOL    HW279909   3.403   3.332   2.733  0.1638  2.0537 -2.0762
25919SOL     OW79910   2.550   7.599   4.354 -0.4068 -0.2796 -0.1723
25919SOL    HW179911   2.637   7.583   4.317  0.7099  1.0878  1.6932
25919SOL    HW279912   2.541   7.533   4.423  0.5291  1.4285  1.6909
25920SOL     OW79913   5.277   2.847   5.653 -0.0273 -0.4903 -0.1384
25920SOL    HW179914   5.217   2.900   5.601  0.5368 -1.2740 -1.6702
25920SOL    HW279915   5.332   2.803   5.588  0.1353 -2.2210  1.0794
25921SOL     OW79916   2.906   1.810   1.001  0.0847 -0.3897 -0.2942
25921SOL    HW179917   2.891   1.853   1.086  0.8520 -2.1773  0.8129
25921SOL    HW279918   2.834   1.747   0.993  0.2627 -0.5387 -0.7480
25922SOL     OW79919   1.690   5.955   1.692  0.1668 -0.1984 -0.0573
25922SOL    HW179920   1.673   5.941   1.785  1.5812  0.6184  0.3697
25922SOL    HW279921   1.728   6.043   1.689 -0.3190 -0.0244 -1.4765
25923SOL     OW79922   2.843   1.917   7.721 -0.2819 -0.2284 -0.2843
25923SOL    HW179923   2.898   1.990   7.691 -0.2542 -0.5238 -0.9717
25923SOL    HW279924   2.904   1.857   7.765 -0.4623  0.6273  1.1931
25924SOL     OW79925   7.255   5.675   4.449  0.1808 -0.4724  0.0084
25924SOL    HW179926   7.277   5.673   4.356  2.3607  0.4479  0.4443
25924SOL    HW279927   7.203   5.755   4.459 -0.3305 -0.7416 -0.4647
25925SOL     OW79928   3.843   5.156   1.649 -0.0361 -0.0336 -0.3298
25925SOL    HW179929   3.880   5.077   1.690  1.5307  0.1640 -1.2907
25925SOL    HW279930   3.812   5.126   1.564  0.8920  0.4348 -0.8457
25926SOL     OW79931   5.836   3.004   9.347  0.6200 -0.9123  0.7689
25926SOL    HW179932   5.902   3.066   9.318 -1.8488  1.0580 -1.1268
25926SOL    HW279933   5.826   2.944   9.274 -1.4296  0.4395 -0.1642
25927SOL     OW79934   0.247   4.448   7.858  0.3975  0.6811  0.2491
25927SOL    HW179935   0.197   4.529   7.868 -1.7498 -0.5580  0.2805
25927SOL    HW279936   0.248   4.432   7.764 -1.4305 -0.4736  0.3582
25928SOL     OW79937   4.330   5.644   8.833 -0.2005  0.8219 -0.1739
25928SOL    HW179938   4.348   5.678   8.745 -1.3833 -2.1157 -1.6933
25928SOL    HW279939   4.416   5.628   8.871  0.3251  2.0303 -0.7976
25929SOL     OW79940   6.831   6.855   9.216 -0.0359 -0.2904 -0.3363
25929SOL    HW179941   6.770   6.925   9.191  0.5374  0.2321 -0.2854
25929SOL    HW279942   6.819   6.845   9.310  1.0398  0.8701 -0.0604
25930SOL     OW79943   3.122   7.976   1.493 -0.8503  0.4436 -0.2333
25930SOL    HW179944   3.214   7.956   1.513 -0.5724  0.4901 -1.4293
25930SOL    HW279945   3.125   8.025   1.411 -2.0269 -0.4529 -0.8312
25931SOL     OW79946   1.085   9.628   0.955  0.4750  0.0055  0.0720
25931SOL    HW179947   1.176   9.649   0.936  0.0150 -0.0172 -2.4734
25931SOL    HW279948   1.042   9.625   0.869 -1.4964 -2.0067  1.0270
25932SOL     OW79949   6.212   8.854   5.331 -0.3773  0.1454 -0.0711
25932SOL    HW179950   6.210   8.758   5.330 -0.1224  0.1420 -1.2199
25932SOL    HW279951   6.255   8.878   5.249  0.2288  1.2333  0.5467
25933SOL     OW79952   1.451   4.987   8.451  0.2053 -0.3670 -0.3268
25933SOL    HW179953   1.470   5.047   8.378 -1.5129  0.6246 -0.0131
25933SOL    HW279954   1.431   4.904   8.409 -0.6417  0.1591 -1.0014
25934SOL     OW79955   9.207   3.518   5.340 -0.1303 -0.5641 -0.6916
25934SOL    HW179956   9.180   3.607   5.317  0.4684  0.3209  1.7281
25934SOL    HW279957   9.301   3.516   5.320  0.5303  0.4059  1.8375
25935SOL     OW79958   7.041   8.494   6.196 -0.4138  0.4702  0.0792
25935SOL    HW179959   7.023   8.559   6.128  0.4308  0.7029  0.0685
25935SOL    HW279960   6.954   8.469   6.229 -0.7462  1.8134  0.2846
25936SOL     OW79961   4.845   1.845   9.516  0.0238 -0.3764 -0.1326
25936SOL    HW179962   4.917   1.891   9.559  0.3483 -0.2859 -0.7625
25936SOL    HW279963   4.886   1.801   9.441 -0.3861 -1.2141  0.1317
25937SOL     OW79964   4.697   1.626   2.328 -0.1425  0.0099  0.0040
25937SOL    HW179965   4.750   1.680   2.269 -1.3937  1.3866  0.0754
25937SOL    HW279966   4.761   1.569   2.372  1.5318  2.6135  1.2006
25938SOL     OW79967   2.521   3.496   6.985  0.2639  0.1215  0.3573
25938SOL    HW179968   2.549   3.510   6.894 -0.5261  1.3893  0.2877
25938SOL    HW279969   2.426   3.509   6.984  0.1981 -0.1782  1.3062
25939SOL     OW79970   2.628   5.526   6.236 -0.0409 -0.1862  0.6058
25939SOL    HW179971   2.576   5.570   6.169 -1.5656 -2.0994  0.4397
25939SOL    HW279972   2.706   5.495   6.190  1.0109  2.1376  0.7053
25940SOL     OW79973   1.839   1.702   4.506  0.4246 -0.3004  0.2560
25940SOL    HW179974   1.805   1.635   4.566  1.0040 -0.2246  0.6828
25940SOL    HW279975   1.781   1.699   4.430  0.4765 -1.3161  0.2547
25941SOL     OW79976   1.485   2.174   8.809  0.1822  0.2926  0.1398
25941SOL    HW179977   1.418   2.192   8.743 -2.4817  1.1374  2.8515
25941SOL    HW279978   1.472   2.242   8.875  3.8481  0.5099  0.8205
25942SOL     OW79979   1.278   1.055   7.868 -0.4648 -0.4319 -0.0511
25942SOL    HW179980   1.258   1.032   7.777 -0.1339 -1.4469  0.1156
25942SOL    HW279981   1.244   0.981   7.919 -0.8605  0.2334  0.6798
25943SOL     OW79982   9.384   1.370   7.856  0.0724 -0.1652 -0.0755
25943SOL    HW179983   9.397   1.292   7.909  3.6132  0.2212 -0.1371
25943SOL    HW279984   9.424   1.349   7.771 -3.0602  0.1844 -1.8056
25944SOL     OW79985   9.278   2.824   6.911 -0.1258  0.4953  0.2628
25944SOL    HW179986   9.269   2.861   6.999 -0.3159 -0.0846  0.4864
25944SOL    HW279987   9.326   2.891   6.862 -1.2786  1.4589  0.4038
25945SOL     OW79988   8.416   5.383   4.334 -0.2054 -0.4211 -0.1456
25945SOL    HW179989   8.397   5.328   4.257  2.0119  0.0807 -1.1101
25945SOL    HW279990   8.474   5.451   4.301  0.3661  0.1280  1.8881
25946SOL     OW79991   5.760   6.290   1.708 -0.1368 -0.2328  0.3326
25946SOL    HW179992   5.721   6.327   1.629 -0.0294 -0.1383  0.3247
25946SOL    HW279993   5.748   6.357   1.775  0.7394  0.1318  0.1323
25947SOL     OW79994   4.970   9.473   7.520 -0.7235 -0.1492  0.2440
25947SOL    HW179995   5.058   9.437   7.512 -0.4070  0.9407 -2.1342
25947SOL    HW279996   4.921   9.434   7.448 -2.0572 -0.3301  1.2148
25948SOL     OW79997   7.166   7.477   7.289  0.4027  0.4524  0.1710
25948SOL    HW179998   7.173   7.511   7.200 -0.6303  0.0432 -0.0837
25948SOL    HW279999   7.225   7.531   7.341 -0.8239  2.3152 -0.3002
25949SOL     OW80000   1.919   0.938   8.380 -0.1290  0.0231  0.1285
25949SOL    HW180001   1.832   0.956   8.417  0.3789  0.8884  0.9717
25949SOL    HW280002   1.912   0.851   8.343 -1.6427  0.4748 -0.7082
25950SOL     OW80003   4.953   4.064   4.367 -0.3564 -0.0567  0.8855
25950SOL    HW180004   4.981   4.036   4.454 -0.0815 -2.5382  0.0832
25950SOL    HW280005   4.888   3.999   4.340 -1.1835  1.2244 -0.3995
25951SOL     OW80006   9.411   8.480   8.592 -0.1539 -0.0724 -0.1475
25951SOL    HW180007   9.407   8.515   8.503 -0.4236 -0.1854 -0.1813
25951SOL    HW280008   9.321   8.453   8.612 -0.2906  0.8417  0.5290
25952SOL     OW80009   4.100   5.330   7.869 -0.2675 -0.3100  0.0228
25952SOL    HW180010   4.153   5.394   7.916 -0.6831  0.6374 -0.7551
25952SOL    HW280011   4.017   5.375   7.853 -1.2041 -1.6395  0.9239
25953SOL     OW80012   3.536   2.583   8.225 -0.3278 -0.2501 -0.0734
25953SOL    HW180013   3.624   2.580   8.261 -0.0735  0.3062 -0.6299
25953SOL    HW280014   3.491   2.651   8.277 -0.1949  0.0103 -0.2993
25954SOL     OW80015   9.232   4.420   6.825 -0.0148 -0.0251  0.0929
25954SOL    HW180016   9.304   4.398   6.767  0.2094 -2.0343  1.0468
25954SOL    HW280017   9.154   4.384   6.782 -0.1272  0.1626  0.1353
25955SOL     OW80018   8.050   1.612   8.761  0.3243 -0.1342 -0.5123
25955SOL    HW180019   8.069   1.693   8.807 -1.4838  0.5511 -0.8856
25955SOL    HW280020   7.999   1.639   8.685 -0.5569 -1.6320 -0.4951
25956SOL     OW80021   4.734   6.171   0.831  0.1707 -0.1054  0.2183
25956SOL    HW180022   4.827   6.172   0.810 -0.1904  0.5120 -1.5011
25956SOL    HW280023   4.729   6.206   0.920  1.5955 -0.4755  0.4687
25957SOL     OW80024   6.971   4.794   2.039  0.6648  0.8085 -0.0605
25957SOL    HW180025   7.055   4.748   2.033  0.2213  0.0911 -0.9804
25957SOL    HW280026   6.967   4.847   1.959 -0.2904 -0.1033 -0.6410
25958SOL     OW80027   1.669   7.696   0.554 -0.4085 -0.5379 -0.1966
25958SOL    HW180028   1.738   7.760   0.534  0.2176 -1.3139 -0.5479
25958SOL    HW280029   1.714   7.612   0.558 -1.1368 -0.8950  0.8597
25959SOL     OW80030   0.982   1.941   8.849 -0.1282  0.1508  0.3351
25959SOL    HW180031   0.891   1.966   8.834  0.6718  2.4095 -1.3882
25959SOL    HW280032   0.982   1.845   8.842 -2.3273  0.1094  0.2893
25960SOL     OW80033   7.439   9.059   0.079 -0.0429 -0.1947 -0.4384
25960SOL    HW180034   7.430   9.117   0.004 -0.1745  0.3109 -0.0406
25960SOL    HW280035   7.529   9.028   0.074 -0.4344 -1.1984 -1.5291
25961SOL     OW80036   8.697   7.152   7.510 -0.3612 -0.6345  0.5740
25961SOL    HW180037   8.666   7.122   7.595 -2.3531  0.3236  0.2322
25961SOL    HW280038   8.621   7.145   7.452 -0.0104  1.7871 -0.3221
25962SOL     OW80039   2.590   8.634   8.286  0.3711 -0.2066 -0.1504
25962SOL    HW180040   2.595   8.543   8.258  0.9509 -0.2143 -0.0476
25962SOL    HW280041   2.519   8.636   8.349 -2.4616  0.2409 -3.1038
25963SOL     OW80042   0.170   4.693   0.850  0.7309  0.7143 -0.2282
25963SOL    HW180043   0.207   4.639   0.780  0.5446  0.2611  0.0205
25963SOL    HW280044   0.232   4.685   0.922  0.3263  0.2186  0.0730
25964SOL     OW80045   2.989   0.577   7.897  0.1495  0.7313 -0.3065
25964SOL    HW180046   2.944   0.649   7.940  0.0997  0.5769 -0.0999
25964SOL    HW280047   3.082   0.595   7.912  0.1255 -0.7672  2.3060
25965SOL     OW80048   1.985   6.066   4.434 -0.3779 -0.3828 -0.3529
25965SOL    HW180049   1.995   5.971   4.442 -2.3389 -0.7749 -1.7641
25965SOL    HW280050   1.916   6.088   4.496  0.0980  0.1441 -0.0038
25966SOL     OW80051   8.456   4.053   2.742  0.3323  1.0574  0.6856
25966SOL    HW180052   8.370   4.064   2.783  0.2068  2.9196  0.0225
25966SOL    HW280053   8.446   4.093   2.656  1.3017 -0.5810 -0.2260
25967SOL     OW80054   1.271   5.267   5.914  0.5371  0.5287  0.0238
25967SOL    HW180055   1.206   5.337   5.903  2.2330  2.0601 -0.7559
25967SOL    HW280056   1.291   5.269   6.008 -1.1758 -0.6115  0.4609
25968SOL     OW80057   8.501   6.075   5.656 -0.1256 -0.0604  0.0172
25968SOL    HW180058   8.585   6.113   5.632 -0.2504 -0.4356 -1.1072
25968SOL    HW280059   8.438   6.120   5.599 -0.4768 -0.8233 -0.2126
25969SOL     OW80060   8.228   7.125   2.478 -0.3408 -0.0276  0.3930
25969SOL    HW180061   8.156   7.174   2.438 -0.1067 -0.6978 -0.9215
25969SOL    HW280062   8.201   7.033   2.471  0.2590 -0.2292  0.6805
25970SOL     OW80063   0.181   4.063   1.647 -0.5407  0.7365  0.0796
25970SOL    HW180064   0.276   4.070   1.643 -0.0912 -3.2115 -0.3371
25970SOL    HW280065   0.160   3.994   1.584 -3.7700  1.6787 -0.0456
25971SOL     OW80066   6.847   5.519   0.488  0.0941 -0.2142  0.2341
25971SOL    HW180067   6.786   5.583   0.450 -0.5582 -1.8525 -1.6673
25971SOL    HW280068   6.820   5.512   0.580 -1.8471 -0.0126 -0.2768
25972SOL     OW80069   5.933   0.139   4.675  0.1842 -0.2729 -0.6390
25972SOL    HW180070   6.028   0.127   4.681  0.2850  0.7493 -0.0498
25972SOL    HW280071   5.923   0.228   4.639 -0.5542  0.0649  0.3868
25973SOL     OW80072   6.696   8.628   6.663 -0.1571 -0.1067  0.4108
25973SOL    HW180073   6.689   8.606   6.756  3.2555  1.8318  1.3085
25973SOL    HW280074   6.633   8.698   6.650  0.3967  0.6815  1.7311
25974SOL     OW80075   3.858   4.675   4.350  0.2188 -0.0927  0.7323
25974SOL    HW180076   3.835   4.708   4.437  1.0987 -0.9381  1.2949
25974SOL    HW280077   3.800   4.600   4.336 -0.3767  0.4279  0.2913
25975SOL     OW80078   0.156   4.574   7.285 -0.7152  1.1066 -0.0611
25975SOL    HW180079   0.193   4.628   7.355 -0.5449  1.2006 -0.2236
25975SOL    HW280080   0.232   4.543   7.236 -0.8920  1.9533 -0.8801
25976SOL     OW80081   3.291   1.241   2.139  0.3387 -0.0098 -0.5315
25976SOL    HW180082   3.227   1.217   2.073 -0.2483 -0.2683  0.1186
25976SOL    HW280083   3.292   1.337   2.137  0.7438 -0.0211 -1.2970
25977SOL     OW80084   0.839   8.741   1.727  0.1136 -0.7906  0.0072
25977SOL    HW180085   0.811   8.656   1.695 -1.7473 -0.7475  1.3190
25977SOL    HW280086   0.888   8.722   1.807 -1.5469 -0.6486  1.1233
25978SOL     OW80087   0.249   2.345   5.070  0.8572 -0.9335 -0.2283
25978SOL    HW180088   0.216   2.347   5.160 -1.1432  0.4508 -0.9085
25978SOL    HW280089   0.232   2.433   5.037  0.8563 -1.6345 -2.1979
25979SOL     OW80090   3.469   9.120   5.233 -0.1527 -0.4657  0.1970
25979SOL    HW180091   3.539   9.103   5.296 -0.5065  1.5198  1.2131
25979SOL    HW280092   3.390   9.128   5.287 -0.4923  1.1097 -0.4996
25980SOL     OW80093   5.208   5.593   5.108 -0.1357 -0.2517  0.6196
25980SOL    HW180094   5.120   5.576   5.140  0.2252 -2.2505  0.6602
25980SOL    HW280095   5.230   5.516   5.055  1.6448  0.1295  0.7525
25981SOL     OW80096   5.862   8.852   4.336  0.6066 -0.1352 -0.7627
25981SOL    HW180097   5.855   8.762   4.304  1.0874 -0.0231 -1.1944
25981SOL    HW280098   5.786   8.862   4.394  0.6120 -0.8545 -0.6123
25982SOL     OW80099   3.565   1.926   8.529 -0.7988  0.0670  0.4133
25982SOL    HW180100   3.484   1.875   8.524 -0.3276 -0.5921 -0.8471
25982SOL    HW280101   3.631   1.872   8.485 -0.2308  1.6833 -0.8108
25983SOL     OW80102   4.059   7.739   8.178  0.1216 -1.2323  0.1276
25983SOL    HW180103   4.074   7.781   8.263 -0.8758  1.2534 -0.8240
25983SOL    HW280104   4.106   7.656   8.183  1.5380 -0.3758  2.4594
25984SOL     OW80105   2.913   5.290   9.421 -0.3654  0.3814 -0.2615
25984SOL    HW180106   2.949   5.215   9.467  1.4221  0.6817 -1.1006
25984SOL    HW280107   2.828   5.305   9.463 -1.4466 -2.9440 -1.0183
25985SOL     OW80108   3.651   2.287   3.784  0.0287  0.0484 -0.2605
25985SOL    HW180109   3.570   2.250   3.821  0.7840 -0.2278  1.1944
25985SOL    HW280110   3.633   2.381   3.778 -0.2346  0.0647  0.5547
25986SOL     OW80111   8.258   9.272   0.375 -0.4991 -0.0979 -0.0278
25986SOL    HW180112   8.346   9.272   0.336  0.0085  0.1835  1.0648
25986SOL    HW280113   8.233   9.180   0.375 -0.0499 -0.2259 -0.0223
25987SOL     OW80114   8.154   5.319   5.488 -0.4919  0.1445 -0.2921
25987SOL    HW180115   8.141   5.377   5.564  0.5302  0.0171 -0.0113
25987SOL    HW280116   8.191   5.239   5.525 -0.8392 -0.2692 -0.8246
25988SOL     OW80117   7.770   1.340   3.545  0.2461  0.0684 -0.1981
25988SOL    HW180118   7.699   1.332   3.609  0.1774  0.1278 -0.2676
25988SOL    HW280119   7.769   1.257   3.497 -1.2720  0.9356 -1.7565
25989SOL     OW80120   2.221   6.504   5.579 -0.1470 -0.4512  0.5842
25989SOL    HW180121   2.127   6.523   5.583  0.1834  1.2955  1.1711
25989SOL    HW280122   2.262   6.591   5.577  1.4219 -1.1781 -0.8031
25990SOL     OW80123   7.852   8.164   0.661 -0.4531  0.5013 -0.3034
25990SOL    HW180124   7.787   8.223   0.623 -0.2049  1.7434  1.1302
25990SOL    HW280125   7.801   8.103   0.715 -0.5288  0.8481  0.0223
25991SOL     OW80126   2.842   8.377   1.456 -0.2873 -0.1644  0.2849
25991SOL    HW180127   2.884   8.415   1.534  0.0084 -1.0942  0.5871
25991SOL    HW280128   2.779   8.444   1.428  1.2489  1.2099 -0.0728
25992SOL     OW80129   7.274   6.434   8.753  1.0030  0.8227  0.6819
25992SOL    HW180130   7.349   6.447   8.694  0.5017 -1.0060 -0.4239
25992SOL    HW280131   7.298   6.359   8.806 -0.3313 -0.2974 -0.2367
25993SOL     OW80132   0.464   1.128   3.068  0.6491 -0.1625 -0.2962
25993SOL    HW180133   0.488   1.053   3.121  2.3759  0.2663 -0.4075
25993SOL    HW280134   0.371   1.115   3.047  0.4301 -1.2720  1.2458
25994SOL     OW80135   2.675   4.046   3.233  0.4610 -0.4267  0.4782
25994SOL    HW180136   2.759   4.071   3.192 -0.5521  1.7639 -0.4467
25994SOL    HW280137   2.700   3.999   3.312  2.5586 -0.4913 -0.1541
25995SOL     OW80138   5.550   7.027   0.702 -0.3186 -0.0182 -0.0549
25995SOL    HW180139   5.563   7.090   0.772  0.3731 -1.1311  0.8463
25995SOL    HW280140   5.459   7.040   0.675 -0.0749  1.6122 -0.1704
25996SOL     OW80141   9.244   6.016   2.087 -0.1376 -0.1983 -0.1063
25996SOL    HW180142   9.260   5.959   2.011 -0.3606  0.4854 -0.6748
25996SOL    HW280143   9.151   6.004   2.105  0.0791 -0.9684  0.5724
25997SOL     OW80144   2.200   6.186   2.801 -0.5513 -0.0958  0.2799
25997SOL    HW180145   2.228   6.271   2.835 -0.5156  0.0484 -0.1010
25997SOL    HW280146   2.223   6.124   2.869 -1.4725  0.3204  1.0012
25998SOL     OW80147   3.073   8.819   0.801 -0.2934 -0.7306 -0.0385
25998SOL    HW180148   3.023   8.809   0.882 -1.1106 -1.7242 -0.6400
25998SOL    HW280149   3.076   8.913   0.786 -3.0193 -0.6659 -0.5784
25999SOL     OW80150   6.533   1.352   6.753 -0.0327 -0.2509  0.2991
25999SOL    HW180151   6.482   1.430   6.773 -0.1482  0.0503 -1.0576
25999SOL    HW280152   6.622   1.372   6.782 -0.0273  0.4702 -0.1944
26000SOL     OW80153   0.168   8.597   8.872 -0.1096 -1.0457 -0.3174
26000SOL    HW180154   0.148   8.666   8.809 -1.0217  0.7797  1.8176
26000SOL    HW280155   0.259   8.572   8.854 -0.1036 -0.0204 -1.8052
26001SOL     OW80156   2.396   0.154   7.573  0.7645 -0.5905  0.1624
26001SOL    HW180157   2.412   0.186   7.484  2.7531 -1.9867 -0.0514
26001SOL    HW280158   2.357   0.228   7.619  0.0462  0.2810 -1.7540
26002SOL     OW80159   2.778   2.551   7.414  0.2353 -0.3446  0.5097
26002SOL    HW180160   2.716   2.610   7.456 -0.0645 -1.1681  1.2488
26002SOL    HW280161   2.793   2.590   7.328  0.4123  1.0589  1.1500
26003SOL     OW80162   1.067   3.229   2.164 -0.2010  0.4577 -0.3726
26003SOL    HW180163   1.039   3.213   2.255 -0.5558 -1.8361 -0.8169
26003SOL    HW280164   1.110   3.314   2.167  1.2733 -0.2575  2.2940
26004SOL     OW80165   7.960   7.379   8.736 -0.1680 -0.4331  0.3666
26004SOL    HW180166   8.038   7.410   8.691 -1.6425  0.8711 -1.5006
26004SOL    HW280167   7.987   7.364   8.826  2.3081 -0.5058 -0.3227
26005SOL     OW80168   3.476   9.019   6.097  0.6075  0.3395  0.1571
26005SOL    HW180169   3.500   9.092   6.040  1.7373 -1.1450 -1.3611
26005SOL    HW280170   3.539   8.950   6.076 -0.7873 -1.3086  1.0778
26006SOL     OW80171   3.756   4.780   8.302 -0.2376  0.4947 -0.5274
26006SOL    HW180172   3.752   4.747   8.391  0.6876  2.2953  0.2307
26006SOL    HW280173   3.787   4.706   8.250 -1.2868 -0.7336  0.5265
26007SOL     OW80174   7.982   3.151   7.012 -0.1290  0.6663 -0.3660
26007SOL    HW180175   8.025   3.234   7.033 -1.6361  0.9902  1.7566
26007SOL    HW280176   8.053   3.090   6.995  1.0161  2.4315 -2.3043
26008SOL     OW80177   6.382   4.610   0.956  0.2380 -0.1840 -0.7573
26008SOL    HW180178   6.478   4.610   0.954  0.3377 -1.8074  1.2366
26008SOL    HW280179   6.360   4.684   1.012  0.2941  0.1944 -1.2222
26009SOL     OW80180   0.358   7.207   0.825 -0.4712 -0.0229 -0.9186
26009SOL    HW180181   0.310   7.289   0.838 -0.6792 -0.2121 -0.4389
26009SOL    HW280182   0.319   7.147   0.888  0.4028 -0.1777 -0.5046
26010SOL     OW80183   5.115   3.855   5.106  0.3336  0.4263 -0.5690
26010SOL    HW180184   5.131   3.760   5.105  0.5479  0.4530 -0.1273
26010SOL    HW280185   5.056   3.870   5.033 -1.6381 -0.4112  0.7550
26011SOL     OW80186   0.224   8.965   0.291 -0.2035 -0.1503 -0.2901
26011SOL    HW180187   0.185   9.051   0.279 -1.0862 -0.2675  1.4220
26011SOL    HW280188   0.211   8.920   0.207 -1.3749  0.7390 -0.6028
26012SOL     OW80189   7.428   0.434   2.001  0.3932 -0.3728 -0.1651
26012SOL    HW180190   7.455   0.364   2.060  0.3403 -0.7670 -0.5991
26012SOL    HW280191   7.406   0.508   2.058 -0.1280 -0.9060  0.3260
26013SOL     OW80192   3.501   5.922   8.146  0.6061 -0.4024 -0.3433
26013SOL    HW180193   3.408   5.910   8.127  1.1180 -1.8551 -2.3645
26013SOL    HW280194   3.533   5.833   8.165  1.3039  0.2926  1.9889
26014SOL     OW80195   6.607   1.205   6.518  0.1159  0.6434  0.4653
26014SOL    HW180196   6.662   1.276   6.486 -1.7155  1.3599 -1.2686
26014SOL    HW280197   6.610   1.213   6.614 -0.3493  3.3117  0.3288
26015SOL     OW80198   0.587   2.612   4.682  0.4488  0.3438  0.0271
26015SOL    HW180199   0.579   2.595   4.776 -1.6495  0.4234 -0.0841
26015SOL    HW280200   0.563   2.704   4.673  0.1171  0.1949 -0.6381
26016SOL     OW80201   3.798   7.888   8.641  0.3877  0.0928 -0.2967
26016SOL    HW180202   3.715   7.855   8.674 -0.9261  0.7540 -2.6364
26016SOL    HW280203   3.859   7.815   8.650 -1.0725 -1.2241 -0.6287
26017SOL     OW80204   5.990   5.462   9.037 -0.4746 -0.3149 -0.3761
26017SOL    HW180205   5.944   5.379   9.032  1.8523 -1.7320  0.2252
26017SOL    HW280206   5.944   5.519   8.976 -2.9665 -1.5787  0.2050
26018SOL     OW80207   6.070   6.253   0.272  0.3815  0.5411 -0.0791
26018SOL    HW180208   6.096   6.179   0.217 -1.0325 -0.5814  0.7300
26018SOL    HW280209   6.145   6.313   0.266  1.7988 -1.1567 -0.3311
26019SOL     OW80210   5.641   2.591   3.672 -0.5531  0.2355 -0.1118
26019SOL    HW180211   5.664   2.554   3.587 -0.6846 -0.5155  0.1774
26019SOL    HW280212   5.708   2.557   3.732  0.6255  2.1769 -0.2163
26020SOL     OW80213   1.096   4.169   4.030 -0.1001  0.1136 -0.1621
26020SOL    HW180214   1.023   4.132   4.080 -1.5282 -0.7782 -2.7040
26020SOL    HW280215   1.083   4.264   4.036  0.8343  0.1508  2.5234
26021SOL     OW80216   0.096   3.021   5.175 -0.7677 -0.0246 -0.0182
26021SOL    HW180217   0.014   3.005   5.129 -1.8573  0.8330  1.5343
26021SOL    HW280218   0.140   3.088   5.123 -0.3254 -1.5314 -1.6620
26022SOL     OW80219   4.405   1.425   7.023  0.1852  0.0145  0.7327
26022SOL    HW180220   4.445   1.390   7.103  0.1747  0.3672  0.8934
26022SOL    HW280221   4.475   1.476   6.982 -0.3535  1.3588  1.4604
26023SOL     OW80222   7.882   5.850   1.018  0.3396  0.3882  0.5092
26023SOL    HW180223   7.853   5.942   1.014  0.6370  0.4876  0.6208
26023SOL    HW280224   7.977   5.855   1.020  0.3461  0.0953  1.0943
26024SOL     OW80225   9.234   9.240   5.096  0.8501 -0.3346  0.9442
26024SOL    HW180226   9.243   9.333   5.076 -2.1019 -0.0240  0.5438
26024SOL    HW280227   9.245   9.196   5.012  1.7302 -0.3145  1.0428
26025SOL     OW80228   0.414   0.647   6.287  0.1323 -0.0259 -0.2095
26025SOL    HW180229   0.500   0.607   6.290 -0.7564 -2.1961  3.5563
26025SOL    HW280230   0.427   0.737   6.320  0.9889 -0.3639  0.3991
26026SOL     OW80231   5.554   2.679   1.143  0.2410 -0.2379 -0.2032
26026SOL    HW180232   5.482   2.617   1.129  0.7390 -0.6103 -1.2413
26026SOL    HW280233   5.545   2.707   1.234 -2.0798  0.8253 -0.6873
26027SOL     OW80234   8.682   3.143   8.580  0.3853  0.2869 -0.2938
26027SOL    HW180235   8.739   3.077   8.540  1.7735  1.3969 -0.2178
26027SOL    HW280236   8.603   3.095   8.604  1.2969 -1.3160 -0.3599
26028SOL     OW80237   2.063   4.481   5.992 -0.6277 -0.6629  0.4937
26028SOL    HW180238   2.051   4.438   6.076  0.9422 -0.1862  0.9943
26028SOL    HW280239   2.156   4.469   5.972 -0.6755  0.4376 -0.4886
26029SOL     OW80240   7.873   6.161   5.696  0.0750  0.2751 -0.6417
26029SOL    HW180241   7.869   6.237   5.638 -0.4112 -0.1773 -1.2143
26029SOL    HW280242   7.928   6.098   5.649  2.8133  1.2492  1.0207
26030SOL     OW80243   0.077   3.677   0.289 -0.2423 -0.2929 -0.2189
26030SOL    HW180244   0.123   3.620   0.351 -0.2195  0.2482  0.2671
26030SOL    HW280245   0.023   3.617   0.237 -0.4171 -0.7331  0.4561
26031SOL     OW80246   3.509   5.461   0.784  0.2873 -0.1042 -0.0168
26031SOL    HW180247   3.446   5.392   0.805  2.0495 -1.5701  0.7494
26031SOL    HW280248   3.542   5.491   0.869  0.0918  1.1895 -0.3728
26032SOL     OW80249   5.290   4.887   3.987 -0.1805 -0.0337  0.0631
26032SOL    HW180250   5.208   4.906   4.032 -0.5994  0.5990 -0.9401
26032SOL    HW280251   5.280   4.926   3.900  0.7009 -1.0241 -0.5064
26033SOL     OW80252   2.235   6.801   6.373 -0.4329  0.1912  0.3320
26033SOL    HW180253   2.228   6.705   6.373 -0.3046  0.1799  0.1237
26033SOL    HW280254   2.329   6.818   6.385 -0.2213  0.2612 -1.2657
26034SOL     OW80255   6.359   0.877   6.258  0.3872  0.6772 -0.0938
26034SOL    HW180256   6.353   0.958   6.309  0.6063 -0.2939  1.5498
26034SOL    HW280257   6.288   0.822   6.292  0.0597  0.2669 -1.3900
26035SOL     OW80258   1.085   1.530   6.308  0.3055 -0.0040 -0.2526
26035SOL    HW180259   1.128   1.452   6.343 -0.3884 -1.2281 -2.0120
26035SOL    HW280260   1.007   1.541   6.363  0.7763 -0.0996  0.4495
26036SOL     OW80261   0.592   7.915   8.468  0.1630 -0.0069 -0.7435
26036SOL    HW180262   0.631   7.985   8.415 -0.1398 -0.6604 -1.8705
26036SOL    HW280263   0.652   7.842   8.459  0.2326 -0.0487  0.0365
26037SOL     OW80264   5.668   7.985   5.429  0.0696  0.2954  0.0989
26037SOL    HW180265   5.649   7.899   5.467  2.3908  0.4333  1.7933
26037SOL    HW280266   5.758   7.978   5.398  0.3355  2.1475  0.3635
26038SOL     OW80267   6.060   0.726   6.320  0.1342 -0.3508 -0.6804
26038SOL    HW180268   6.029   0.807   6.279 -2.0720 -0.8117 -0.0943
26038SOL    HW280269   6.010   0.720   6.402  0.7940 -1.9254 -0.3492
26039SOL     OW80270   2.063   8.956   0.757 -0.1196 -0.1412  0.3690
26039SOL    HW180271   2.066   9.043   0.797  1.1713 -0.0164  0.0203
26039SOL    HW280272   1.991   8.912   0.802  0.0675  0.6522  1.4835
26040SOL     OW80273   5.034   8.299   0.166 -0.0639 -0.3073 -0.5595
26040SOL    HW180274   5.095   8.300   0.240  0.5656 -1.6391 -1.0159
26040SOL    HW280275   4.997   8.211   0.167 -1.3831  0.2200 -0.7914
26041SOL     OW80276   1.118   4.158   0.382  0.2976  0.0391 -0.3059
26041SOL    HW180277   1.088   4.175   0.293  2.4127 -1.2808 -1.3652
26041SOL    HW280278   1.073   4.223   0.436 -0.5314  1.3176 -2.4307
26042SOL     OW80279   6.827   6.142   9.076  0.1390  0.3401  0.2990
26042SOL    HW180280   6.808   6.196   8.999 -1.2021 -1.7395 -0.9402
26042SOL    HW280281   6.921   6.127   9.073  0.4148  1.9402  0.2523
26043SOL     OW80282   7.177   2.640   0.373 -0.1505  0.7053  0.4681
26043SOL    HW180283   7.205   2.675   0.458  0.2456 -0.2058  0.7200
26043SOL    HW280284   7.254   2.650   0.318  0.0282  0.0508  0.5968
26044SOL     OW80285   4.591   5.501   0.856 -0.0587  0.0597  0.1320
26044SOL    HW180286   4.669   5.458   0.889 -1.1064 -1.7488  0.3896
26044SOL    HW280287   4.582   5.580   0.910  1.3910  0.1398  0.2829
26045SOL     OW80288   6.211   2.642   8.205  0.2227 -0.3490 -0.1630
26045SOL    HW180289   6.285   2.687   8.246  1.0154 -0.7517 -1.1097
26045SOL    HW280290   6.212   2.554   8.243  0.6345 -0.5541 -0.6281
26046SOL     OW80291   0.381   7.762   3.063  0.2646  0.0183  0.3111
26046SOL    HW180292   0.401   7.855   3.074 -1.0327  0.4963 -1.0164
26046SOL    HW280293   0.296   7.761   3.019  0.2686 -1.8035  0.2725
26047SOL     OW80294   0.260   4.114   8.362  0.1509 -0.0767 -0.4989
26047SOL    HW180295   0.189   4.178   8.351 -0.4654 -0.8415 -1.0104
26047SOL    HW280296   0.249   4.082   8.452  0.8666  1.0001 -0.0062
26048SOL     OW80297   0.465   9.500   5.066 -0.4749 -0.5152 -0.2129
26048SOL    HW180298   0.455   9.594   5.082  1.0276 -0.0079 -1.9743
26048SOL    HW280299   0.388   9.461   5.108 -0.0670  1.2249  2.4295
26049SOL     OW80300   5.971   6.482   6.219  0.3927  0.4113 -0.2329
26049SOL    HW180301   6.011   6.553   6.169  1.5301  0.9976  1.4036
26049SOL    HW280302   5.945   6.523   6.301 -0.7428 -0.6656 -0.0293
26050SOL     OW80303   6.044   9.190   5.176  0.3248  0.3461 -0.1342
26050SOL    HW180304   5.964   9.208   5.126 -0.2877  0.0740  0.7144
26050SOL    HW280305   6.108   9.162   5.110  0.3201  2.3392 -1.0861
26051SOL     OW80306   8.599   0.477   5.731  0.4656  0.2413 -0.6488
26051SOL    HW180307   8.508   0.507   5.735  0.8309  1.8684 -2.6861
26051SOL    HW280308   8.597   0.398   5.677  0.1593 -0.2518  0.0803
26052SOL     OW80309   7.052   6.624   7.963  0.4425  0.4800  0.1696
26052SOL    HW180310   6.964   6.584   7.962  1.4218 -1.9206  1.5809
26052SOL    HW280311   7.102   6.573   7.900  1.4696  0.1320  1.2304
26053SOL     OW80312   3.836   3.963   1.137 -0.1149  0.0861 -0.3076
26053SOL    HW180313   3.796   3.906   1.071  1.3480  0.1240 -1.2796
26053SOL    HW280314   3.818   3.919   1.220  0.2341 -1.3613 -0.9638
26054SOL     OW80315   9.055   0.344   3.136  0.1962 -0.2113 -0.1274
26054SOL    HW180316   9.059   0.383   3.049 -1.1913 -2.7177 -1.4141
26054SOL    HW280317   9.089   0.255   3.124 -1.7871 -1.2619  1.4365
26055SOL     OW80318   0.390   4.386   4.488  0.5983 -0.0894 -0.6703
26055SOL    HW180319   0.307   4.377   4.536 -1.0942 -1.0249 -3.4910
26055SOL    HW280320   0.400   4.480   4.475 -0.2578  0.0157 -0.6294
26056SOL     OW80321   8.281   9.401   8.672  0.1859  0.6271  0.1800
26056SOL    HW180322   8.330   9.320   8.688 -0.9415  0.3939  2.9714
26056SOL    HW280323   8.231   9.384   8.593 -0.8004 -1.8405  1.2559
26057SOL     OW80324   0.883   4.566   0.474  0.1047  0.4023  0.0387
26057SOL    HW180325   0.832   4.638   0.438  0.5238  0.4557 -0.4614
26057SOL    HW280326   0.895   4.506   0.400 -1.1473 -0.7255  0.6859
26058SOL     OW80327   8.736   3.569   1.204 -0.0150 -0.2177  0.1688
26058SOL    HW180328   8.667   3.607   1.259 -0.7049 -0.8527 -0.2401
26058SOL    HW280329   8.723   3.610   1.119  0.3043 -0.1176  0.1680
26059SOL     OW80330   7.484   6.710   3.664  0.5112 -0.6063  0.4317
26059SOL    HW180331   7.408   6.731   3.718  1.3842 -1.1996  1.9593
26059SOL    HW280332   7.544   6.665   3.724  1.5848 -1.1683 -1.0147
26060SOL     OW80333   3.122   3.637   8.475 -0.1235  0.0594 -0.4343
26060SOL    HW180334   3.170   3.625   8.393  1.0037 -1.2252  0.3637
26060SOL    HW280335   3.167   3.709   8.519 -1.3337  1.4134 -1.3244
26061SOL     OW80336   6.622   8.095   6.924  0.3905  0.1568  0.6547
26061SOL    HW180337   6.568   8.052   6.990 -0.6290 -2.0127 -1.4760
26061SOL    HW280338   6.583   8.182   6.914 -0.9004 -0.3374  1.2255
26062SOL     OW80339   8.370   6.080   0.025  0.2063 -0.5831 -0.2797
26062SOL    HW180340   8.317   6.056  -0.051  0.9956 -1.8154 -0.4624
26062SOL    HW280341   8.421   6.002   0.045  2.5647  0.7587 -0.6006
26063SOL     OW80342   2.084   7.475   0.541  0.2523 -0.6637  0.3905
26063SOL    HW180343   2.108   7.518   0.459  2.3525 -1.4853  0.5012
26063SOL    HW280344   2.136   7.520   0.608 -0.5936 -0.7342  1.1173
26064SOL     OW80345   3.478   8.504   9.318 -0.2584  0.3807 -0.2119
26064SOL    HW180346   3.551   8.551   9.358  1.2740 -1.3649 -0.8376
26064SOL    HW280347   3.418   8.487   9.391 -0.0071  1.7221  0.3388
26065SOL     OW80348   3.180   2.978   5.696  0.6214  0.2162 -0.4522
26065SOL    HW180349   3.107   3.037   5.677  1.1640  0.6489 -1.2257
26065SOL    HW280350   3.142   2.890   5.691 -0.4650  0.4738  1.8264
26066SOL     OW80351   5.191   8.263   7.902 -0.0758  0.7318  0.5106
26066SOL    HW180352   5.227   8.344   7.936 -1.5049  1.5187  0.2302
26066SOL    HW280353   5.263   8.200   7.909  0.8776  1.8578  1.2719
26067SOL     OW80354   0.043   2.043   5.868  0.1410  0.6699  0.4273
26067SOL    HW180355  -0.039   2.075   5.906 -1.7411  0.4068 -3.0501
26067SOL    HW280356   0.074   2.116   5.815  0.9631 -0.0048 -0.0302
26068SOL     OW80357   0.188   2.875   1.787  0.1811 -0.0504 -0.0052
26068SOL    HW180358   0.270   2.860   1.740  0.1204 -0.0137 -0.1223
26068SOL    HW280359   0.214   2.878   1.879  0.8592  3.4723 -0.1944
26069SOL     OW80360   3.188   0.240   3.693  0.0769  0.0223 -0.0390
26069SOL    HW180361   3.095   0.229   3.674  0.0729 -0.4498  0.2292
26069SOL    HW280362   3.208   0.169   3.755  0.2718  1.0187  1.0674
26070SOL     OW80363   7.739   6.559   1.592  0.6037  0.1338  0.1618
26070SOL    HW180364   7.745   6.583   1.499 -2.8671  1.0287 -0.0012
26070SOL    HW280365   7.781   6.474   1.597 -0.8504 -0.9255 -2.7514
26071SOL     OW80366   7.191   4.577   5.217  0.1305  0.0320 -0.0340
26071SOL    HW180367   7.221   4.667   5.205  1.3067 -0.3336  0.0773
26071SOL    HW280368   7.129   4.581   5.289 -0.3769  0.8631 -0.5032
26072SOL     OW80369   5.805   3.463   6.820 -0.0228 -0.1454  0.1118
26072SOL    HW180370   5.713   3.445   6.803 -0.0237 -0.1085  0.0757
26072SOL    HW280371   5.823   3.544   6.771  0.0061 -0.1056  0.1874
26073SOL     OW80372   6.986   8.641   7.230 -0.4654  0.0663 -0.1854
26073SOL    HW180373   7.009   8.721   7.275 -1.7542  0.6132 -0.4402
26073SOL    HW280374   6.929   8.594   7.291  0.0805 -0.5510 -0.1343
26074SOL     OW80375   0.979   9.109   7.847 -0.4657  0.0145  0.1676
26074SOL    HW180376   1.066   9.096   7.885 -0.1606  2.2145  0.3210
26074SOL    HW280377   0.923   9.124   7.923 -0.8220 -0.4708  0.0058
26075SOL     OW80378   5.402   6.079   7.491 -0.1362 -0.3058  0.0016
26075SOL    HW180379   5.372   6.109   7.577 -0.1550  0.8826 -0.3897
26075SOL    HW280380   5.362   5.993   7.479  0.3171 -0.7408  1.4098
26076SOL     OW80381   9.090   2.312   7.748  0.1796  0.3635 -0.2539
26076SOL    HW180382   9.055   2.276   7.829 -0.5718  0.3205 -0.5897
26076SOL    HW280383   9.033   2.387   7.728 -0.2321 -0.1903 -1.2291
26077SOL     OW80384   3.487   8.642   2.368  0.8164 -0.1479  0.3736
26077SOL    HW180385   3.543   8.720   2.370  0.6466 -0.0258  0.3793
26077SOL    HW280386   3.400   8.675   2.344  0.3499 -0.0947  1.9877
26078SOL     OW80387   3.437   5.593   7.322 -0.0560  0.4282  0.6867
26078SOL    HW180388   3.429   5.609   7.416 -2.0286  1.1553  0.4255
26078SOL    HW280389   3.398   5.670   7.281  0.9064  0.1844 -0.7520
26079SOL     OW80390   7.346   7.101   4.449 -0.2485 -0.2345 -0.0315
26079SOL    HW180391   7.256   7.071   4.452 -0.5545  0.5589 -0.8202
26079SOL    HW280392   7.360   7.146   4.533 -1.1642  1.1873 -0.6043
26080SOL     OW80393   9.131   3.788   9.083 -0.3581  0.3108  0.5453
26080SOL    HW180394   9.178   3.820   9.006  1.6329 -1.1629  1.0817
26080SOL    HW280395   9.175   3.830   9.157 -2.7054  2.2848  0.9642
26081SOL     OW80396   4.297   4.305   3.925 -0.3716  0.6296 -0.3557
26081SOL    HW180397   4.278   4.304   3.831  0.7427  0.2784 -0.5957
26081SOL    HW280398   4.389   4.332   3.930  0.8304 -3.0571  0.3599
26082SOL     OW80399   8.732   4.653   0.560  0.2235  0.0767 -0.5887
26082SOL    HW180400   8.666   4.610   0.613  1.9781 -2.1211 -0.0802
26082SOL    HW280401   8.805   4.669   0.619  0.6621  1.3394 -1.4154
26083SOL     OW80402   0.095   1.355   4.840  0.2631 -0.1109  0.0929
26083SOL    HW180403   0.015   1.371   4.789  1.1454 -1.8598 -1.9735
26083SOL    HW280404   0.073   1.282   4.897  0.5252 -0.9716 -0.8867
26084SOL     OW80405   1.090   1.119   3.214 -0.1033 -0.1608  0.1093
26084SOL    HW180406   1.034   1.042   3.215  0.5973 -0.6784  0.7334
26084SOL    HW280407   1.168   1.093   3.262  1.4462 -0.0285 -2.1453
26085SOL     OW80408   0.866   1.075   9.472  0.1396  0.1129  0.3393
26085SOL    HW180409   0.845   0.985   9.498  3.8355 -0.9350  0.2154
26085SOL    HW280410   0.915   1.065   9.390  1.1278  2.2092  0.6171
26086SOL     OW80411   2.569   1.011   5.105 -0.2684  0.3642  0.9538
26086SOL    HW180412   2.563   0.944   5.037  1.3677  1.1915 -0.0722
26086SOL    HW280413   2.513   1.082   5.074 -3.7990 -1.2460  3.0951
26087SOL     OW80414   6.292   3.470   1.182 -0.3759  0.7882  0.7414
26087SOL    HW180415   6.330   3.558   1.190  1.3009  0.0849  0.9246
26087SOL    HW280416   6.289   3.437   1.271  0.7508 -0.0169  0.5040
26088SOL     OW80417   5.902   8.880   0.735 -0.1402  0.6805 -0.2717
26088SOL    HW180418   5.992   8.911   0.745  0.3574 -1.0695  1.7194
26088SOL    HW280419   5.906   8.815   0.665  1.0447 -1.9660  2.0541
26089SOL     OW80420   5.882   9.195   2.155  0.3123  0.4899 -0.5458
26089SOL    HW180421   5.844   9.128   2.212  0.6726  1.9800  1.5341
26089SOL    HW280422   5.930   9.253   2.214 -0.2191  2.7702 -2.2183
26090SOL     OW80423   9.181   2.189   2.350  0.0495  0.5909  0.6718
26090SOL    HW180424   9.123   2.119   2.381 -2.6098  1.8854 -1.0528
26090SOL    HW280425   9.197   2.167   2.258  2.4227  0.2838  1.0825
26091SOL     OW80426   8.107   3.231   2.771 -0.5314 -0.0252 -0.1698
26091SOL    HW180427   8.022   3.274   2.761  0.4359  3.4523  3.6682
26091SOL    HW280428   8.094   3.166   2.840 -0.0333  1.0607  0.9938
26092SOL     OW80429   7.868   2.784   6.564  0.5150  0.4100  0.4975
26092SOL    HW180430   7.912   2.837   6.631 -0.7725  1.7902  0.3086
26092SOL    HW280431   7.866   2.695   6.601  1.5183  0.7514  1.4264
26093SOL     OW80432   0.159   7.569   6.780 -0.3954 -0.5787  0.2285
26093SOL    HW180433   0.223   7.557   6.850 -1.4514  0.5216  1.4329
26093SOL    HW280434   0.143   7.481   6.746  0.6080 -1.0478  0.9327
26094SOL     OW80435   5.327   7.131   7.551 -0.0687  0.6440 -0.4961
26094SOL    HW180436   5.344   7.055   7.607  0.8672 -0.8622 -2.6692
26094SOL    HW280437   5.382   7.200   7.587  2.0372 -0.8420 -0.6343
26095SOL     OW80438   4.196   5.655   0.046 -0.0625  0.5095  0.2458
26095SOL    HW180439   4.265   5.617  -0.009 -0.8582  1.2145 -1.3031
26095SOL    HW280440   4.185   5.744   0.012 -1.3611  0.5822  0.8267
26096SOL     OW80441   0.678   6.608   9.096  0.1216 -0.1439  0.1909
26096SOL    HW180442   0.714   6.690   9.129  0.1912 -0.0594 -0.0929
26096SOL    HW280443   0.603   6.590   9.153  0.2723 -0.0272  0.4273
26097SOL     OW80444   3.944   8.643   2.066  0.1565  0.4846  0.0555
26097SOL    HW180445   3.944   8.604   1.978 -0.8016 -2.4893  1.2540
26097SOL    HW280446   3.852   8.643   2.092  0.3955  1.5897  0.9984
26098SOL     OW80447   8.576   8.990   2.660 -0.5055  0.3366 -0.1333
26098SOL    HW180448   8.556   8.958   2.749 -2.4840 -3.4483 -1.7116
26098SOL    HW280449   8.495   9.034   2.632 -0.8513 -0.7820 -0.9309
26099SOL     OW80450   5.434   0.893   1.144  0.1966 -0.5229 -0.2278
26099SOL    HW180451   5.355   0.941   1.166  1.0673  1.2194 -0.7603
26099SOL    HW280452   5.435   0.819   1.205 -0.8637  0.4760  1.0367
26100SOL     OW80453   6.403   6.405   1.637  0.4630 -0.1237  0.0206
26100SOL    HW180454   6.387   6.346   1.711  0.7514  1.6641  1.5960
26100SOL    HW280455   6.495   6.428   1.645  1.2684 -1.9609 -2.5746
26101SOL     OW80456   3.852   4.505   8.960  0.0296  0.2109 -0.4258
26101SOL    HW180457   3.835   4.578   8.901 -1.2314 -0.1486 -0.5426
26101SOL    HW280458   3.802   4.526   9.039 -0.2249 -0.4487 -0.4073
26102SOL     OW80459   5.143   8.350   4.406  0.1704  0.7823 -0.7141
26102SOL    HW180460   5.174   8.336   4.316 -0.5625  2.1576 -1.2127
26102SOL    HW280461   5.068   8.292   4.414 -0.2103  1.1862 -1.2565
26103SOL     OW80462   1.280   5.790   1.873  0.0046  0.6602 -0.2331
26103SOL    HW180463   1.353   5.769   1.931 -1.9316 -0.6900  1.9089
26103SOL    HW280464   1.314   5.857   1.814  2.7685  0.4766  1.0089
26104SOL     OW80465   0.205   6.499   8.980  0.4739 -0.0487  0.0108
26104SOL    HW180466   0.266   6.510   8.908  2.9785 -1.8005  1.7224
26104SOL    HW280467   0.226   6.571   9.040  0.2854 -0.1703  0.2264
26105SOL     OW80468   3.990   0.789   2.244 -0.4435 -0.0096 -0.0844
26105SOL    HW180469   4.042   0.734   2.302  0.2578 -1.0809 -1.6719
26105SOL    HW280470   3.967   0.865   2.297  1.3426 -0.2937  1.1750
26106SOL     OW80471   5.153   1.033   0.929 -0.4420  0.7649 -0.0175
26106SOL    HW180472   5.169   1.115   0.883  1.3656  0.5467  0.1463
26106SOL    HW280473   5.182   1.050   1.019 -1.0524  0.2627  0.2817
26107SOL     OW80474   5.588   7.601   3.236  0.3639 -0.3598  0.0588
26107SOL    HW180475   5.639   7.612   3.316 -0.7700  0.9716  0.6302
26107SOL    HW280476   5.538   7.520   3.251  0.9538 -0.7008  0.2268
26108SOL     OW80477   1.787   9.565   3.144 -0.5213  0.0563 -0.1221
26108SOL    HW180478   1.857   9.600   3.088  1.3423 -2.4294  0.4604
26108SOL    HW280479   1.715   9.547   3.084  0.9534 -1.3388 -1.5727
26109SOL     OW80480   1.207   4.770   3.879  0.3026 -0.3889  0.2778
26109SOL    HW180481   1.244   4.729   3.801  1.6063  2.9241 -1.0459
26109SOL    HW280482   1.275   4.761   3.945 -0.2727 -2.0681  0.6782
26110SOL     OW80483   3.941   0.224   2.537 -0.0531  0.5128 -0.0446
26110SOL    HW180484   3.928   0.142   2.488  2.2511  0.4624 -0.6744
26110SOL    HW280485   3.946   0.196   2.628  0.6449 -0.0458 -0.2479
26111SOL     OW80486   3.896   3.600   0.441  0.7139  0.5539  0.6335
26111SOL    HW180487   3.869   3.567   0.355 -0.5159 -0.2454  1.2835
26111SOL    HW280488   3.893   3.695   0.432  0.3217  0.4852 -0.1308
26112SOL     OW80489   1.312   6.279   0.508 -0.1893 -0.1150  0.0575
26112SOL    HW180490   1.251   6.328   0.452 -1.3084  0.3806  1.6452
26112SOL    HW280491   1.366   6.346   0.550 -0.4733 -0.3520  0.8160
26113SOL     OW80492   3.620   9.585   3.060  0.2109  0.5489 -0.3583
26113SOL    HW180493   3.551   9.525   3.089  0.2025  1.4206  1.6365
26113SOL    HW280494   3.574   9.652   3.009 -0.6159  1.5138  1.5425
26114SOL     OW80495   9.472   6.163   6.543  0.4431 -0.5754 -0.5166
26114SOL    HW180496   9.432   6.248   6.525  2.5455  0.9886  1.4805
26114SOL    HW280497   9.402   6.112   6.583 -0.2212  1.2006  0.7346
26115SOL     OW80498   2.794   0.759   7.916  0.5187 -0.2043  0.3576
26115SOL    HW180499   2.835   0.823   7.858  0.3523 -0.2801  0.1503
26115SOL    HW280500   2.702   0.786   7.920  0.2298 -0.9940 -0.5366
26116SOL     OW80501   1.823   5.408   5.643  0.4374  0.4685  0.0184
26116SOL    HW180502   1.872   5.433   5.721  0.7069 -0.2992  0.1047
26116SOL    HW280503   1.742   5.459   5.649 -0.9109 -1.6537  2.3885
26117SOL     OW80504   5.145   3.665   0.937  0.2874  0.0137  0.3745
26117SOL    HW180505   5.149   3.659   0.841 -0.0115 -0.0108  0.3630
26117SOL    HW280506   5.227   3.626   0.967  0.7788  0.7995  0.0990
26118SOL     OW80507   6.907   2.372   2.945 -0.0271 -0.1458  1.0304
26118SOL    HW180508   6.822   2.403   2.975  0.6800  1.1345  1.8365
26118SOL    HW280509   6.936   2.439   2.883 -0.0808 -1.1522 -0.1206
26119SOL     OW80510   3.677   6.098   0.418 -0.2351 -0.9824 -0.4105
26119SOL    HW180511   3.585   6.072   0.423 -0.4359 -0.1639  0.6927
26119SOL    HW280512   3.723   6.037   0.475 -0.3057 -0.5740  0.0909
26120SOL     OW80513   3.521   2.307   0.939 -0.0762  0.0093 -0.0719
26120SOL    HW180514   3.482   2.310   0.852 -0.5271 -0.5944  0.1050
26120SOL    HW280515   3.535   2.214   0.955 -1.0957  0.0203  0.9813
26121SOL     OW80516   9.436   4.443   1.396 -0.1527  0.4901  0.2744
26121SOL    HW180517   9.400   4.373   1.342  2.1280 -1.0870  0.6357
26121SOL    HW280518   9.497   4.489   1.338  1.0393 -0.1452  0.9825
26122SOL     OW80519   1.137   3.201   6.804  0.0597  0.2581 -0.0817
26122SOL    HW180520   1.212   3.142   6.816 -0.5349 -0.5200 -0.0703
26122SOL    HW280521   1.143   3.230   6.714 -1.5011 -2.5479 -1.2288
26123SOL     OW80522   2.387   6.410   4.424  0.0720  0.0817 -0.3267
26123SOL    HW180523   2.314   6.422   4.364 -1.4523  1.0013  1.5846
26123SOL    HW280524   2.362   6.334   4.477  1.0133 -0.2446 -0.3237
26124SOL     OW80525   5.914   8.225   5.722 -0.6470  0.1229  0.0239
26124SOL    HW180526   5.824   8.231   5.690 -1.3721 -0.7304  1.7284
26124SOL    HW280527   5.907   8.248   5.815  0.9229  0.1754  0.1452
26125SOL     OW80528   8.665   5.328   5.712 -0.5260 -0.4845  0.2911
26125SOL    HW180529   8.727   5.293   5.776  0.0904 -0.2017 -0.1464
26125SOL    HW280530   8.663   5.261   5.643  2.4767  1.2750 -1.7385
26126SOL     OW80531   2.242   8.479   3.848 -0.5741  0.0018  0.2222
26126SOL    HW180532   2.269   8.390   3.826 -1.2224 -0.4668  1.2097
26126SOL    HW280533   2.185   8.468   3.924 -2.2075  1.0791 -0.7769
26127SOL     OW80534   0.775   7.283   4.800  0.8296  0.6835 -1.0386
26127SOL    HW180535   0.854   7.261   4.848  0.0287 -0.0468 -0.0088
26127SOL    HW280536   0.706   7.284   4.866 -0.1692  0.4495 -2.0349
26128SOL     OW80537   3.652   9.425   8.257  0.0934 -0.1543 -0.1186
26128SOL    HW180538   3.624   9.353   8.200 -0.5138 -1.1293  1.3602
26128SOL    HW280539   3.581   9.433   8.321  0.2690  1.6223 -0.1088
26129SOL     OW80540   4.191   2.093   2.903 -0.4536  0.2254 -0.6021
26129SOL    HW180541   4.113   2.075   2.956 -0.2627  0.2580 -0.3106
26129SOL    HW280542   4.205   2.187   2.911  1.0837 -0.1037  1.4162
26130SOL     OW80543   2.737   8.617   6.059 -0.3938 -0.1026 -0.0435
26130SOL    HW180544   2.659   8.569   6.086  0.0647 -0.0322  1.5487
26130SOL    HW280545   2.767   8.660   6.139  1.7747 -0.8409 -0.3945
26131SOL     OW80546   8.536   3.922   0.782  0.1925  0.5637 -0.4315
26131SOL    HW180547   8.607   3.983   0.807  0.8550  0.5030 -2.0636
26131SOL    HW280548   8.504   3.889   0.866  3.4790 -0.9992  0.3893
26132SOL     OW80549   0.484   2.752   5.155  0.6499 -0.2512  0.7087
26132SOL    HW180550   0.493   2.804   5.234  0.8302 -0.4748  0.8370
26132SOL    HW280551   0.437   2.809   5.094 -1.1611 -0.7223  1.5852
26133SOL     OW80552   1.760   2.698   8.388  0.1807 -0.1845 -0.2966
26133SOL    HW180553   1.840   2.645   8.389  1.7010  1.9999  0.5776
26133SOL    HW280554   1.720   2.681   8.473  1.5461  1.2287  0.6888
26134SOL     OW80555   7.333   5.515   4.081  0.2476  0.2372 -0.7187
26134SOL    HW180556   7.318   5.516   3.987 -0.2051 -1.1401 -0.6853
26134SOL    HW280557   7.248   5.492   4.119  0.6291 -0.0972 -0.0316
26135SOL     OW80558   4.748   5.692   3.991 -0.3144 -0.0670 -0.4518
26135SOL    HW180559   4.697   5.744   3.928 -2.2814  0.3462  1.3493
26135SOL    HW280560   4.694   5.615   4.008  0.3755 -0.3833  0.4100
26136SOL     OW80561   6.458   7.035   1.913  0.1150 -0.1570  0.4636
26136SOL    HW180562   6.551   7.041   1.893 -0.0479  0.2966 -0.1950
26136SOL    HW280563   6.454   7.033   2.009  0.7507  0.8712  0.5351
26137SOL     OW80564   1.221   6.853   9.204  0.6713 -0.3768 -0.5391
26137SOL    HW180565   1.307   6.891   9.184  1.2660 -1.3720  0.0301
26137SOL    HW280566   1.228   6.762   9.173 -0.6774 -0.0821 -1.7859
26138SOL     OW80567   5.182   9.357   4.968 -0.1366 -0.0990  0.2824
26138SOL    HW180568   5.210   9.384   4.880  2.2331 -1.9477  0.3834
26138SOL    HW280569   5.112   9.294   4.953 -0.0540 -0.0625 -0.2640
26139SOL     OW80570   7.388   2.469   3.324 -0.1783 -0.1224  0.5156
26139SOL    HW180571   7.336   2.433   3.396  0.2515 -0.0227  0.8830
26139SOL    HW280572   7.334   2.456   3.247  0.3855 -2.5614  0.4512
26140SOL     OW80573   8.353   7.663   1.692 -0.0397  0.2459  0.6615
26140SOL    HW180574   8.431   7.609   1.679 -0.4818 -0.1416 -0.5099
26140SOL    HW280575   8.372   7.714   1.771  1.5529  0.4360  0.1918
26141SOL     OW80576   5.616   7.824   9.565  0.1578 -0.8612  0.5766
26141SOL    HW180577   5.607   7.755   9.499  0.8449 -1.9370  1.5532
26141SOL    HW280578   5.704   7.858   9.552 -0.6426  0.8551 -0.7984
26142SOL     OW80579   6.032   1.497   1.865  0.1711  0.4237 -0.0963
26142SOL    HW180580   5.981   1.417   1.874 -0.8396  0.9170 -1.2016
26142SOL    HW280581   6.032   1.535   1.953 -0.0767 -0.3437  0.2437
26143SOL     OW80582   1.469   0.082   6.161  0.4311 -0.4899  0.5338
26143SOL    HW180583   1.439   0.118   6.245  0.1726 -0.4023  0.4060
26143SOL    HW280584   1.553   0.125   6.145  0.3967 -0.3742  0.6621
26144SOL     OW80585   1.038   2.119   1.437  0.4619  0.0013  0.0403
26144SOL    HW180586   1.109   2.183   1.445 -0.2208  0.7445  0.3286
26144SOL    HW280587   1.068   2.044   1.487  1.3902 -0.0118 -0.5152
26145SOL     OW80588   2.142   3.187   1.268 -0.5829  0.4941 -0.3202
26145SOL    HW180589   2.228   3.186   1.227  0.4019 -0.8696  1.5892
26145SOL    HW280590   2.150   3.127   1.342 -2.6517  1.6755  0.9749
26146SOL     OW80591   0.767   7.884   8.777 -0.0937  0.7221 -0.0380
26146SOL    HW180592   0.796   7.793   8.782  0.1355  0.6989 -1.4323
26146SOL    HW280593   0.673   7.881   8.794  0.0381  0.3306  0.6735
26147SOL     OW80594   7.237   0.266   4.453  0.0909 -0.4833  0.5926
26147SOL    HW180595   7.301   0.302   4.392  0.2092 -1.1186  0.3331
26147SOL    HW280596   7.208   0.342   4.505  0.6613 -0.1008  0.3657
26148SOL     OW80597   1.456   9.026   3.255  0.5971 -0.4895  0.2862
26148SOL    HW180598   1.511   9.105   3.247  2.2026 -1.6357 -0.7526
26148SOL    HW280599   1.508   8.967   3.309 -1.1064 -0.4490  2.0313
26149SOL     OW80600   5.568   4.945   8.651 -0.3848 -0.1539  0.0143
26149SOL    HW180601   5.505   4.954   8.580  1.1376  0.7915 -1.2892
26149SOL    HW280602   5.625   4.873   8.624 -0.8999 -1.0369  1.2043
26150SOL     OW80603   2.589   4.651   1.175  0.3206  0.5252  0.0921
26150SOL    HW180604   2.561   4.668   1.085  0.5505  0.7494  0.0600
26150SOL    HW280605   2.578   4.735   1.220 -2.2059 -0.1710  0.9393
26151SOL     OW80606   6.031   2.270   6.747 -0.4897 -0.0394  0.0949
26151SOL    HW180607   6.022   2.207   6.818  0.2902 -0.5160 -0.2144
26151SOL    HW280608   6.096   2.231   6.688  0.3619  1.2664  0.1318
26152SOL     OW80609   2.161   6.615   6.077 -0.1692 -0.1154  0.2102
26152SOL    HW180610   2.245   6.659   6.060 -0.8600  1.2172  0.0593
26152SOL    HW280611   2.179   6.555   6.149  0.9367  0.0510  0.0976
26153SOL     OW80612   4.251   1.330   2.086  0.1006  0.0360 -0.4197
26153SOL    HW180613   4.191   1.377   2.144  0.8888 -1.4923  1.7276
26153SOL    HW280614   4.197   1.265   2.042 -0.3077  0.5149 -0.6368
26154SOL     OW80615   4.747   0.330   9.210 -0.1937 -0.4462 -0.3178
26154SOL    HW180616   4.764   0.323   9.304 -0.5958  0.0096 -0.2070
26154SOL    HW280617   4.819   0.384   9.178 -0.8234  0.5908 -0.0258
26155SOL     OW80618   2.974   4.245   2.788 -0.0943  0.5200 -0.0332
26155SOL    HW180619   3.006   4.185   2.721 -1.8684  1.7430 -2.1257
26155SOL    HW280620   3.044   4.309   2.798  1.4193 -1.2811  1.5353
26156SOL     OW80621   5.867   5.643   9.229 -0.1510 -0.7005 -0.4267
26156SOL    HW180622   5.898   5.724   9.190  1.3233 -1.4887 -0.9632
26156SOL    HW280623   5.874   5.578   9.158 -0.3757 -1.5030  0.2689
26157SOL     OW80624   7.593   2.497   6.425 -0.0217 -0.3009 -0.0726
26157SOL    HW180625   7.655   2.463   6.361  0.4117 -1.9824  1.1691
26157SOL    HW280626   7.572   2.422   6.480 -0.9561  0.9203  1.3077
26158SOL     OW80627   4.574   3.004   6.089 -0.4606 -0.6289  0.4374
26158SOL    HW180628   4.566   2.923   6.139  0.7558 -1.6802 -0.9887
26158SOL    HW280629   4.655   3.044   6.120  1.0745 -1.9888 -1.5138
26159SOL     OW80630   3.848   8.202   3.245 -0.2725 -0.0159  0.0596
26159SOL    HW180631   3.756   8.229   3.255 -0.3733  0.5412 -1.8408
26159SOL    HW280632   3.843   8.117   3.200  0.1411 -1.1248  1.9944
26160SOL     OW80633   2.193   8.985   1.825 -0.6044  0.0108  0.3947
26160SOL    HW180634   2.214   9.035   1.746 -0.7019  0.4379  0.6339
26160SOL    HW280635   2.265   9.005   1.885  0.2265 -1.4257 -0.0691
26161SOL     OW80636   6.891   6.156   3.669  0.0714 -0.1095  0.5772
26161SOL    HW180637   6.858   6.077   3.627 -0.3426  0.3502  0.0271
26161SOL    HW280638   6.981   6.164   3.637 -0.1113  0.0175  0.0796
26162SOL     OW80639   5.377   5.951   4.004 -0.1767 -0.1526 -0.0909
26162SOL    HW180640   5.382   5.982   4.094  0.8602  0.1545 -0.2464
26162SOL    HW280641   5.395   5.857   4.010  0.2602 -0.0663 -0.0100
26163SOL     OW80642   4.193   2.749   8.274 -0.1536 -0.0788 -0.0343
26163SOL    HW180643   4.227   2.678   8.220 -1.5423 -0.6991 -0.1239
26163SOL    HW280644   4.107   2.718   8.304 -0.0024  0.8122  1.4130
26164SOL     OW80645   0.867   0.167   8.254  0.2766 -0.3209  0.4257
26164SOL    HW180646   0.787   0.207   8.220  0.7463 -0.1647 -0.5488
26164SOL    HW280647   0.935   0.232   8.239  0.3349  0.2789  2.8704
26165SOL     OW80648   3.814   6.540   8.634  1.0632  0.2391  0.0477
26165SOL    HW180649   3.723   6.554   8.658 -0.0517  1.4924 -4.0110
26165SOL    HW280650   3.848   6.629   8.618  1.9749 -0.3220 -1.4031
26166SOL     OW80651   4.081   4.042   8.596 -0.8486  0.2193 -0.2325
26166SOL    HW180652   4.167   4.074   8.568 -1.6091  2.0653 -0.5827
26166SOL    HW280653   4.067   3.963   8.544  1.1607 -0.8784  0.7655
26167SOL     OW80654   1.606   7.121   5.369  0.3369  0.1648  0.3693
26167SOL    HW180655   1.605   7.150   5.278  0.7846 -0.5673  0.1217
26167SOL    HW280656   1.670   7.050   5.371  1.5891  1.2411  1.5834
26168SOL     OW80657   4.294   4.908   3.034 -0.0503  0.7148 -0.4039
26168SOL    HW180658   4.308   4.971   2.963 -0.0961 -0.5505 -1.5821
26168SOL    HW280659   4.382   4.878   3.058 -0.0908  0.4228 -0.6126
26169SOL     OW80660   1.856   7.092   5.643  0.1749 -0.4426  0.1749
26169SOL    HW180661   1.775   7.137   5.667  1.3383  1.0925  1.4426
26169SOL    HW280662   1.911   7.159   5.603  0.4312 -1.7263 -1.7918
26170SOL     OW80663   5.326   9.572   3.939 -0.7188  0.4425 -0.1720
26170SOL    HW180664   5.326   9.576   3.843  1.2479  1.6364 -0.1608
26170SOL    HW280665   5.273   9.495   3.959  0.8019 -1.2767 -2.2912
26171SOL     OW80666   7.496   0.816   8.883 -0.5182 -0.7013 -0.6312
26171SOL    HW180667   7.405   0.796   8.862 -0.7854  0.0556 -0.2417
26171SOL    HW280668   7.520   0.750   8.949 -1.6051  0.5901  1.1535
26172SOL     OW80669   3.913   8.117   4.779  0.1023 -0.5380 -0.5576
26172SOL    HW180670   3.856   8.156   4.713  2.1194 -1.1547 -2.8137
26172SOL    HW280671   3.906   8.175   4.855 -1.6293  0.6970 -1.5891
26173SOL     OW80672   9.317   9.219   8.026  0.3183  0.5099  0.4480
26173SOL    HW180673   9.330   9.140   8.078 -1.0279  0.7821  1.2502
26173SOL    HW280674   9.333   9.291   8.087  0.0339  0.8508  0.1283
26174SOL     OW80675   7.450   1.364   7.621  0.6297  0.6221 -0.0584
26174SOL    HW180676   7.498   1.284   7.640 -0.5672  0.1127  0.9876
26174SOL    HW280677   7.439   1.406   7.706 -1.7503  0.1310 -0.0715
26175SOL     OW80678   8.671   1.242   7.059 -0.0254 -0.2422 -0.4009
26175SOL    HW180679   8.748   1.197   7.095 -0.5647 -1.3717 -0.5999
26175SOL    HW280680   8.642   1.300   7.130  0.3133 -0.6789  0.1068
26176SOL     OW80681   5.892   2.281   2.691  0.0722 -0.2469 -0.1914
26176SOL    HW180682   5.948   2.303   2.765 -2.2246  0.9607  1.2993
26176SOL    HW280683   5.813   2.245   2.730 -1.4852  1.0119 -1.9896
26177SOL     OW80684   3.765   1.852   1.029  0.1974  0.2726  0.2413
26177SOL    HW180685   3.754   1.837   1.123 -0.6494  1.1565  0.2965
26177SOL    HW280686   3.702   1.920   1.008  0.3049  0.0107 -1.0007
26178SOL     OW80687   9.366   4.001   2.382 -0.3923 -0.0263  0.1540
26178SOL    HW180688   9.327   3.951   2.453 -0.6267  0.4856  0.3937
26178SOL    HW280689   9.447   3.955   2.361 -1.2615 -1.2809 -0.5495
26179SOL     OW80690   8.894   7.919   2.706 -0.0954 -0.5044 -0.2592
26179SOL    HW180691   8.978   7.964   2.698 -0.1705 -0.4944 -1.1080
26179SOL    HW280692   8.851   7.959   2.782  0.6716 -0.5274  0.1924
26180SOL     OW80693   2.383   0.894   0.023 -0.9496 -0.5042 -0.1838
26180SOL    HW180694   2.318   0.826   0.038  0.1718 -1.6751 -0.4287
26180SOL    HW280695   2.466   0.847   0.020 -0.1199  0.9053 -0.2043
26181SOL     OW80696   0.178   8.320   9.082 -0.3263  0.8817  0.2496
26181SOL    HW180697   0.121   8.365   9.020  0.7907  0.2505 -1.2966
26181SOL    HW280698   0.143   8.231   9.086 -0.7368  1.0669  0.9932
26182SOL     OW80699   1.731   2.675   7.744  0.3438 -0.1543 -0.6059
26182SOL    HW180700   1.815   2.641   7.775 -0.2429 -0.5454  0.6037
26182SOL    HW280701   1.682   2.596   7.720  0.5739  0.1089 -2.0469
26183SOL     OW80702   7.310   0.067   6.845 -0.1605  0.1519  0.4746
26183SOL    HW180703   7.238   0.097   6.789 -1.2252 -2.5336  0.2159
26183SOL    HW280704   7.275  -0.011   6.889  2.5441 -1.2654  0.3696
26184SOL     OW80705   8.188   0.791   6.402 -0.4575 -0.0559 -0.1274
26184SOL    HW180706   8.231   0.855   6.460  0.6093 -0.6411 -0.2398
26184SOL    HW280707   8.107   0.834   6.374 -0.5796  0.5745  1.1279
26185SOL     OW80708   9.098   1.413   7.780 -0.0779  0.0777 -0.1306
26185SOL    HW180709   9.186   1.380   7.799  0.4140 -0.2067 -2.5608
26185SOL    HW280710   9.102   1.506   7.803  0.1831 -0.3354  1.6766
26186SOL     OW80711   6.768   5.913   7.642  0.0619 -0.4151  0.7296
26186SOL    HW180712   6.765   5.817   7.639 -0.7010 -0.3810  0.2628
26186SOL    HW280713   6.807   5.939   7.559  1.0180 -0.3347  1.1820
26187SOL     OW80714   4.727   8.297   3.319  0.0792 -0.3455  0.3146
26187SOL    HW180715   4.643   8.331   3.289 -0.0853 -1.4137 -0.4713
26187SOL    HW280716   4.775   8.375   3.349  0.1462  0.7933 -2.4655
26188SOL     OW80717   1.370   0.349   7.983  0.1733 -0.2371  0.7599
26188SOL    HW180718   1.353   0.441   7.965  1.6401 -0.0258  0.2670
26188SOL    HW280719   1.286   0.305   7.969 -0.8537  1.1725  2.2164
26189SOL     OW80720   1.374   0.721   1.917 -0.2253  0.2547  0.3237
26189SOL    HW180721   1.316   0.790   1.948 -0.2955  0.1591  0.4089
26189SOL    HW280722   1.362   0.650   1.980  1.1023  0.7742  1.1993
26190SOL     OW80723   0.272   7.848   7.027 -0.0854  0.1153  0.0886
26190SOL    HW180724   0.282   7.832   6.933  0.7734 -1.0661  0.3587
26190SOL    HW280725   0.186   7.889   7.035 -0.3018 -0.0344 -1.1703
26191SOL     OW80726   5.310   6.863   5.070  0.3172  0.2272  0.5176
26191SOL    HW180727   5.363   6.940   5.050 -0.5493 -0.0040 -3.6149
26191SOL    HW280728   5.226   6.898   5.100  1.2538  0.6710  2.8436
26192SOL     OW80729   9.165   9.527   6.759  0.0407  0.3782  0.4253
26192SOL    HW180730   9.086   9.475   6.773  0.9695 -0.9065  1.1229
26192SOL    HW280731   9.147   9.576   6.678 -1.7919  0.8215  1.0414
26193SOL     OW80732   2.454   0.832   2.095  0.5822  0.4388  0.0785
26193SOL    HW180733   2.465   0.874   2.180  0.7739 -1.0540  0.8324
26193SOL    HW280734   2.375   0.871   2.059  0.7541  1.4316  0.7217
26194SOL     OW80735   8.035   4.265   9.510  0.8004  0.0311  0.9769
26194SOL    HW180736   8.099   4.246   9.441 -0.0637  0.4634  0.0157
26194SOL    HW280737   8.087   4.282   9.588  2.0193  2.6897 -0.2844
26195SOL     OW80738   2.881   5.666   7.923 -0.1769 -0.4898 -0.6654
26195SOL    HW180739   2.929   5.588   7.951 -0.4983 -0.3162  0.4421
26195SOL    HW280740   2.893   5.669   7.828  2.3225 -0.2500 -0.4134
26196SOL     OW80741   0.350   6.169   6.440  0.2135 -0.1802  0.1913
26196SOL    HW180742   0.302   6.171   6.357 -1.2024 -0.0564  0.9819
26196SOL    HW280743   0.373   6.261   6.456  3.7121 -0.5424 -1.7912
26197SOL     OW80744   5.685   9.282   6.670 -0.3518 -0.1029  0.1033
26197SOL    HW180745   5.721   9.332   6.743 -0.2363 -0.5087  0.3250
26197SOL    HW280746   5.590   9.288   6.680 -0.3602  0.8452 -0.3974
26198SOL     OW80747   4.227   3.938   6.285 -0.6161  0.2307 -0.3770
26198SOL    HW180748   4.299   3.875   6.276 -1.6754 -1.1448  0.4440
26198SOL    HW280749   4.260   4.002   6.349  0.4095  0.4463 -1.0898
26199SOL     OW80750   4.008   0.911   9.622 -0.4537 -0.3867  0.4331
26199SOL    HW180751   4.025   0.956   9.540 -0.2304 -0.6812  0.3169
26199SOL    HW280752   4.065   0.956   9.686  1.3915 -1.8413 -0.0967
26200SOL     OW80753   1.005   1.175   0.094 -0.0694 -0.1301  0.4020
26200SOL    HW180754   0.997   1.156   0.001 -0.6554  1.3371  0.1416
26200SOL    HW280755   1.098   1.193   0.107 -0.0179 -0.1524  0.0697
26201SOL     OW80756   7.160   7.186   0.989  0.1636 -0.2122 -0.2482
26201SOL    HW180757   7.066   7.175   1.003  0.2354  0.5061  0.9461
26201SOL    HW280758   7.198   7.100   1.008 -0.3567 -0.9607 -2.2428
26202SOL     OW80759   5.691   6.449   8.278  0.2297  0.3777 -0.8651
26202SOL    HW180760   5.730   6.507   8.213  0.6311  1.1559  0.0392
26202SOL    HW280761   5.636   6.506   8.332 -0.3836 -0.3128 -0.7406
26203SOL     OW80762   0.855   2.815   8.720 -0.3102  0.1357  0.0363
26203SOL    HW180763   0.819   2.749   8.779 -3.0864  1.4644  0.0205
26203SOL    HW280764   0.784   2.833   8.659  0.6369  2.4860 -0.4952
26204SOL     OW80765   2.208   8.905   2.199  0.4626 -0.3080  0.4585
26204SOL    HW180766   2.293   8.944   2.179  1.1303 -1.6642  0.5562
26204SOL    HW280767   2.207   8.898   2.294  0.4729 -0.8064  0.4215
26205SOL     OW80768   5.293   6.957   2.745 -0.2189  0.0586 -0.8341
26205SOL    HW180769   5.302   7.014   2.669 -0.7967  1.1801 -0.0953
26205SOL    HW280770   5.269   6.872   2.709 -0.9024  0.6742 -1.8701
26206SOL     OW80771   6.657   4.424   1.415 -0.0285  0.2178  0.0610
26206SOL    HW180772   6.576   4.376   1.398  0.3631 -0.6240  0.4965
26206SOL    HW280773   6.677   4.405   1.507 -0.6268  2.4037  0.7129
26207SOL     OW80774   1.771   5.962   4.195 -0.4305  0.2356  0.1424
26207SOL    HW180775   1.807   5.977   4.282  0.2052  1.6689 -0.3413
26207SOL    HW280776   1.749   5.869   4.194  0.2119  0.0437  1.5757
26208SOL     OW80777   0.523   0.831   7.358  0.3632 -0.0407  0.2491
26208SOL    HW180778   0.488   0.858   7.273  0.2949  0.6696  0.4913
26208SOL    HW280779   0.534   0.736   7.351  1.1250  0.1093 -0.8396
26209SOL     OW80780   0.676   8.393   6.557 -0.4670  0.0550 -0.1795
26209SOL    HW180781   0.650   8.302   6.544 -0.0073 -0.3247  1.3130
26209SOL    HW280782   0.639   8.416   6.642  0.8663  0.6940  0.2565
26210SOL     OW80783   1.572   8.143   8.768 -0.1746  0.6790 -0.2131
26210SOL    HW180784   1.632   8.093   8.713  0.9412  0.2875  1.2825
26210SOL    HW280785   1.488   8.100   8.756  0.5553 -0.9778  0.2616
26211SOL     OW80786   4.544   3.653   1.697 -0.4036 -0.0892 -0.1034
26211SOL    HW180787   4.464   3.609   1.669 -0.4967  0.0126  0.0006
26211SOL    HW280788   4.518   3.744   1.712 -0.5077 -0.2819  0.9645
26212SOL     OW80789   6.920   8.694   8.114 -0.1107  0.3177  0.8686
26212SOL    HW180790   6.922   8.606   8.075  0.2269  1.2199 -1.2945
26212SOL    HW280791   6.988   8.692   8.181  0.9891 -0.6232 -0.2176
26213SOL     OW80792   6.266   6.990   3.504  0.2969 -0.1707  0.3858
26213SOL    HW180793   6.334   6.964   3.442  0.1776 -0.0657  0.2115
26213SOL    HW280794   6.220   7.061   3.460  0.0387 -0.2808  0.4819
26214SOL     OW80795   8.575   8.062   8.205 -0.3279 -0.3031  0.0001
26214SOL    HW180796   8.593   8.123   8.277  0.5571  0.2647 -0.6776
26214SOL    HW280797   8.660   8.048   8.164 -1.0559  0.6693 -1.9410
26215SOL     OW80798   4.323   4.568   8.383 -0.5824 -0.1458 -1.1653
26215SOL    HW180799   4.293   4.615   8.461 -0.4306 -1.4430 -0.2844
26215SOL    HW280800   4.330   4.635   8.315  0.6220  1.2898  0.2971
26216SOL     OW80801   7.777   0.530   7.313  0.7349  0.3652 -0.8846
26216SOL    HW180802   7.717   0.464   7.348  2.1527 -1.5788 -1.9353
26216SOL    HW280803   7.728   0.570   7.241 -0.4716  1.1265  0.3163
26217SOL     OW80804   5.087   3.707   6.739  0.1231 -0.4506  0.2140
26217SOL    HW180805   5.062   3.615   6.729  0.8895 -0.7185  0.7410
26217SOL    HW280806   5.179   3.705   6.762 -0.0117  0.4250  0.8902
26218SOL     OW80807   6.339   2.194   6.309 -0.3471  0.0627  0.5809
26218SOL    HW180808   6.301   2.252   6.242  0.4266 -0.8300 -0.6929
26218SOL    HW280809   6.280   2.119   6.312 -1.1371  0.7090  1.9474
26219SOL     OW80810   2.897   1.651   4.897  0.0605  0.7026  0.5555
26219SOL    HW180811   2.968   1.669   4.959 -1.0469  3.2994  1.1993
26219SOL    HW280812   2.835   1.597   4.946  1.2979 -1.2162  0.1274
26220SOL     OW80813   6.700   6.460   6.595 -0.4672  0.2554 -0.1004
26220SOL    HW180814   6.722   6.547   6.561  0.2350 -0.4368 -1.5290
26220SOL    HW280815   6.641   6.477   6.668  1.7560  2.0369  1.3961
26221SOL     OW80816   1.687   1.138   8.474 -0.4071 -0.1798  0.2777
26221SOL    HW180817   1.705   1.159   8.566  0.6028 -1.8835  0.5165
26221SOL    HW280818   1.635   1.057   8.479 -1.4244  0.3915 -0.6489
26222SOL     OW80819   4.428   7.585   5.667  0.2300  0.0038  1.1526
26222SOL    HW180820   4.363   7.518   5.689  1.6137 -0.9711  2.4372
26222SOL    HW280821   4.394   7.665   5.708  0.1384 -0.6365  2.3731
26223SOL     OW80822   7.646   2.782   2.148 -0.0322  0.6145  0.3737
26223SOL    HW180823   7.634   2.791   2.054  1.7341 -1.1533 -0.0881
26223SOL    HW280824   7.738   2.807   2.163 -0.3961  1.2708  1.7059
26224SOL     OW80825   4.201   5.665   3.270 -0.0191 -0.0143  0.8223
26224SOL    HW180826   4.268   5.726   3.238  1.9804 -2.1081  0.7255
26224SOL    HW280827   4.207   5.670   3.365  1.6665 -1.5091  0.8439
26225SOL     OW80828   6.729   1.612   5.729 -0.1287 -0.6976 -0.2297
26225SOL    HW180829   6.768   1.563   5.802  0.4369 -0.4848 -0.3885
26225SOL    HW280830   6.652   1.655   5.768  0.2150 -0.5174  0.2630
26226SOL     OW80831   3.026   2.083   8.667  0.2305 -0.6720  0.7939
26226SOL    HW180832   3.014   2.165   8.619 -2.2085 -1.0842  0.5878
26226SOL    HW280833   3.107   2.096   8.716  1.4717  0.7319 -1.4432
26227SOL     OW80834   6.182   6.414   8.370  0.2435 -0.0787 -0.4245
26227SOL    HW180835   6.230   6.457   8.441  2.3567 -2.3471 -0.3445
26227SOL    HW280836   6.117   6.360   8.415 -2.0752  2.3920 -0.5133
26228SOL     OW80837   1.441   3.158   5.471  0.2666  0.6810 -0.0611
26228SOL    HW180838   1.478   3.246   5.464 -0.4625  0.8807 -2.1047
26228SOL    HW280839   1.356   3.171   5.513  0.8917  0.6773  1.2793
26229SOL     OW80840   3.393   3.534   2.471 -0.2052 -0.1644  0.3891
26229SOL    HW180841   3.413   3.489   2.390  1.9915 -0.2220  0.8906
26229SOL    HW280842   3.340   3.472   2.521 -1.9308  0.0358 -1.1201
26230SOL     OW80843   3.191   3.196   7.292  0.4254 -0.1316  0.2217
26230SOL    HW180844   3.181   3.176   7.199  2.8683 -0.4231 -0.0403
26230SOL    HW280845   3.125   3.264   7.309 -0.3179 -0.3338 -1.6115
26231SOL     OW80846   3.256   1.656   1.892  0.3010 -0.2325  0.3343
26231SOL    HW180847   3.262   1.684   1.801 -0.6718 -1.2893 -0.0797
26231SOL    HW280848   3.162   1.654   1.910  0.4470 -0.9913  1.0483
26232SOL     OW80849   8.853   6.921   7.653 -0.5085 -0.1405 -1.0490
26232SOL    HW180850   8.833   6.854   7.588  1.9400 -2.0515 -0.0388
26232SOL    HW280851   8.789   6.908   7.722 -0.1225 -1.4230 -0.9145
26233SOL     OW80852   9.047   8.728   9.353 -0.0775  0.2674 -0.2489
26233SOL    HW180853   9.051   8.816   9.391  4.4918  0.7675 -1.3429
26233SOL    HW280854   9.076   8.670   9.423  1.3470  0.2769 -0.8028
26234SOL     OW80855   9.596   4.626   8.115 -0.6190  0.7989 -0.0768
26234SOL    HW180856   9.626   4.640   8.025  0.0297  1.2633  0.2042
26234SOL    HW280857   9.566   4.535   8.116  2.9515 -0.5476  0.1533
26235SOL     OW80858   2.550   0.843   6.150  0.1236 -0.4824 -0.1729
26235SOL    HW180859   2.498   0.794   6.086  1.2807 -0.8143 -0.8919
26235SOL    HW280860   2.486   0.880   6.210 -1.0023 -0.1722 -1.5225
26236SOL     OW80861   2.548   8.692   8.834  0.5879 -0.1307  0.2002
26236SOL    HW180862   2.465   8.680   8.879 -0.4908  1.4109 -1.2386
26236SOL    HW280863   2.582   8.604   8.820 -0.5689 -0.7596  1.2440
26237SOL     OW80864   3.861   0.345   4.481 -0.1854 -0.2962  0.1007
26237SOL    HW180865   3.793   0.321   4.417  1.4566 -1.1059 -1.4257
26237SOL    HW280866   3.895   0.428   4.447  2.6436 -2.0968 -1.8437
26238SOL     OW80867   5.419   6.498   3.149  0.2729 -0.3851 -0.0575
26238SOL    HW180868   5.442   6.417   3.105 -0.8080  0.2046 -1.7852
26238SOL    HW280869   5.332   6.481   3.186  0.6180 -0.4325  0.7696
26239SOL     OW80870   7.412   7.685   7.715 -0.1928  0.6288 -0.2072
26239SOL    HW180871   7.469   7.616   7.746 -0.1117  0.7105 -0.1741
26239SOL    HW280872   7.393   7.737   7.793  2.2354  2.4753 -0.7117
26240SOL     OW80873   3.584   8.336   2.625 -0.1370 -0.2882 -0.3797
26240SOL    HW180874   3.576   8.349   2.531  1.9399 -0.5467 -0.6213
26240SOL    HW280875   3.657   8.391   2.652  1.0847 -2.2764  0.5799
26241SOL     OW80876   3.607   9.074   5.861  0.0493  0.5394 -0.2004
26241SOL    HW180877   3.591   9.095   5.769 -1.5455 -0.9035 -0.2937
26241SOL    HW280878   3.629   8.981   5.862  0.3776  0.6071  0.8565
26242SOL     OW80879   9.183   4.558   7.238 -0.5861  0.3110  0.3202
26242SOL    HW180880   9.274   4.576   7.217 -0.0290 -1.5178  0.9935
26242SOL    HW280881   9.160   4.624   7.304  1.3941 -1.3144  2.8168
26243SOL     OW80882   6.869   2.301   0.867 -0.6836  0.0767  0.3307
26243SOL    HW180883   6.919   2.381   0.852  0.8846 -0.3279  2.7887
26243SOL    HW280884   6.913   2.235   0.813  0.0291  0.2304  0.7012
26244SOL     OW80885   2.610   4.252   3.031 -0.3303 -0.3028  0.1026
26244SOL    HW180886   2.650   4.183   3.084 -0.3481 -0.1568  0.3058
26244SOL    HW280887   2.599   4.325   3.091  1.0852  0.4129 -0.4585
26245SOL     OW80888   7.416   7.920   1.360  0.0318  0.1401 -0.2578
26245SOL    HW180889   7.322   7.933   1.378 -0.0941 -1.2196  0.1737
26245SOL    HW280890   7.460   7.980   1.421 -0.5493  1.6896 -1.2962
26246SOL     OW80891   1.664   4.658   5.859  0.4762  0.0597 -0.1214
26246SOL    HW180892   1.697   4.683   5.945 -2.4471 -0.0548  1.1634
26246SOL    HW280893   1.720   4.585   5.832  2.0339  0.6909  1.2325
26247SOL     OW80894   8.474   8.565   7.532  0.0515  0.1822 -0.9123
26247SOL    HW180895   8.496   8.482   7.490  0.7547 -0.2988  0.3633
26247SOL    HW280896   8.400   8.599   7.481  0.4718 -0.6789 -2.1215
26248SOL     OW80897   8.180   6.267   2.675  0.4651  0.8137 -0.3881
26248SOL    HW180898   8.104   6.321   2.697  1.1950  1.5395  0.4313
26248SOL    HW280899   8.196   6.284   2.582  1.0340  2.5169 -0.0257
26249SOL     OW80900   0.402   6.036   4.061  0.3770 -0.5395  0.3267
26249SOL    HW180901   0.475   6.019   4.002 -1.2856 -1.3979 -1.5783
26249SOL    HW280902   0.374   5.949   4.090 -0.6171 -0.3131  0.0835
26250SOL     OW80903   3.548   3.296   3.009 -0.4310  0.3625 -0.1995
26250SOL    HW180904   3.524   3.309   3.101  2.1489  1.2816  0.4332
26250SOL    HW280905   3.547   3.201   2.997 -0.2140  0.2076  0.9423
26251SOL     OW80906   1.828   5.752   7.896  0.5546 -0.0908 -0.1348
26251SOL    HW180907   1.823   5.811   7.970 -0.1324 -0.2006 -0.0850
26251SOL    HW280908   1.921   5.729   7.889  1.1649  2.3708 -1.2665
26252SOL     OW80909   6.077   7.647   7.464  0.3709 -0.3467 -0.2652
26252SOL    HW180910   6.146   7.595   7.506  0.9191  2.2733  2.4089
26252SOL    HW280911   5.997   7.598   7.479  1.3546 -2.8816 -2.4119
26253SOL     OW80912   0.657   7.774   3.904  0.0685  0.0074 -0.1811
26253SOL    HW180913   0.574   7.786   3.857 -0.6397 -1.1080  0.7162
26253SOL    HW280914   0.635   7.791   3.995  1.5292  2.6217 -0.2290
26254SOL     OW80915   9.344   1.836   1.457 -0.5386  0.0814 -0.1072
26254SOL    HW180916   9.260   1.833   1.411 -0.5590  2.3431 -0.3688
26254SOL    HW280917   9.321   1.831   1.550 -0.8251 -0.7827 -0.2202
26255SOL     OW80918   8.283   6.770   4.765 -0.7669  0.0199 -0.2049
26255SOL    HW180919   8.232   6.760   4.684 -2.5448 -1.1723  1.0000
26255SOL    HW280920   8.234   6.834   4.817 -0.9536 -0.9623  0.8718
26256SOL     OW80921   1.521   3.007   1.045 -0.0807 -0.0680  0.4090
26256SOL    HW180922   1.425   3.012   1.042 -0.1147 -0.8069 -2.2968
26256SOL    HW280923   1.539   2.948   1.119 -1.5032  2.1597  2.7252
26257SOL     OW80924   1.743   8.315   7.717 -0.0225  0.6106 -0.1243
26257SOL    HW180925   1.790   8.359   7.787 -0.0377 -0.9996  0.9672
26257SOL    HW280926   1.768   8.223   7.726  0.2650  0.3944 -2.4959
26258SOL     OW80927   0.220   4.822   2.152  0.2365 -0.3609 -0.2508
26258SOL    HW180928   0.128   4.832   2.177 -0.9109  0.2528 -4.0132
26258SOL    HW280929   0.255   4.911   2.157  1.0425 -0.7347  2.1505
26259SOL     OW80930   5.165   2.689   1.569 -0.1451  0.2477 -0.3022
26259SOL    HW180931   5.185   2.640   1.650 -3.2463 -0.2726  0.2723
26259SOL    HW280932   5.160   2.621   1.502 -1.3680  0.1539 -0.1303
26260SOL     OW80933   2.945   4.797   6.204  0.4547 -0.2160 -0.1189
26260SOL    HW180934   2.967   4.854   6.130  2.4985 -3.3657 -2.1758
26260SOL    HW280935   3.012   4.815   6.270  1.0130 -0.1627 -0.7012
26261SOL     OW80936   6.739   2.648   5.601  0.5467 -0.2556  0.5177
26261SOL    HW180937   6.806   2.596   5.647  1.3712  0.1744 -0.1731
26261SOL    HW280938   6.764   2.643   5.509  0.1562  0.6844  0.3565
26262SOL     OW80939   3.313   1.314   3.740 -0.6490  0.0912 -0.0446
26262SOL    HW180940   3.299   1.300   3.834  0.4290  1.6446  0.3953
26262SOL    HW280941   3.233   1.281   3.698 -2.2752  1.6968  1.6296
26263SOL     OW80942   3.727   0.754   1.699 -0.1253 -0.0003  0.0519
26263SOL    HW180943   3.749   0.825   1.758  0.3109  0.4113 -0.5938
26263SOL    HW280944   3.795   0.688   1.713 -1.1690 -0.8471  1.5035
26264SOL     OW80945   7.186   1.516   2.208  0.4248  0.0093 -0.0031
26264SOL    HW180946   7.117   1.469   2.162  0.8970 -0.5823 -0.1208
26264SOL    HW280947   7.250   1.538   2.140  0.5668  0.1557  0.1753
26265SOL     OW80948   7.161   7.647   5.126 -0.0436 -0.2148  0.1172
26265SOL    HW180949   7.231   7.584   5.113 -0.9153 -0.7922 -2.3960
26265SOL    HW280950   7.119   7.620   5.207  0.5590 -1.9272 -0.0950
26266SOL     OW80951   3.067   9.219   2.002  0.0226 -0.4457  0.1849
26266SOL    HW180952   3.149   9.256   2.034 -0.4630  0.5104  0.3597
26266SOL    HW280953   3.002   9.242   2.069 -0.2612 -1.8095  0.4074
26267SOL     OW80954   4.714   0.251   3.821 -0.4637  0.2706 -0.5656
26267SOL    HW180955   4.774   0.188   3.781 -0.4910 -0.2306  0.1548
26267SOL    HW280956   4.632   0.241   3.773  0.4473  2.1713 -2.7200
26268SOL     OW80957   6.354   5.981   2.656  0.0851  0.1926 -0.0005
26268SOL    HW180958   6.292   6.002   2.726  0.6739  2.0145  0.0151
26268SOL    HW280959   6.320   6.025   2.579  1.6993  1.8535  0.1786
26269SOL     OW80960   5.701   6.455   5.012  0.0782 -0.4346  0.2602
26269SOL    HW180961   5.722   6.368   5.044  1.6470 -0.1942 -0.0399
26269SOL    HW280962   5.643   6.492   5.079  1.0997 -0.9295  1.4434
26270SOL     OW80963   7.801   5.681   4.559  0.0485 -0.1741  0.4849
26270SOL    HW180964   7.854   5.628   4.619  0.2591 -0.9003 -0.3359
26270SOL    HW280965   7.711   5.661   4.584  0.0031  2.9567  3.6006
26271SOL     OW80966   8.530   9.361   2.298 -0.3754  0.3666  0.6376
26271SOL    HW180967   8.503   9.372   2.389  0.8872  1.2232  0.9280
26271SOL    HW280968   8.454   9.322   2.255 -0.5078 -1.4476  2.3622
26272SOL     OW80969   6.901   4.121   3.432 -0.0538  0.2511 -0.0580
26272SOL    HW180970   6.933   4.031   3.423 -0.2434  0.0452  1.2406
26272SOL    HW280971   6.970   4.166   3.480 -1.6577 -0.2493  2.9617
26273SOL     OW80972   6.539   2.090   4.426 -0.2305 -0.0820 -0.3339
26273SOL    HW180973   6.530   2.027   4.354 -0.8635 -2.2164  1.5132
26273SOL    HW280974   6.460   2.078   4.478  0.1156  1.5688  0.6349
26274SOL     OW80975   3.419   9.092   3.128  0.3710  0.5416  0.2853
26274SOL    HW180976   3.402   9.012   3.178 -0.0135  0.3375 -0.1647
26274SOL    HW280977   3.438   9.158   3.195  0.2158  0.1866  0.6851
26275SOL     OW80978   9.124   2.375   8.826  0.2508 -0.2560 -0.2769
26275SOL    HW180979   9.093   2.462   8.800  1.0013 -0.0673 -0.5638
26275SOL    HW280980   9.207   2.391   8.871  0.2682 -0.8055 -0.1042
26276SOL     OW80981   7.015   7.973   9.515  0.1678 -0.4404  0.3154
26276SOL    HW180982   7.021   7.877   9.517  0.3214 -0.4910 -1.4631
26276SOL    HW280983   6.993   7.994   9.424 -0.3596  1.1994  0.7892
26277SOL     OW80984   6.035   6.205   7.140  0.3406  0.3965 -0.5568
26277SOL    HW180985   6.093   6.132   7.160  0.4045  0.4767 -0.4466
26277SOL    HW280986   5.953   6.184   7.186 -0.4289 -0.7081 -2.3358
26278SOL     OW80987   2.741   3.643   3.312  0.0925  0.5469  0.1608
26278SOL    HW180988   2.781   3.634   3.398 -1.8219 -0.2516  1.0370
26278SOL    HW280989   2.653   3.678   3.330 -1.2482 -1.8856 -1.1922
26279SOL     OW80990   5.470   3.565   9.607 -0.2825  0.0869  0.9904
26279SOL    HW180991   5.457   3.470   9.610 -4.1681  0.4224 -0.0467
26279SOL    HW280992   5.490   3.583   9.515  0.5023  0.2930  1.1966
26280SOL     OW80993   5.744   3.675   3.056  0.0840  0.2728  0.3203
26280SOL    HW180994   5.779   3.609   2.998  0.9454 -0.8855  2.0641
26280SOL    HW280995   5.820   3.708   3.104 -0.7845 -0.2454  2.1661
26281SOL     OW80996   3.217   7.637   8.793  0.4552  0.1281 -0.1010
26281SOL    HW180997   3.168   7.577   8.737  0.5165  1.9474 -2.2579
26281SOL    HW280998   3.154   7.664   8.860  0.3719 -2.0956  0.7871
26282SOL     OW80999   5.834   7.029   2.695  0.0742 -0.1349 -0.2082
26282SOL    HW181000   5.745   7.047   2.665 -0.1581 -1.3911 -0.3361
26282SOL    HW281001   5.843   6.934   2.687  1.2912 -0.0700  0.1876
26283SOL     OW81002   3.935   3.717   7.224  0.4653  0.0562  0.0330
26283SOL    HW181003   4.014   3.666   7.244  0.7587 -0.6468 -2.4718
26283SOL    HW281004   3.863   3.660   7.249  0.8057 -0.8883 -1.0115
26284SOL     OW81005   3.514   5.731   0.730  0.3993  0.2177  0.2365
26284SOL    HW181006   3.500   5.640   0.704  0.5959  0.1502  0.3641
26284SOL    HW281007   3.452   5.781   0.676 -0.0356 -0.0346  0.4931
26285SOL     OW81008   3.677   8.348   2.998  0.2326  0.2843  0.5707
26285SOL    HW181009   3.648   8.312   3.082 -1.6187  1.5224  0.5425
26285SOL    HW281010   3.683   8.442   3.014  0.3309  0.4816 -0.5466
26286SOL     OW81011   8.107   5.195   6.533 -0.7569  0.1220  0.0979
26286SOL    HW181012   8.195   5.159   6.522 -0.5162  0.8025 -0.2770
26286SOL    HW281013   8.058   5.126   6.577  0.0261 -0.1845  0.5178
26287SOL     OW81014   1.725   7.857   3.405 -0.1526 -0.5342 -0.0090
26287SOL    HW181015   1.641   7.899   3.427  0.1457 -0.1842  0.4930
26287SOL    HW281016   1.787   7.930   3.403 -0.0825 -0.6013 -1.6687
26288SOL     OW81017   9.625   0.393   3.437  0.2040 -0.1885 -0.5518
26288SOL    HW181018   9.552   0.433   3.390  0.7634 -0.5043 -1.7348
26288SOL    HW281019   9.606   0.409   3.529 -1.8855 -1.1165 -0.7585
26289SOL     OW81020   7.420   6.886   9.022 -0.5162  0.2511 -0.0878
26289SOL    HW181021   7.379   6.963   8.982 -0.1442  0.0588 -0.8619
26289SOL    HW281022   7.467   6.844   8.950 -3.3616 -2.5681 -0.4999
26290SOL     OW81023   9.007   1.748   5.366 -0.0840  0.0477 -0.6022
26290SOL    HW181024   9.058   1.769   5.288  0.1981 -2.2008 -1.0789
26290SOL    HW281025   9.073   1.738   5.435  0.1039 -2.0602 -1.0390
26291SOL     OW81026   4.620   4.420   1.215  0.0188  0.7373 -0.1316
26291SOL    HW181027   4.622   4.512   1.239  0.8199  0.3881  1.2536
26291SOL    HW281028   4.676   4.414   1.138 -0.5807  1.4924 -0.6447
26292SOL     OW81029   5.871   0.380   0.867  0.1438 -0.2911 -0.7757
26292SOL    HW181030   5.912   0.392   0.952  0.5091 -2.7746 -0.5299
26292SOL    HW281031   5.786   0.424   0.875 -0.1128 -1.0281  1.1144
26293SOL     OW81032   4.548   3.905   2.085 -0.0261  0.1466 -0.0577
26293SOL    HW181033   4.546   4.000   2.090 -0.3361  0.1441 -0.1067
26293SOL    HW281034   4.590   3.886   2.001 -1.4336  0.2638 -0.8228
26294SOL     OW81035   4.792   6.988   2.471 -0.0952  0.6237 -0.1187
26294SOL    HW181036   4.790   7.059   2.535 -0.5830  0.1332  0.4188
26294SOL    HW281037   4.827   6.913   2.520 -0.9959  0.0960 -0.2626
26295SOL     OW81038   0.895   6.538   8.216  0.2980  0.7607  0.2618
26295SOL    HW181039   0.848   6.474   8.270 -3.2469  1.2996 -1.8236
26295SOL    HW281040   0.902   6.496   8.130 -0.5902  2.4578 -0.6984
26296SOL     OW81041   4.851   4.769   8.318  0.1432  0.4030  0.2817
26296SOL    HW181042   4.845   4.734   8.407 -0.4341  0.3747  0.2403
26296SOL    HW281043   4.764   4.751   8.281 -0.0590  1.5991  0.1590
26297SOL     OW81044   6.556   1.898   4.234 -0.0950  0.2842  0.2671
26297SOL    HW181045   6.537   1.917   4.142 -0.7660 -1.4401  0.0061
26297SOL    HW281046   6.471   1.876   4.272  0.5533 -2.4955  0.3734
26298SOL     OW81047   0.497   9.134   7.751  0.0837 -0.4549  0.0464
26298SOL    HW181048   0.535   9.173   7.830  0.6824 -0.9201 -0.0123
26298SOL    HW281049   0.480   9.209   7.694  1.3516 -0.2790 -0.1235
26299SOL     OW81050   7.519   1.364   2.420 -0.5394 -0.6433 -0.1403
26299SOL    HW181051   7.542   1.376   2.328 -0.7588  2.2923  0.0906
26299SOL    HW281052   7.433   1.406   2.429 -0.1984 -0.2242  1.5063
26300SOL     OW81053   0.801   5.265   8.056 -0.1898 -0.4053  0.1189
26300SOL    HW181054   0.874   5.315   8.091  0.1365  1.1712 -2.5595
26300SOL    HW281055   0.734   5.330   8.036 -1.9163 -1.6904  1.3863
26301SOL     OW81056   0.930   9.216   5.485  0.2146 -0.1157 -0.1866
26301SOL    HW181057   0.948   9.310   5.492 -1.5641  0.2054  0.6384
26301SOL    HW281058   1.008   9.180   5.443  1.2333  1.6214  0.1012
26302SOL     OW81059   5.435   3.485   7.824 -0.2779  0.2759  0.0416
26302SOL    HW181060   5.446   3.577   7.850 -0.1557  0.1213  0.5277
26302SOL    HW281061   5.524   3.450   7.821 -0.3286  0.1561 -0.1031
26303SOL     OW81062   8.939   7.373   6.024 -0.3120  0.2796 -0.2826
26303SOL    HW181063   8.895   7.291   6.048 -1.6609  1.0295 -0.1078
26303SOL    HW281064   8.971   7.358   5.936 -1.1922 -0.2058 -0.5375
26304SOL     OW81065   8.322   2.805   7.752 -0.2694  0.2107  0.3422
26304SOL    HW181066   8.324   2.880   7.693 -1.3070 -0.6641 -0.8505
26304SOL    HW281067   8.247   2.822   7.809 -1.1941 -0.4418 -0.6621
26305SOL     OW81068   3.429   6.393   4.218 -0.4861  0.1637  0.3095
26305SOL    HW181069   3.480   6.319   4.250 -0.7582 -0.4047 -0.5311
26305SOL    HW281070   3.355   6.352   4.173  0.6970  0.8717 -2.4165
26306SOL     OW81071   0.009   1.134   4.633  0.0730 -0.3903  0.0366
26306SOL    HW181072  -0.042   1.148   4.553 -0.2971  1.1811  0.5110
26306SOL    HW281073   0.007   1.219   4.678  0.9740 -1.0114  1.3116
26307SOL     OW81074   2.184   0.178   4.283 -0.1693  0.1275  0.3317
26307SOL    HW181075   2.207   0.267   4.256 -0.5691 -0.0539 -0.6128
26307SOL    HW281076   2.249   0.157   4.351 -1.1386  1.7857  1.8643
26308SOL     OW81077   5.399   7.995   5.721  0.4417  0.6984 -0.1087
26308SOL    HW181078   5.390   8.067   5.659  1.4684  0.4998 -0.5188
26308SOL    HW281079   5.412   8.038   5.806  0.6431  1.0040 -0.2888
26309SOL     OW81080   3.291   1.363   7.062  0.4930 -0.0346  0.0894
26309SOL    HW181081   3.230   1.353   6.988  0.6571 -0.9162  0.0515
26309SOL    HW281082   3.237   1.347   7.139  0.4459  0.2833  0.1211
26310SOL     OW81083   4.800   5.024   8.173  0.1230 -0.0605 -0.0937
26310SOL    HW181084   4.882   5.009   8.220  1.5624  0.1276 -2.3788
26310SOL    HW281085   4.744   4.951   8.199  2.2651 -2.1901 -1.0291
26311SOL     OW81086   0.449   5.795   3.454 -0.0307 -0.3867 -0.1322
26311SOL    HW181087   0.432   5.884   3.484  1.4932 -0.1486  0.0832
26311SOL    HW281088   0.455   5.743   3.534 -1.3173 -0.7847 -0.2704
26312SOL     OW81089   9.469   0.207   7.455  0.1167 -0.4163 -0.4156
26312SOL    HW181090   9.404   0.168   7.396 -0.3647  0.6483 -0.6056
26312SOL    HW281091   9.456   0.301   7.446  0.6492 -0.2212  0.7292
26313SOL     OW81092   2.937   4.499   6.569  0.3496  0.3953 -0.0846
26313SOL    HW181093   2.929   4.481   6.475 -1.0295 -1.0860  0.2814
26313SOL    HW281094   2.892   4.583   6.581  0.6386  0.6548 -0.7620
26314SOL     OW81095   9.466   4.452   0.939 -0.0025 -0.9855 -0.1699
26314SOL    HW181096   9.407   4.377   0.937 -1.3809 -0.0411  1.8869
26314SOL    HW281097   9.538   4.425   0.994 -0.1886 -1.0246  0.0564
26315SOL     OW81098   9.176   7.450   2.159  0.5532  0.0196  0.4327
26315SOL    HW181099   9.265   7.485   2.170  1.3281 -1.8351  0.5450
26315SOL    HW281100   9.167   7.435   2.065  0.1180  0.7566  0.3511
26316SOL     OW81101   8.162   0.070   5.099 -0.0956  0.1867  0.2585
26316SOL    HW181102   8.212   0.152   5.096 -1.2198  0.9974  2.1324
26316SOL    HW281103   8.116   0.067   5.016 -0.2403  1.6029  0.2680
26317SOL     OW81104   5.560   1.237   8.684  0.0968 -0.2391 -0.2388
26317SOL    HW181105   5.485   1.223   8.741  0.7136 -1.1924  0.3717
26317SOL    HW281106   5.570   1.332   8.681 -0.5128 -0.1409  0.4900
26318SOL     OW81107   0.519   2.326   4.558  0.2966 -0.1917 -0.5538
26318SOL    HW181108   0.554   2.410   4.588  1.2778  0.1854 -2.5678
26318SOL    HW281109   0.583   2.261   4.586 -0.7304 -0.3940  1.4819
26319SOL     OW81110   5.354   5.527   5.855  1.1639 -0.5601 -0.3683
26319SOL    HW181111   5.406   5.586   5.909  1.9121  0.4903 -2.1590
26319SOL    HW281112   5.366   5.441   5.896  1.3689  0.2366  1.3391
26320SOL     OW81113   6.016   6.385   1.006  0.3964 -0.2605  0.8324
26320SOL    HW181114   5.962   6.463   1.018  0.4831  0.0847 -0.7006
26320SOL    HW281115   6.103   6.420   0.985  0.4129 -0.7427  0.0271
26321SOL     OW81116   4.376   9.322   8.931  0.3566  0.3816 -0.7367
26321SOL    HW181117   4.417   9.330   9.017 -0.8866  2.2347 -0.2663
26321SOL    HW281118   4.427   9.381   8.875  0.4948  0.0022 -1.0154
26322SOL     OW81119   5.351   0.425   0.176 -0.2660 -0.3587 -0.4700
26322SOL    HW181120   5.377   0.490   0.242  0.4107 -0.9307 -0.1666
26322SOL    HW281121   5.365   0.470   0.093  0.3399 -0.1610 -0.2656
26323SOL     OW81122   0.470   2.061   5.686  0.5850  0.2075  0.5993
26323SOL    HW181123   0.482   2.069   5.781  0.7527 -1.5139  0.7551
26323SOL    HW281124   0.394   2.004   5.676  1.3803 -0.7464 -0.2689
26324SOL     OW81125   1.843   5.546   5.175  0.3457 -0.4073 -0.3327
26324SOL    HW181126   1.899   5.534   5.098  0.0717 -3.2758 -0.1967
26324SOL    HW281127   1.849   5.463   5.222 -0.1853  0.9419  2.3204
26325SOL     OW81128   8.914   2.719   3.171  0.1056 -0.3788  0.0592
26325SOL    HW181129   8.962   2.802   3.169 -0.7420  0.1707  1.3670
26325SOL    HW281130   8.867   2.717   3.087 -0.1701  0.6601  0.1757
26326SOL     OW81131   9.035   3.515   4.604 -0.2781  0.2941 -0.0484
26326SOL    HW181132   9.012   3.427   4.574  1.1092  0.5941 -2.2128
26326SOL    HW281133   9.076   3.556   4.528  1.2988  1.9822  1.6082
26327SOL     OW81134   1.194   6.031   8.205  0.1516 -0.3025 -0.1367
26327SOL    HW181135   1.220   6.096   8.140 -0.2969 -0.0836 -0.1012
26327SOL    HW281136   1.254   5.958   8.191 -1.1356 -1.0634 -2.1019
26328SOL     OW81137   9.598   4.471   1.621  0.5009 -0.4876  0.0239
26328SOL    HW181138   9.602   4.566   1.631  3.9940 -0.5923  0.6714
26328SOL    HW281139   9.555   4.458   1.537  0.4822  1.6907 -0.3683
26329SOL     OW81140   3.292   1.834   8.724  0.3510 -0.0805  0.5583
26329SOL    HW181141   3.212   1.782   8.735  0.3602 -0.7230 -1.9362
26329SOL    HW281142   3.308   1.834   8.630  2.3325  1.5275  0.8360
26330SOL     OW81143   3.036   3.855   2.422 -0.8364 -0.3095 -0.8320
26330SOL    HW181144   3.084   3.872   2.341  0.2366  0.7732 -0.0108
26330SOL    HW281145   3.104   3.829   2.484 -1.2728  1.3877  0.4109
26331SOL     OW81146   5.340   1.200   4.242 -0.3384  0.5192  0.3614
26331SOL    HW181147   5.250   1.228   4.232 -0.8075 -1.3434 -1.0936
26331SOL    HW281148   5.388   1.246   4.173 -0.8560 -1.0585 -1.1220
26332SOL     OW81149   1.593   7.387   6.302 -0.0623  0.7300  0.5546
26332SOL    HW181150   1.507   7.347   6.319 -1.0144  1.4470 -2.0925
26332SOL    HW281151   1.643   7.317   6.260 -1.5479  1.8607 -3.5768
26333SOL     OW81152   8.943   3.841   5.978 -0.0059  0.5219  0.2311
26333SOL    HW181153   8.879   3.788   5.932  1.0962 -1.1452  0.5263
26333SOL    HW281154   9.027   3.799   5.960  0.9838  2.3799  0.2020
26334SOL     OW81155   3.286   0.915   3.621  0.4933 -0.2555  0.0808
26334SOL    HW181156   3.369   0.956   3.646  0.2559  0.2420  0.0587
26334SOL    HW281157   3.220   0.979   3.645  0.2139 -0.0321 -1.2412
26335SOL     OW81158   1.818   3.655   0.825  0.3471  0.0055  0.0849
26335SOL    HW181159   1.879   3.584   0.848  1.3485  0.1103 -2.0158
26335SOL    HW281160   1.825   3.662   0.730 -0.1985  2.5323  0.1712
26336SOL     OW81161   3.679   8.404   3.496  0.2928 -0.1886 -0.1679
26336SOL    HW181162   3.626   8.348   3.553  1.3123 -1.7047 -0.6567
26336SOL    HW281163   3.768   8.368   3.503  1.2319  2.0680  0.3703
26337SOL     OW81164   7.421   4.508   6.247  0.0856  0.4044 -0.1550
26337SOL    HW181165   7.416   4.495   6.152  0.8386  0.5407 -0.2188
26337SOL    HW281166   7.511   4.486   6.270  0.1687  1.2673  0.3918
26338SOL     OW81167   2.891   3.088   9.072  0.3184 -0.5562  0.4952
26338SOL    HW181168   2.921   3.148   9.140 -0.2519  0.4091 -0.0759
26338SOL    HW281169   2.869   3.008   9.118  0.4760 -0.1075  1.3703
26339SOL     OW81170   4.381   5.579   7.248 -0.1522  0.0146 -0.0036
26339SOL    HW181171   4.434   5.598   7.326 -1.0853  0.1582  0.6090
26339SOL    HW281172   4.410   5.492   7.220 -0.6308 -0.5524  1.2073
26340SOL     OW81173   3.525   3.732   7.159 -0.1799 -0.5291  0.0014
26340SOL    HW181174   3.602   3.724   7.103  0.0130  1.3611 -0.0777
26340SOL    HW281175   3.477   3.651   7.146  0.7098 -0.8323 -1.6023
26341SOL     OW81176   8.985   9.428   5.871 -0.4139  0.3067 -0.1353
26341SOL    HW181177   9.078   9.405   5.867 -0.2673  0.9853 -0.9474
26341SOL    HW281178   8.969   9.446   5.963  0.7402  1.9705 -0.2000
26342SOL     OW81179   4.541   4.469   5.739 -0.1008 -0.0071  0.2819
26342SOL    HW181180   4.618   4.435   5.784  0.7202  0.8575 -0.4299
26342SOL    HW281181   4.470   4.409   5.764  0.5751 -0.2386  1.7279
26343SOL     OW81182   9.047   6.541   1.672  0.1319  0.3709  0.1079
26343SOL    HW181183   8.963   6.539   1.627 -0.3794  1.7830  0.9319
26343SOL    HW281184   9.104   6.591   1.614  0.4133 -0.5008 -0.4029
26344SOL     OW81185   4.988   4.817   2.783  0.1215 -0.2580  0.0617
26344SOL    HW181186   5.077   4.824   2.820  0.0221  0.3730  0.2067
26344SOL    HW281187   5.000   4.775   2.699  0.8174  1.4830 -0.7660
26345SOL     OW81188   2.290   8.967   8.896  0.5255 -0.0218  0.2115
26345SOL    HW181189   2.366   9.008   8.936  0.9619 -0.8604  0.2598
26345SOL    HW281190   2.302   8.873   8.911 -1.8582 -0.0599  2.6769
26346SOL     OW81191   5.545   5.546   2.885 -0.2212 -0.4006  0.0361
26346SOL    HW181192   5.495   5.576   2.809 -2.1129  2.4610  2.1907
26346SOL    HW281193   5.617   5.608   2.893 -0.8878  0.2507  1.3370
26347SOL     OW81194   7.882   0.111   7.461  0.3308  0.9020  0.7081
26347SOL    HW181195   7.956   0.055   7.439 -0.8312  0.0741 -1.3562
26347SOL    HW281196   7.910   0.199   7.435  0.1772  0.4066 -1.2543
26348SOL     OW81197   0.163   1.733   8.315 -0.0997 -0.3450  0.0114
26348SOL    HW181198   0.167   1.643   8.346  0.8442 -0.6398 -0.9177
26348SOL    HW281199   0.235   1.777   8.360  0.4636 -0.4612 -0.7623
26349SOL     OW81200   6.697   1.062   8.084 -0.3256 -0.1612 -0.1349
26349SOL    HW181201   6.605   1.072   8.106 -0.5024 -0.4167 -0.7229
26349SOL    HW281202   6.703   1.095   7.994 -0.0096 -0.9191 -0.3991
26350SOL     OW81203   5.840   0.168   2.759 -0.6542 -0.2237 -0.0334
26350SOL    HW181204   5.847   0.080   2.722 -0.4407 -0.6666  1.0446
26350SOL    HW281205   5.749   0.174   2.790 -0.1263 -0.8220  1.7218
26351SOL     OW81206   2.122   1.402   1.740  0.1928 -0.3713  0.0793
26351SOL    HW181207   2.111   1.344   1.664 -1.8385 -0.7439  0.6112
26351SOL    HW281208   2.115   1.490   1.704 -2.7149 -0.5510  0.0131
26352SOL     OW81209   7.879   0.980   5.821  0.2450  0.2928 -0.2302
26352SOL    HW181210   7.975   0.976   5.817  0.2312  0.6366 -1.7510
26352SOL    HW281211   7.860   1.071   5.845  0.3125  0.5818 -1.2142
26353SOL     OW81212   8.753   8.595   7.528  0.1762 -0.1222  0.1825
26353SOL    HW181213   8.767   8.505   7.498  0.3567  0.0847 -0.3694
26353SOL    HW281214   8.665   8.594   7.567  0.7498 -0.8746  1.5297
26354SOL     OW81215   2.371   6.994   9.620 -0.0616  0.8348  0.1537
26354SOL    HW181216   2.337   6.976   9.707  1.0408 -0.0555  0.4277
26354SOL    HW281217   2.355   6.914   9.570 -0.9699  1.4477 -0.5685
26355SOL     OW81218   0.937   2.765   7.246  0.0203 -0.0208 -0.2603
26355SOL    HW181219   1.019   2.735   7.207 -0.5124  0.2213 -1.6485
26355SOL    HW281220   0.879   2.689   7.241 -0.6506  0.5557 -1.7743
26356SOL     OW81221   3.146   5.108   3.637 -0.0222 -0.5278  0.4374
26356SOL    HW181222   3.058   5.122   3.604 -0.0843  0.0663  0.8387
26356SOL    HW281223   3.202   5.117   3.560 -0.1034  1.5099  0.5595
26357SOL     OW81224   7.770   4.290   1.107 -0.1761  0.1386  0.2318
26357SOL    HW181225   7.857   4.277   1.070  0.2526  0.5250  1.0984
26357SOL    HW281226   7.744   4.378   1.076 -0.2991 -0.0085 -0.0911
26358SOL     OW81227   4.499   0.706   1.554  0.2443 -0.5379  0.3375
26358SOL    HW181228   4.492   0.756   1.473  0.3715 -1.6867 -0.4111
26358SOL    HW281229   4.410   0.680   1.574  0.1314  0.2926  0.9318
26359SOL     OW81230   6.888   8.558   5.215  0.0338  0.3118 -0.2405
26359SOL    HW181231   6.855   8.613   5.286  0.4470 -0.1331  0.2984
26359SOL    HW281232   6.928   8.620   5.153 -1.9392  0.8815 -1.0054
26360SOL     OW81233   0.847   5.001   2.036 -0.1712 -0.2020  0.6453
26360SOL    HW181234   0.873   4.949   2.112  0.6493 -0.4950  0.1692
26360SOL    HW281235   0.928   5.041   2.005  0.0154 -2.1019 -1.6174
26361SOL     OW81236   8.528   9.425   4.192  0.3170 -0.8854 -0.5333
26361SOL    HW181237   8.458   9.488   4.210  0.9017 -0.1785 -0.6745
26361SOL    HW281238   8.542   9.380   4.275 -0.4401 -1.1847 -0.5562
26362SOL     OW81239   8.598   7.976   3.533  0.2344 -0.7834 -0.0811
26362SOL    HW181240   8.543   7.920   3.479 -0.5070 -0.9359  0.8048
26362SOL    HW281241   8.645   7.916   3.590  0.8987 -0.6122 -0.4349
26363SOL     OW81242   4.959   2.088   6.592  0.1219  0.3929  0.5414
26363SOL    HW181243   4.914   2.030   6.654  0.2816  0.4197  0.6824
26363SOL    HW281244   4.958   2.174   6.634 -1.3411  0.8035 -0.2705
26364SOL     OW81245   3.630   8.542   4.851  0.0560 -0.1107 -0.1620
26364SOL    HW181246   3.616   8.635   4.838  0.5960  0.2741  1.7395
26364SOL    HW281247   3.637   8.506   4.762  0.7062  1.7883 -0.9273
26365SOL     OW81248   3.427   4.732   2.757  0.4071 -0.3854 -0.0801
26365SOL    HW181249   3.458   4.650   2.719  1.0937 -0.4141  0.5303
26365SOL    HW281250   3.506   4.779   2.783  0.0240  0.4493 -0.3630
26366SOL     OW81251   8.147   0.493   0.313 -0.0330  0.8192 -0.5762
26366SOL    HW181252   8.115   0.404   0.295 -1.0136  1.2699 -1.1452
26366SOL    HW281253   8.133   0.540   0.231 -2.5930  2.3579  0.6074
26367SOL     OW81254   2.688   9.541   8.652 -1.1632  0.5946 -0.2379
26367SOL    HW181255   2.772   9.504   8.682  0.1776  3.0274 -0.7968
26367SOL    HW281256   2.681   9.515   8.561 -1.1631  0.1645 -0.1179
26368SOL     OW81257   7.495   8.552   1.385 -0.3352 -0.0496  0.2078
26368SOL    HW181258   7.463   8.580   1.471 -0.8182 -0.3812  0.1390
26368SOL    HW281259   7.588   8.572   1.387 -0.7134  2.0022 -0.0105
26369SOL     OW81260   3.226   2.339   9.513 -0.5846  0.3567 -0.0216
26369SOL    HW181261   3.227   2.312   9.605 -2.2618  0.3348  0.0231
26369SOL    HW281262   3.232   2.257   9.464  0.1331  0.3549  0.0587
26370SOL     OW81263   1.430   9.155   5.355 -0.1770  0.1590  0.1772
26370SOL    HW181264   1.486   9.122   5.285  1.6865  0.8608  1.2864
26370SOL    HW281265   1.489   9.170   5.428 -1.4563  2.9309  0.7394
26371SOL     OW81266   8.115   7.305   8.995  0.0164 -0.8255 -0.3748
26371SOL    HW181267   8.087   7.267   9.078 -1.8470  0.6134 -0.2738
26371SOL    HW281268   8.186   7.364   9.018 -1.5611  0.8247  0.5255
26372SOL     OW81269   3.724   4.024   8.935  0.1476 -0.3502  0.3931
26372SOL    HW181270   3.793   4.040   8.871 -1.7214  0.4680 -1.5310
26372SOL    HW281271   3.749   4.077   9.011  1.0873  0.8184 -0.6816
26373SOL     OW81272   4.397   7.780   2.531 -0.4567  0.4020 -0.0912
26373SOL    HW181273   4.408   7.874   2.513  0.3775  0.0571 -1.5239
26373SOL    HW281274   4.423   7.770   2.622 -0.3344  1.5372  0.0126
26374SOL     OW81275   5.713   0.608   3.674  0.0787  0.2015  0.5138
26374SOL    HW181276   5.705   0.695   3.634  1.5337  1.6737  3.1284
26374SOL    HW281277   5.794   0.573   3.636  0.0119  0.4137  0.1650
26375SOL     OW81278   2.837   7.979   7.179 -0.8321  0.1809 -0.4399
26375SOL    HW181279   2.905   8.045   7.166 -2.7748  2.5606  0.6471
26375SOL    HW281280   2.880   7.910   7.228  0.6163  2.1442  1.2528
26376SOL     OW81281   3.037   8.287   3.919  0.0419 -0.5271 -0.1286
26376SOL    HW181282   3.090   8.355   3.961 -0.9483 -0.9158  1.8796
26376SOL    HW281283   3.090   8.208   3.925  0.3522 -0.3561 -0.6048
26377SOL     OW81284   6.573   3.990   1.556  0.2322 -0.2167 -0.2061
26377SOL    HW181285   6.598   4.018   1.643 -1.3402 -3.0208  1.3042
26377SOL    HW281286   6.495   4.043   1.535  0.1086 -0.1257  0.4668
26378SOL     OW81287   8.874   1.686   1.589  0.0601 -0.0341 -0.1391
26378SOL    HW181288   8.927   1.634   1.650 -0.1465 -0.3852 -0.2587
26378SOL    HW281289   8.918   1.771   1.586  0.6263 -0.3246 -0.2430
26379SOL     OW81290   8.002   1.792   5.028 -0.0065  0.7651  0.0350
26379SOL    HW181291   7.909   1.810   5.022  0.0982  1.1078 -0.7860
26379SOL    HW281292   8.022   1.793   5.121 -0.5714  2.0203  0.1528
26380SOL     OW81293   6.775   7.855   4.818 -0.6924  0.2945 -0.3528
26380SOL    HW181294   6.817   7.940   4.833  0.7215 -0.1033 -1.7429
26380SOL    HW281295   6.740   7.860   4.729  0.9774 -1.1242 -1.1635
26381SOL     OW81296   4.995   2.735   0.274  0.2380  0.8382  0.5300
26381SOL    HW181297   5.023   2.823   0.248  0.7651  1.0989  1.9158
26381SOL    HW281298   4.949   2.702   0.197 -0.7493  2.6532  0.2759
26382SOL     OW81299   3.701   4.065   3.879  0.0041 -0.3378 -0.0241
26382SOL    HW181300   3.653   4.130   3.827 -0.4945 -2.2057 -2.0773
26382SOL    HW281301   3.771   4.035   3.821  1.0350 -0.7018  1.3645
26383SOL     OW81302   8.098   8.284   8.295  0.6085  0.0542 -0.1113
26383SOL    HW181303   8.163   8.286   8.365 -1.2093  0.2784  1.6665
26383SOL    HW281304   8.097   8.193   8.266  1.8496  0.0965 -0.3404
26384SOL     OW81305   2.772   8.302   9.324 -0.0572 -0.1899 -0.2183
26384SOL    HW181306   2.787   8.384   9.276 -0.6508 -0.0769 -0.2167
26384SOL    HW281307   2.737   8.330   9.408  0.3136 -0.4222  0.0153
26385SOL     OW81308   7.686   6.599   3.925  0.0541 -0.0231  0.1153
26385SOL    HW181309   7.738   6.558   3.856  0.7000  0.5033  0.2804
26385SOL    HW281310   7.748   6.654   3.973  0.0981 -1.8962  2.4104
26386SOL     OW81311   6.980   9.457   3.894 -0.3477  0.0649 -0.5507
26386SOL    HW181312   7.003   9.428   3.805 -1.7241  0.5886 -1.1125
26386SOL    HW281313   6.914   9.394   3.922  0.2833 -0.2604  0.2380
26387SOL     OW81314   8.381   3.588   1.383  0.0975  0.4142  0.1350
26387SOL    HW181315   8.307   3.565   1.439  0.1531 -0.0687  0.0099
26387SOL    HW281316   8.406   3.506   1.341 -0.1377  0.8271 -0.8306
26388SOL     OW81317   1.163   1.481   6.777  0.4340  0.7276  0.0970
26388SOL    HW181318   1.070   1.463   6.766  0.0506  1.9509  1.0531
26388SOL    HW281319   1.207   1.413   6.726 -0.9924  1.1206 -1.7637
26389SOL     OW81320   1.533   2.389   3.856  0.2039 -0.0255  0.0017
26389SOL    HW181321   1.504   2.338   3.780 -3.0751  0.2232  0.9218
26389SOL    HW281322   1.505   2.479   3.836  0.3606  0.2530  0.9942
26390SOL     OW81323   2.208   8.512   0.187  0.0868  0.2929  0.3726
26390SOL    HW181324   2.148   8.586   0.199 -1.7377 -1.2492  1.3171
26390SOL    HW281325   2.223   8.479   0.276  0.5621 -0.7014 -0.0627
26391SOL     OW81326   6.703   5.772   8.506 -0.0453 -0.3716 -0.2656
26391SOL    HW181327   6.715   5.760   8.600 -1.6999  0.7369  0.1316
26391SOL    HW281328   6.776   5.826   8.478 -0.0506  0.0836  0.5799
26392SOL     OW81329   5.398   4.661   0.602  0.3172 -0.7402  0.6881
26392SOL    HW181330   5.402   4.667   0.697  0.2207  2.0704  0.6007
26392SOL    HW281331   5.308   4.687   0.580 -0.0039 -2.4231 -0.1608
26393SOL     OW81332   7.257   9.528   2.000  0.2627  0.8618 -0.0662
26393SOL    HW181333   7.279   9.596   1.937 -0.4280  0.5696 -0.6379
26393SOL    HW281334   7.331   9.467   1.998  0.8195  1.5114  0.3485
26394SOL     OW81335   5.546   2.899   2.444 -0.0629 -0.4679 -0.3103
26394SOL    HW181336   5.601   2.829   2.411 -1.3112 -1.4602 -0.3678
26394SOL    HW281337   5.496   2.858   2.515  0.1772  0.7363  0.5790
26395SOL     OW81338   7.172   6.865   7.116  0.0730 -0.2742  0.6537
26395SOL    HW181339   7.109   6.918   7.165  0.4138 -0.7854  1.6587
26395SOL    HW281340   7.151   6.775   7.139 -0.8788 -0.6723 -1.4875
26396SOL     OW81341   5.311   0.632   4.853  0.4110  0.0767  0.1146
26396SOL    HW181342   5.328   0.575   4.778  0.8589  0.3335  0.0145
26396SOL    HW281343   5.264   0.577   4.915 -0.7766  0.1116 -0.7154
26397SOL     OW81344   8.565   7.849   1.172  0.2477  0.0880 -0.0984
26397SOL    HW181345   8.503   7.776   1.177  0.5222 -0.2115 -0.8459
26397SOL    HW281346   8.510   7.925   1.155 -0.0936  0.1615  1.2146
26398SOL     OW81347   9.139   4.108   0.872  0.1657 -0.4418 -0.1563
26398SOL    HW181348   9.097   4.160   0.940  0.5036 -0.1463 -0.1731
26398SOL    HW281349   9.154   4.023   0.913  1.8807  0.2315  0.7040
26399SOL     OW81350   5.033   7.225   0.778  0.5683 -0.0283  0.4025
26399SOL    HW181351   5.013   7.233   0.871 -3.6220  0.0981 -0.3008
26399SOL    HW281352   5.041   7.131   0.764  1.4230 -0.0390  0.8735
26400SOL     OW81353   4.329   6.369   0.999  0.1947  0.4732  0.2844
26400SOL    HW181354   4.341   6.421   1.079  0.5075  0.2917  0.3555
26400SOL    HW281355   4.236   6.378   0.979  0.1206  0.5478  0.6503
26401SOL     OW81356   1.202   7.775   8.070 -0.0513  0.6124  0.2771
26401SOL    HW181357   1.165   7.863   8.079 -1.2353  0.1411  0.1145
26401SOL    HW281358   1.170   7.744   7.986 -0.9622 -0.5806  1.0374
26402SOL     OW81359   2.489   3.614   8.506  0.4549  0.5410  0.0950
26402SOL    HW181360   2.454   3.619   8.595  1.3396 -0.5489  0.5227
26402SOL    HW281361   2.411   3.610   8.450 -0.4131 -4.6198  1.1500
26403SOL     OW81362   5.591   8.181   6.842 -0.1212 -0.6266  0.1370
26403SOL    HW181363   5.541   8.240   6.899 -3.1514  1.3980 -3.9855
26403SOL    HW281364   5.546   8.097   6.849  0.9574 -1.0713  2.2441
26404SOL     OW81365   9.256   7.692   1.711 -0.0788  0.7143  0.4760
26404SOL    HW181366   9.189   7.690   1.779 -1.5154 -2.9309 -0.8149
26404SOL    HW281367   9.336   7.716   1.758 -1.3541  0.2476  3.0953
26405SOL     OW81368   1.647   0.900   6.179  0.4026 -0.1401  0.0589
26405SOL    HW181369   1.627   0.828   6.120  2.5226  0.4387 -1.5265
26405SOL    HW281370   1.655   0.976   6.122  0.1713  0.9540  1.4275
26406SOL     OW81371   3.349   2.162   7.828  0.1431  0.1366 -0.3225
26406SOL    HW181372   3.362   2.167   7.733 -0.5337  0.2624 -0.4160
26406SOL    HW281373   3.397   2.084   7.855 -0.4758 -0.4716 -0.9233
26407SOL     OW81374   9.137   0.133   2.227  0.0561  0.1392  0.5556
26407SOL    HW181375   9.091   0.051   2.209  1.1785 -0.0468 -1.9237
26407SOL    HW281376   9.151   0.132   2.321 -0.7846 -2.0568  0.7309
26408SOL     OW81377   2.566   8.919   9.023 -0.2591  0.0594  0.7289
26408SOL    HW181378   2.661   8.915   9.032 -0.2298  1.2299  1.0338
26408SOL    HW281379   2.544   8.843   8.969  1.0776  0.8489 -1.0251
26409SOL     OW81380   0.393   6.007   0.372  0.0161 -0.7188 -0.7292
26409SOL    HW181381   0.402   6.100   0.393  0.2421 -0.6279 -1.1973
26409SOL    HW281382   0.422   5.961   0.451 -0.6228 -0.3963 -0.2965
26410SOL     OW81383   2.291   7.647   9.074  0.3248 -0.9440 -0.2821
26410SOL    HW181384   2.221   7.616   9.017  0.2624  1.0292 -1.3638
26410SOL    HW281385   2.369   7.651   9.017  0.1985  1.3138 -0.3903
26411SOL     OW81386   1.750   4.593   2.215  0.5938 -0.2775 -0.1983
26411SOL    HW181387   1.667   4.597   2.166  0.8410 -0.8266 -0.6759
26411SOL    HW281388   1.799   4.669   2.183  0.5318 -0.3181 -0.3955
26412SOL     OW81389   8.077   4.561   2.711  0.3306  0.1971 -0.5472
26412SOL    HW181390   8.066   4.648   2.749 -1.3269 -0.1903 -0.0201
26412SOL    HW281391   8.169   4.556   2.685  1.8329  0.3487  3.8932
26413SOL     OW81392   0.853   5.467   9.098  0.1194  0.1813 -0.4979
26413SOL    HW181393   0.791   5.462   9.025  0.4046 -0.8092 -0.6974
26413SOL    HW281394   0.915   5.535   9.073 -0.1003  0.2255 -0.9250
26414SOL     OW81395   2.806   1.213   5.433 -0.4622  0.0457 -0.0151
26414SOL    HW181396   2.714   1.187   5.433 -0.4742  0.0495  1.4364
26414SOL    HW281397   2.825   1.231   5.341 -1.6860 -0.7229 -0.4472
26415SOL     OW81398   2.313   5.986   5.775 -0.0411  0.4897  0.0359
26415SOL    HW181399   2.385   6.019   5.721  0.7411  1.1417  1.4438
26415SOL    HW281400   2.249   6.057   5.775 -0.7041 -0.0636 -1.1592
26416SOL     OW81401   3.235   0.061   7.782 -0.0512  0.1051  0.2110
26416SOL    HW181402   3.239  -0.019   7.834 -0.5764 -1.3515 -1.8841
26416SOL    HW281403   3.142   0.073   7.763  0.2849 -1.1155 -2.7731
26417SOL     OW81404   1.385   6.725   1.736 -0.3654 -0.1371 -0.0959
26417SOL    HW181405   1.295   6.728   1.704  0.3107  1.0970 -2.0335
26417SOL    HW281406   1.439   6.744   1.659  1.5916 -1.2287  0.9316
26418SOL     OW81407   6.601   5.722   9.010  0.2725 -0.3861 -0.1680
26418SOL    HW181408   6.635   5.737   8.922 -0.3245 -0.2341 -0.3788
26418SOL    HW281409   6.519   5.772   9.013  1.2455  1.2361  1.1225
26419SOL     OW81410   5.506   6.437   6.116 -0.2121  0.5397 -0.4350
26419SOL    HW181411   5.480   6.358   6.067  1.6132 -0.3460 -0.0717
26419SOL    HW281412   5.554   6.490   6.053  1.0223  0.0001  0.0135
26420SOL     OW81413   5.580   8.665   3.895 -0.0633 -0.0376  0.1806
26420SOL    HW181414   5.504   8.715   3.924 -0.1755 -0.4756  0.6651
26420SOL    HW281415   5.564   8.576   3.927  0.8148 -0.0567  0.6192
26421SOL     OW81416   1.049   1.892   3.628  0.1024 -0.2304 -0.0077
26421SOL    HW181417   0.985   1.877   3.557  0.0180 -1.3341  0.2855
26421SOL    HW281418   1.011   1.848   3.704  0.3445  0.6849  0.6634
26422SOL     OW81419   6.259   4.808   2.033 -0.2502  0.5861 -0.1844
26422SOL    HW181420   6.236   4.855   2.113  0.2525 -1.5265  1.2523
26422SOL    HW281421   6.180   4.760   2.009  0.2028 -0.3862  0.2220
26423SOL     OW81422   4.179   9.286   4.158  0.2541  0.2735  0.0954
26423SOL    HW181423   4.198   9.350   4.090 -1.0392  1.0518  0.4274
26423SOL    HW281424   4.094   9.250   4.135  0.0342  0.1717  1.0225
26424SOL     OW81425   8.713   6.719   7.512 -0.1769 -0.5592 -0.5933
26424SOL    HW181426   8.641   6.709   7.574  0.2684 -2.1379 -0.2907
26424SOL    HW281427   8.679   6.778   7.445 -1.3533 -0.4073  0.1158
26425SOL     OW81428   0.982   8.302   4.480  0.2443  0.4594 -0.3792
26425SOL    HW181429   0.961   8.210   4.501 -0.3668  0.5558 -0.5367
26425SOL    HW281430   1.070   8.298   4.444  0.2835 -0.0501 -0.2491
26426SOL     OW81431   8.812   5.523   2.227 -0.3373  0.1310 -0.1131
26426SOL    HW181432   8.753   5.449   2.215 -1.6334  0.8984  1.1340
26426SOL    HW281433   8.793   5.582   2.154  0.0999 -0.3723 -0.6412
26427SOL     OW81434   6.914   6.564   4.807  0.3035  0.5086 -0.8227
26427SOL    HW181435   6.901   6.651   4.844  0.6971  0.6762 -1.0754
26427SOL    HW281436   7.004   6.541   4.829 -0.2162 -0.4260  0.4540
26428SOL     OW81437   8.940   5.603   2.647  0.1200 -0.4039  0.6897
26428SOL    HW181438   8.995   5.561   2.580  1.1290  1.1383  0.4894
26428SOL    HW281439   8.851   5.584   2.620  0.5184 -0.3541 -0.7566
26429SOL     OW81440   1.715   1.427   2.705 -0.2010 -0.6258 -0.1271
26429SOL    HW181441   1.691   1.399   2.794  1.4873  1.7266  1.2133
26429SOL    HW281442   1.792   1.374   2.684 -0.5351 -1.1121 -0.1351
26430SOL     OW81443   0.672   2.041   7.093 -0.7140 -0.0947 -0.1326
26430SOL    HW181444   0.766   2.054   7.104 -0.9681  2.1640 -0.2331
26430SOL    HW281445   0.665   1.955   7.051  1.0930 -1.7766  2.7082
26431SOL     OW81446   0.192   5.888   7.145 -0.2964 -0.4511 -0.0802
26431SOL    HW181447   0.223   5.797   7.140  1.3313  0.0242  0.6185
26431SOL    HW281448   0.210   5.914   7.236  0.8486  1.0918 -0.7124
26432SOL     OW81449   3.903   8.929   2.632  0.3955 -0.4383  0.0828
26432SOL    HW181450   3.956   8.922   2.711 -0.3913  2.0169  0.9315
26432SOL    HW281451   3.838   8.997   2.653 -3.1880 -3.2486 -0.8453
26433SOL     OW81452   2.042   8.595   3.645 -0.4321  0.2099  0.3551
26433SOL    HW181453   2.079   8.540   3.714 -2.4120 -0.1598  1.1948
26433SOL    HW281454   2.090   8.678   3.651 -1.6980  0.8481  3.4242
26434SOL     OW81455   3.704   7.231   1.942  0.2778 -0.6725 -0.1270
26434SOL    HW181456   3.725   7.138   1.952  0.4431 -0.8275 -1.6310
26434SOL    HW281457   3.609   7.234   1.940  0.2178 -0.6066  1.3705
26435SOL     OW81458   2.878   9.314   6.797 -0.0136  0.3071  0.2916
26435SOL    HW181459   2.803   9.372   6.807  1.2759  2.1685 -0.3275
26435SOL    HW281460   2.954   9.368   6.821  1.1437 -1.5375  1.0066
26436SOL     OW81461   5.681   8.964   8.591  0.4838 -0.1473 -0.2558
26436SOL    HW181462   5.683   9.025   8.517 -0.2804 -0.4099 -0.5074
26436SOL    HW281463   5.760   8.911   8.581  1.0715  0.6942 -0.1210
26437SOL     OW81464   4.266   8.099   1.537  0.3083  0.0183  0.7003
26437SOL    HW181465   4.323   8.093   1.614  1.1905  3.3883  0.4806
26437SOL    HW281466   4.326   8.095   1.462 -0.1184  0.3115  0.3379
26438SOL     OW81467   1.040   5.067   6.669 -0.5061  0.3528 -0.0671
26438SOL    HW181468   1.023   5.024   6.752  0.0654 -1.6865 -0.9517
26438SOL    HW281469   1.034   5.161   6.689 -1.9842 -0.0979  1.8876
26439SOL     OW81470   3.152   1.424   1.351 -0.2343 -0.2815  0.1343
26439SOL    HW181471   3.133   1.344   1.302  1.1903 -1.0702  0.8149
26439SOL    HW281472   3.235   1.456   1.316  1.7822 -1.8242  3.0310
26440SOL     OW81473   9.197   0.917   4.741 -0.3596  0.3331 -0.7189
26440SOL    HW181474   9.242   0.984   4.792 -3.2337 -0.2293  2.9743
26440SOL    HW281475   9.110   0.954   4.724 -1.6830 -1.9442  0.5606
26441SOL     OW81476   7.109   7.935   5.835 -0.0887 -0.7016 -0.3366
26441SOL    HW181477   7.046   7.992   5.791  0.5221  0.3864  0.1634
26441SOL    HW281478   7.073   7.922   5.923  1.1822  1.4065  0.5893
26442SOL     OW81479   9.142   7.787   5.733  0.1309  0.3448 -0.0646
26442SOL    HW181480   9.196   7.714   5.764 -0.3479  0.4456  1.0337
26442SOL    HW281481   9.053   7.751   5.729 -0.2344  1.0422  1.2013
26443SOL     OW81482   4.886   5.663   4.392  0.3991 -0.6990  0.6206
26443SOL    HW181483   4.910   5.671   4.484  0.5966 -1.2648  0.6201
26443SOL    HW281484   4.885   5.569   4.375 -2.1657 -0.7734  0.7197
26444SOL     OW81485   5.616   1.793   2.214  0.0977 -0.9532 -0.4413
26444SOL    HW181486   5.533   1.751   2.236  0.6896 -0.7988  2.5389
26444SOL    HW281487   5.670   1.722   2.179 -0.6464 -1.4688 -0.5687
26445SOL     OW81488   0.594   8.466   5.931  0.5880  0.0010 -0.4126
26445SOL    HW181489   0.632   8.535   5.878 -0.8773  1.6719  0.6071
26445SOL    HW281490   0.638   8.474   6.016  0.1191 -0.0493 -0.1642
26446SOL     OW81491   4.077   6.067   7.664 -0.0402  0.3662 -0.2499
26446SOL    HW181492   4.123   6.150   7.653 -0.7364  0.5500 -2.4408
26446SOL    HW281493   3.988   6.085   7.631 -0.9059 -0.6627  1.3970
26447SOL     OW81494   6.585   0.356   7.818 -0.1362  0.1988  0.2096
26447SOL    HW181495   6.561   0.413   7.745  2.4979  0.9411 -0.1533
26447SOL    HW281496   6.586   0.414   7.894  1.0175  0.3135  0.1159
26448SOL     OW81497   4.688   0.872   8.870  0.1844  0.0609  0.0719
26448SOL    HW181498   4.695   0.847   8.778 -0.8728 -1.2867  0.3388
26448SOL    HW281499   4.776   0.860   8.905  0.0622 -1.8162 -0.1969
26449SOL     OW81500   2.003   2.003   4.601 -0.1242 -0.2846 -0.1399
26449SOL    HW181501   1.940   2.003   4.530  1.7006 -0.8949 -1.8474
26449SOL    HW281502   2.052   1.921   4.591  2.0121  0.8847  0.0705
26450SOL     OW81503   7.810   3.938   5.066 -0.3314  0.2433  0.1323
26450SOL    HW181504   7.798   3.989   4.986  0.0633 -1.8319 -1.3230
26450SOL    HW281505   7.904   3.923   5.072 -0.4477 -0.4294  0.4251
26451SOL     OW81506   5.067   5.921   1.451 -0.4431  0.4771 -0.0992
26451SOL    HW181507   5.098   5.848   1.504  1.7097  0.3535 -1.3728
26451SOL    HW281508   5.079   5.998   1.507 -3.5388 -0.1265  1.5690
26452SOL     OW81509   4.673   9.488   8.861 -0.1186  0.4601  0.9092
26452SOL    HW181510   4.628   9.568   8.890  1.2095  0.8426  2.0614
26452SOL    HW281511   4.703   9.508   8.772  0.6595  1.4898  1.3768
26453SOL     OW81512   4.168   5.151   2.487 -0.5836  0.0326  0.5189
26453SOL    HW181513   4.157   5.104   2.405  0.4849  0.2285  0.2523
26453SOL    HW281514   4.174   5.243   2.461  1.5653 -0.0312  0.6024
26454SOL     OW81515   9.055   3.153   2.474 -0.3540 -0.1561  0.0200
26454SOL    HW181516   9.104   3.200   2.540 -0.5907 -0.4452  0.4113
26454SOL    HW281517   9.098   3.174   2.391  0.3268 -0.2882  0.3372
26455SOL     OW81518   5.730   1.827   1.326 -0.2210 -0.0948  0.2823
26455SOL    HW181519   5.681   1.908   1.344 -1.0582 -0.2940 -0.9503
26455SOL    HW281520   5.673   1.757   1.358 -0.1521 -0.2687  0.0261
26456SOL     OW81521   3.666   1.991   4.539  0.3656  0.2178  0.0628
26456SOL    HW181522   3.745   1.937   4.552 -0.0756 -0.8271 -1.3006
26456SOL    HW281523   3.633   1.964   4.453 -2.4854 -0.6519  1.3148
26457SOL     OW81524   7.896   3.412   2.472 -0.0955  0.2420 -0.2913
26457SOL    HW181525   7.829   3.477   2.453 -0.3310  0.3179  0.7744
26457SOL    HW281526   7.975   3.445   2.428 -0.6656  0.2770 -1.3394
26458SOL     OW81527   8.019   3.259   5.072 -0.1075 -0.5249  0.0743
26458SOL    HW181528   8.096   3.315   5.080 -2.1644  2.6541 -0.3189
26458SOL    HW281529   8.035   3.187   5.133  1.6369  1.9255  2.7962
26459SOL     OW81530   6.138   6.428   6.764 -0.3058 -1.0265 -0.0777
26459SOL    HW181531   6.202   6.425   6.693  0.2198  1.6057  0.1831
26459SOL    HW281532   6.055   6.445   6.720  0.1085  1.2025 -0.1083
26460SOL     OW81533   0.038   4.631   7.847  0.2827 -0.3458  0.4996
26460SOL    HW181534   0.025   4.698   7.780 -0.0381  0.1547  1.0490
26460SOL    HW281535  -0.009   4.554   7.814 -0.3339  0.0643  0.3901
26461SOL     OW81536   2.654   6.968   5.115  0.3210  0.2106 -0.4168
26461SOL    HW181537   2.664   7.032   5.045 -1.4229 -0.4946 -1.3960
26461SOL    HW281538   2.606   7.014   5.184  0.7754  0.5072 -0.3015
26462SOL     OW81539   5.987   2.524   1.125 -0.2266 -0.2310  0.1719
26462SOL    HW181540   5.993   2.448   1.183  1.2913 -0.1488  0.1725
26462SOL    HW281541   5.958   2.595   1.183 -2.5994 -0.9443 -0.0199
26463SOL     OW81542   8.246   7.484   8.042  0.4456  0.0860 -0.5170
26463SOL    HW181543   8.210   7.564   8.080 -0.6741 -0.5041 -0.2862
26463SOL    HW281544   8.332   7.475   8.083  1.2769  1.9806 -1.7161
26464SOL     OW81545   5.093   7.887   6.304  0.2725 -0.2182 -0.1878
26464SOL    HW181546   5.094   7.799   6.342 -0.7034 -0.6119 -1.0323
26464SOL    HW281547   5.005   7.919   6.321 -0.6552 -0.9094 -3.1513
26465SOL     OW81548   2.608   7.867   0.397 -0.0742  0.1438 -0.1584
26465SOL    HW181549   2.683   7.808   0.410 -1.1216 -0.9841  0.9808
26465SOL    HW281550   2.590   7.862   0.303  1.1048  0.2321 -0.4087
26466SOL     OW81551   7.382   2.205   8.362 -0.1197  0.3296  0.1802
26466SOL    HW181552   7.288   2.185   8.357  0.2394 -1.7404  0.6085
26466SOL    HW281553   7.406   2.227   8.272 -1.2155  2.0984  0.2714
26467SOL     OW81554   0.916   8.403   5.430 -0.0075 -0.4413 -0.6204
26467SOL    HW181555   0.931   8.344   5.356  0.6127 -1.0266 -0.0428
26467SOL    HW281556   0.969   8.367   5.501 -0.9749 -0.1825  0.2696
26468SOL     OW81557   8.509   6.966   8.393  0.1828  0.3954  0.0590
26468SOL    HW181558   8.430   6.974   8.340 -1.0795 -0.7818  1.6406
26468SOL    HW281559   8.487   7.009   8.476  1.0492 -0.2677  0.6539
26469SOL     OW81560   4.344   8.752   4.458  0.0025  0.3186 -0.4333
26469SOL    HW181561   4.370   8.738   4.549  1.0664  1.2461 -0.5761
26469SOL    HW281562   4.307   8.668   4.431 -0.4888  0.0728  0.8940
26470SOL     OW81563   6.304   9.341   9.634 -0.1474  0.1375 -0.0365
26470SOL    HW181564   6.321   9.266   9.690 -0.7856 -0.8680 -1.1430
26470SOL    HW281565   6.390   9.361   9.596 -0.1607 -0.7465 -0.5707
26471SOL     OW81566   0.862   4.391   0.260 -0.1566  0.6752 -0.1878
26471SOL    HW181567   0.807   4.327   0.215  0.3367  0.2768 -0.2251
26471SOL    HW281568   0.939   4.401   0.203  0.1484  0.6851  0.2217
26472SOL     OW81569   9.151   4.620   6.966 -0.4219  1.2576 -0.3935
26472SOL    HW181570   9.179   4.538   6.926 -2.4545  1.0176 -1.4635
26472SOL    HW281571   9.137   4.598   7.058  0.6019  0.8315 -0.3297
26473SOL     OW81572   5.549   6.977   9.398  0.4247  0.0959  0.1741
26473SOL    HW181573   5.639   6.977   9.367  0.5897 -1.5628  0.5565
26473SOL    HW281574   5.496   6.969   9.319  0.6883 -0.5898  0.0668
26474SOL     OW81575   5.376   5.766   7.709 -0.7043 -0.0199 -0.0720
26474SOL    HW181576   5.431   5.784   7.784  0.8697 -0.1803 -1.1412
26474SOL    HW281577   5.287   5.784   7.739 -0.0598  0.4477  1.6369
26475SOL     OW81578   3.220   8.542   4.546 -0.0363  0.5950 -0.3489
26475SOL    HW181579   3.289   8.603   4.519 -1.3697  1.8155 -1.1701
26475SOL    HW281580   3.255   8.498   4.623  2.0132  0.4980 -1.2620
26476SOL     OW81581   2.500   4.414   3.423  0.0677 -0.4243  0.1641
26476SOL    HW181582   2.590   4.388   3.406 -0.0343 -0.6358 -0.0452
26476SOL    HW281583   2.508   4.491   3.481  0.3537 -1.5266  1.6460
26477SOL     OW81584   0.021   5.093   1.147 -0.0780  0.0767  0.0812
26477SOL    HW181585   0.114   5.113   1.146 -0.2966  1.1147 -0.5819
26477SOL    HW281586   0.011   5.020   1.086 -0.0225  1.5921 -1.8321
26478SOL     OW81587   3.719   1.700   7.931 -0.2712 -0.1252  0.6164
26478SOL    HW181588   3.738   1.626   7.989 -1.4551 -0.1210  1.0299
26478SOL    HW281589   3.644   1.672   7.880 -0.5988  0.7071  0.6255
26479SOL     OW81590   8.438   1.659   0.502  0.4576  0.2293 -0.1330
26479SOL    HW181591   8.393   1.687   0.582  0.5725 -0.1853  0.0774
26479SOL    HW281592   8.530   1.653   0.528  0.3470 -1.0622  0.0326
26480SOL     OW81593   9.328   2.405   5.848  0.4762  0.4473 -0.6827
26480SOL    HW181594   9.303   2.399   5.755  0.5118 -1.2773 -0.6152
26480SOL    HW281595   9.348   2.497   5.861  0.8009  0.6782 -2.4862
26481SOL     OW81596   1.338   5.254   0.844  0.6186 -0.2241  0.2118
26481SOL    HW181597   1.285   5.183   0.880 -0.7182  0.7697  0.3088
26481SOL    HW281598   1.274   5.322   0.820  1.7351  0.4272 -1.0842
26482SOL     OW81599   4.215   8.324   8.783 -0.0780  0.3567  0.3767
26482SOL    HW181600   4.223   8.418   8.797 -2.0060  0.5021  0.8548
26482SOL    HW281601   4.224   8.313   8.688  0.2679  1.0031  0.3326
26483SOL     OW81602   5.250   4.253   2.436 -0.6469  0.0418 -0.2305
26483SOL    HW181603   5.230   4.227   2.347  1.6237  0.7794 -1.0383
26483SOL    HW281604   5.209   4.339   2.446  0.3451  0.6421 -1.1242
26484SOL     OW81605   4.462   1.198   1.893 -0.2480 -0.1933 -0.8591
26484SOL    HW181606   4.417   1.212   1.977 -0.4736 -1.2805 -0.7906
26484SOL    HW281607   4.393   1.209   1.828  0.1456  1.7856 -1.0131
26485SOL     OW81608   9.518   6.697   6.936  0.0102 -0.5346  0.4929
26485SOL    HW181609   9.579   6.752   6.985  1.0444 -0.6590 -0.6088
26485SOL    HW281610   9.455   6.667   7.001  1.9134 -1.5268  1.9919
26486SOL     OW81611   7.946   4.813   3.698 -0.0623 -0.4192 -0.1922
26486SOL    HW181612   7.923   4.872   3.626 -0.0061 -0.1359  0.0214
26486SOL    HW281613   7.872   4.818   3.758  1.2492  1.9294  1.4326
26487SOL     OW81614   6.561   4.927   9.400 -0.2914  0.0108  0.0238
26487SOL    HW181615   6.583   4.941   9.492 -0.7019  2.8892 -0.2277
26487SOL    HW281616   6.469   4.953   9.393 -0.2675 -0.1798 -1.1944
26488SOL     OW81617   9.206   8.246   2.254 -0.5422  0.2810  0.1739
26488SOL    HW181618   9.247   8.292   2.327 -0.2689  0.4854 -0.1086
26488SOL    HW281619   9.277   8.195   2.215  0.2347  3.0075 -2.2473
26489SOL     OW81620   1.661   0.014   6.757 -0.3170 -0.2723  0.0420
26489SOL    HW181621   1.750   0.046   6.766 -0.0421 -0.7702 -0.8284
26489SOL    HW281622   1.609   0.092   6.738 -0.2991  0.2238  1.7933
26490SOL     OW81623   9.487   3.637   3.061 -0.1242  0.2578  0.3735
26490SOL    HW181624   9.464   3.724   3.093 -0.0586  0.2271  0.5060
26490SOL    HW281625   9.421   3.618   2.994 -1.0986 -0.2361  1.4320
26491SOL     OW81626   0.443   3.374   4.690  0.3271  0.1877 -0.2121
26491SOL    HW181627   0.388   3.414   4.622  0.2298 -1.7505 -1.3433
26491SOL    HW281628   0.393   3.385   4.771 -0.2232  1.2623 -0.6804
26492SOL     OW81629   6.342   4.713   6.534  0.2313 -0.1990  0.3220
26492SOL    HW181630   6.308   4.803   6.537  0.0648 -0.2614  0.3224
26492SOL    HW281631   6.316   4.675   6.618 -1.4861 -0.8840 -0.4664
26493SOL     OW81632   7.767   0.384   1.927  0.6164  0.0431  0.0032
26493SOL    HW181633   7.776   0.446   1.999 -2.8898  0.2582  0.4279
26493SOL    HW281634   7.784   0.298   1.967 -1.0399  0.1818  1.0975
26494SOL     OW81635   0.970   6.700   2.218  0.1209  0.5424 -0.6041
26494SOL    HW181636   0.999   6.663   2.301 -0.3815  0.1628 -0.5893
26494SOL    HW281637   0.894   6.754   2.241 -0.0331  0.4178 -0.8190
26495SOL     OW81638   8.696   8.360   3.427 -0.1615  0.2556  0.9404
26495SOL    HW181639   8.621   8.309   3.398  0.7260  0.0714 -1.2170
26495SOL    HW281640   8.660   8.447   3.445 -0.8650  0.2910 -0.4630
26496SOL     OW81641   7.984   7.739   9.104  0.2255  0.4856 -0.1588
26496SOL    HW181642   8.064   7.781   9.137 -0.3768  0.6884  1.0632
26496SOL    HW281643   7.970   7.664   9.162  0.0937 -0.1643 -1.0098
26497SOL     OW81644   8.907   5.277   5.104 -0.3192 -0.2318 -0.2910
26497SOL    HW181645   8.882   5.326   5.026 -3.2305  1.2290  1.3897
26497SOL    HW281646   8.963   5.337   5.153 -0.7515 -0.0467 -0.0141
26498SOL     OW81647   3.388   7.577   0.725  0.5738  0.0843 -0.0649
26498SOL    HW181648   3.463   7.517   0.728  0.1815 -0.4545 -0.7678
26498SOL    HW281649   3.336   7.547   0.650 -0.5435  0.2292  0.6348
26499SOL     OW81650   4.061   8.808   1.744  0.5044  0.5621 -0.5980
26499SOL    HW181651   4.106   8.725   1.762  1.9561  1.6740  1.2085
26499SOL    HW281652   3.969   8.789   1.761  0.3069 -1.4583 -3.2665
26500SOL     OW81653   1.590   9.149   5.554 -0.3217 -0.5668 -0.4702
26500SOL    HW181654   1.649   9.082   5.590 -0.5727 -0.5153  0.0494
26500SOL    HW281655   1.578   9.211   5.626 -2.2801 -1.4128 -0.0344
26501SOL     OW81656   5.367   6.182   7.750  0.1618 -0.2452  0.1913
26501SOL    HW181657   5.279   6.219   7.764  0.8425  1.7342 -0.4258
26501SOL    HW281658   5.396   6.156   7.837 -1.0711 -1.0911  0.3862
26502SOL     OW81659   6.620   5.022   7.462 -0.1582 -0.4854 -0.6304
26502SOL    HW181660   6.558   5.086   7.427 -1.8526 -1.6520  0.0928
26502SOL    HW281661   6.694   5.024   7.401 -0.7661  1.1665 -1.3610
26503SOL     OW81662   8.385   3.505   7.236  0.2995 -0.2188 -0.2497
26503SOL    HW181663   8.297   3.470   7.250 -0.1572 -0.2549 -2.7206
26503SOL    HW281664   8.378   3.598   7.259 -0.2911 -0.2977 -0.0951
26504SOL     OW81665   6.960   7.236   3.156  0.0251  0.2739 -0.5263
26504SOL    HW181666   6.867   7.254   3.139 -0.5712 -1.3106  0.7464
26504SOL    HW281667   6.992   7.316   3.197 -1.0836  0.4652  0.0124
26505SOL     OW81668   7.809   4.496   4.010  0.7727 -0.3659  0.0442
26505SOL    HW181669   7.819   4.584   4.047 -0.5587 -0.0748 -0.2058
26505SOL    HW281670   7.897   4.459   4.011  1.3711  0.9863  0.1231
26506SOL     OW81671   6.387   4.019   7.563 -0.5475 -0.0313  0.5406
26506SOL    HW181672   6.332   3.941   7.548  0.0102 -0.5104  0.9309
26506SOL    HW281673   6.457   3.988   7.620  0.9466  0.1993 -1.0728
26507SOL     OW81674   8.480   3.405   6.063  0.0485 -0.1170  0.2253
26507SOL    HW181675   8.531   3.467   6.115  1.5448 -0.6076 -0.6098
26507SOL    HW281676   8.524   3.321   6.076  0.5467 -0.2377 -1.8772
26508SOL     OW81677   6.892   5.133   0.298 -0.4091 -0.1295  0.1961
26508SOL    HW181678   6.825   5.181   0.346 -1.0297 -0.6369 -0.1400
26508SOL    HW281679   6.848   5.052   0.272 -0.1881  0.2386 -1.4320
26509SOL     OW81680   2.046   7.409   4.786  0.4359  0.3216  0.7160
26509SOL    HW181681   1.998   7.327   4.775  0.0223  0.5166  1.0697
26509SOL    HW281682   2.134   7.382   4.813  0.7422 -0.0695 -0.5703
26510SOL     OW81683   6.099   7.001   0.970 -0.3474 -0.0840  0.2970
26510SOL    HW181684   6.089   7.096   0.976  0.3947 -0.0199  0.6291
26510SOL    HW281685   6.063   6.968   1.052 -3.1479 -0.3420 -0.9059
26511SOL     OW81686   7.379   7.595   9.291 -0.3702 -0.0828  0.1959
26511SOL    HW181687   7.447   7.603   9.225 -1.0832 -0.9985 -0.6807
26511SOL    HW281688   7.427   7.586   9.374  0.5671 -0.4631 -0.3727
26512SOL     OW81689   7.513   4.501   3.958 -0.1378 -0.5589 -0.2234
26512SOL    HW181690   7.595   4.544   3.981  1.1927 -2.3162 -1.3903
26512SOL    HW281691   7.468   4.563   3.900  1.1322 -0.2258 -0.8770
26513SOL     OW81692   1.039   6.776   5.902 -0.0835 -0.0918 -0.3454
26513SOL    HW181693   0.954   6.817   5.883 -0.7362 -0.6523  1.1998
26513SOL    HW281694   1.047   6.706   5.837  0.0474  1.0735 -1.6340
26514SOL     OW81695   5.941   2.446   5.792  0.6389 -0.2875 -0.3778
26514SOL    HW181696   5.961   2.533   5.757 -0.4958 -0.3135 -1.1480
26514SOL    HW281697   5.862   2.418   5.744 -0.5015 -0.6816  1.5959
26515SOL     OW81698   4.943   0.009   5.590 -0.0537 -0.3450 -0.3199
26515SOL    HW181699   4.967   0.056   5.510 -0.3184 -1.8489 -1.3211
26515SOL    HW281700   5.013   0.032   5.652 -1.1382  2.8151 -0.0975
26516SOL     OW81701   5.297   4.972   0.315 -0.0969  0.4699 -1.3925
26516SOL    HW181702   5.340   4.915   0.251 -0.4677 -1.8630  0.3261
26516SOL    HW281703   5.369   5.022   0.354  0.5978 -0.6590 -1.1845
26517SOL     OW81704   3.084   6.565   0.521  0.3645 -0.3670  0.0572
26517SOL    HW181705   3.037   6.615   0.588 -0.1941 -1.6812  0.6953
26517SOL    HW281706   3.086   6.622   0.445 -0.8854  0.3485  0.5277
26518SOL     OW81707   1.418   8.431   5.216  0.4180  0.3678  0.5828
26518SOL    HW181708   1.347   8.456   5.274  1.6306  0.9666  1.8890
26518SOL    HW281709   1.479   8.383   5.272  1.6460  0.9890 -0.1781
26519SOL     OW81710   2.836   9.500   8.937  0.0450  0.8672  0.1998
26519SOL    HW181711   2.896   9.470   9.005  0.4342 -0.4608 -0.6880
26519SOL    HW281712   2.890   9.556   8.881  0.3520  0.1120 -0.2874
26520SOL     OW81713   8.112   0.999   3.967  0.0641  0.3011 -0.5300
26520SOL    HW181714   8.102   0.937   4.038  1.7327 -0.5100 -0.9579
26520SOL    HW281715   8.184   0.965   3.914 -1.4134  0.6067 -2.9052
26521SOL     OW81716   4.698   1.569   8.759  0.1529 -0.0842  0.0916
26521SOL    HW181717   4.759   1.496   8.771  1.2739  0.8844  0.4244
26521SOL    HW281718   4.695   1.583   8.665  1.0051  0.3220  0.1201
26522SOL     OW81719   2.792   5.113   6.066  0.0961 -0.5919  0.2809
26522SOL    HW181720   2.706   5.126   6.025 -0.2663  0.5689  1.3347
26522SOL    HW281721   2.827   5.202   6.075  1.5509 -1.0763 -0.3887
26523SOL     OW81722   6.847   1.580   6.204  0.4707 -0.3618 -0.0338
26523SOL    HW181723   6.919   1.566   6.143 -0.2722  3.1943 -1.9619
26523SOL    HW281724   6.862   1.667   6.240 -1.9620 -0.2134  0.8049
26524SOL     OW81725   4.570   5.968   3.340  0.4026 -0.6972  0.2047
26524SOL    HW181726   4.609   5.951   3.254 -0.1888 -0.6323 -0.0818
26524SOL    HW281727   4.517   6.046   3.327 -1.0940 -1.6784  0.1647
26525SOL     OW81728   4.367   1.474   5.401  0.2462 -0.5479 -0.0090
26525SOL    HW181729   4.461   1.458   5.414  0.5528  1.1574  0.0225
26525SOL    HW281730   4.326   1.390   5.423  1.7673 -1.3927 -0.2211
26526SOL     OW81731   8.943   5.752   7.478 -0.6806 -0.0714  0.2888
26526SOL    HW181732   8.893   5.688   7.530 -0.7481 -0.2622 -0.0073
26526SOL    HW281733   8.924   5.728   7.387 -2.4808  1.7135  0.1292
26527SOL     OW81734   4.352   7.232   2.483 -0.1379 -0.4400 -0.2296
26527SOL    HW181735   4.424   7.187   2.526  1.5145  1.9133 -0.3397
26527SOL    HW281736   4.288   7.246   2.553  1.3052  0.8859  0.9189
26528SOL     OW81737   8.895   2.830   5.816 -0.2068  0.1361  0.5281
26528SOL    HW181738   8.923   2.921   5.800  2.0503 -0.1517  2.2942
26528SOL    HW281739   8.921   2.783   5.737 -2.6091  1.1532 -0.9981
26529SOL     OW81740   2.100   3.762   3.710  0.7036  0.0509  0.4252
26529SOL    HW181741   2.153   3.813   3.649  2.8625 -0.0823  2.0795
26529SOL    HW281742   2.089   3.819   3.786 -1.0690 -0.1612  0.3745
26530SOL     OW81743   7.818   8.300   1.688 -0.0992 -0.2524 -0.2943
26530SOL    HW181744   7.723   8.288   1.684 -0.0707 -0.7230  0.3559
26530SOL    HW281745   7.852   8.247   1.616 -0.3406  0.1423 -0.7075
26531SOL     OW81746   9.003   5.762   3.549 -0.0835  0.0492 -0.0391
26531SOL    HW181747   8.924   5.808   3.578 -0.3708 -0.6704  0.3476
26531SOL    HW281748   9.073   5.826   3.558 -0.0633 -0.2277  2.7108
26532SOL     OW81749   7.706   4.594   5.160 -0.2671  0.1425  0.3032
26532SOL    HW181750   7.769   4.647   5.209  0.1992 -0.1609  0.0374
26532SOL    HW281751   7.625   4.644   5.164  0.1323  0.8212  0.1670
26533SOL     OW81752   8.294   3.519   2.511 -0.0247  0.0856 -0.3575
26533SOL    HW181753   8.264   3.432   2.539  0.2385  0.0313 -0.2418
26533SOL    HW281754   8.373   3.535   2.562 -1.0453  1.1623  0.9293
26534SOL     OW81755   1.195   2.145   3.665  0.1176 -0.2921 -0.0851
26534SOL    HW181756   1.265   2.099   3.619 -0.6414 -1.1133 -0.4564
26534SOL    HW281757   1.114   2.113   3.624 -0.4590  1.1366 -0.1283
26535SOL     OW81758   0.769   2.327   2.302 -0.1565  0.2750 -0.3669
26535SOL    HW181759   0.728   2.245   2.273  1.5635 -0.8694  0.2235
26535SOL    HW281760   0.713   2.396   2.268 -0.2902 -1.0669 -3.1320
26536SOL     OW81761   6.745   5.122   2.124 -0.0857  0.3414  0.1804
26536SOL    HW181762   6.668   5.154   2.172  0.1743 -0.8584  1.4511
26536SOL    HW281763   6.807   5.194   2.129 -0.2434  0.4191  1.2565
26537SOL     OW81764   5.294   9.291   5.929 -0.3509 -0.3010  0.2628
26537SOL    HW181765   5.225   9.299   5.995  0.0460 -0.4541  0.7077
26537SOL    HW281766   5.309   9.197   5.922  2.2338 -0.2176  2.7917
26538SOL     OW81767   6.067   7.821   1.896  0.1271  0.0463 -0.0124
26538SOL    HW181768   6.109   7.837   1.811  1.3975  0.2849  0.6422
26538SOL    HW281769   5.981   7.787   1.873  0.7303 -0.6531 -1.4162
26539SOL     OW81770   1.474   5.348   2.274  0.1709 -0.4179 -0.2932
26539SOL    HW181771   1.530   5.388   2.208  0.0962 -0.8665 -0.6374
26539SOL    HW281772   1.497   5.392   2.356 -0.4501  0.8544 -0.7849
26540SOL     OW81773   2.173   6.907   6.830 -0.5222 -0.7235  0.4302
26540SOL    HW181774   2.221   6.906   6.913  0.9981 -1.0513 -0.4117
26540SOL    HW281775   2.197   6.990   6.789 -0.6575 -0.8999 -0.0130
26541SOL     OW81776   6.766   1.354   3.304  0.0787 -0.0159 -0.0345
26541SOL    HW181777   6.777   1.263   3.330 -1.0340 -0.5746 -1.3835
26541SOL    HW281778   6.744   1.400   3.385  0.3006 -1.0018  0.5987
26542SOL     OW81779   1.694   6.303   5.304 -0.2083  0.6152  0.0285
26542SOL    HW181780   1.631   6.366   5.271 -0.3709  0.9209  0.8991
26542SOL    HW281781   1.722   6.254   5.227  1.8329  3.3788 -1.1602
26543SOL     OW81782   3.320   3.165   1.626 -0.2513  0.3819 -0.7149
26543SOL    HW181783   3.306   3.260   1.628  0.7940  0.5597 -1.0224
26543SOL    HW281784   3.289   3.135   1.711 -1.9061  0.7845 -1.1426
26544SOL     OW81785   9.142   1.822   4.415 -0.3434 -0.4636 -0.0922
26544SOL    HW181786   9.237   1.824   4.404 -0.5157  0.0580 -1.7804
26544SOL    HW281787   9.124   1.734   4.448  0.8492  0.0143  2.0451
26545SOL     OW81788   2.397   3.620   7.855  0.6372  0.5379  0.2494
26545SOL    HW181789   2.391   3.659   7.768 -0.8959  1.7877  0.8663
26545SOL    HW281790   2.479   3.653   7.891 -0.4887  3.1070  0.6516
26546SOL     OW81791   4.288   5.367   8.500  0.7224 -0.3869  0.2936
26546SOL    HW181792   4.282   5.344   8.407  0.4635  1.1809 -0.1076
26546SOL    HW281793   4.382   5.374   8.516  0.7445  0.7173 -0.2353
26547SOL     OW81794   1.896   2.830   7.068 -0.7593 -0.7481  0.1434
26547SOL    HW181795   1.873   2.737   7.068 -1.3423 -0.6142 -0.5610
26547SOL    HW281796   1.908   2.851   7.161 -0.3822 -1.5800  0.2917
26548SOL     OW81797   4.896   1.370   8.809 -0.1327  0.1741 -0.4172
26548SOL    HW181798   4.945   1.395   8.731 -0.4897 -1.5176 -1.2321
26548SOL    HW281799   4.959   1.378   8.881  2.0596 -3.6861 -1.6442
26549SOL     OW81800   0.659   1.513   1.333 -0.7113  0.1241  0.1071
26549SOL    HW181801   0.618   1.462   1.403  0.7171  0.3938  1.1547
26549SOL    HW281802   0.605   1.493   1.256 -2.5537  0.1446  1.3300
26550SOL     OW81803   3.850   2.163   9.176  0.1758 -0.4356 -0.0672
26550SOL    HW181804   3.887   2.117   9.251  1.1178 -0.3701 -0.4695
26550SOL    HW281805   3.890   2.120   9.100  1.2595  1.1419 -0.4502
26551SOL     OW81806   5.428   2.143   2.711  0.2056  0.0559  0.2528
26551SOL    HW181807   5.359   2.079   2.697  0.1506 -0.6203  2.9876
26551SOL    HW281808   5.452   2.173   2.623 -0.9521 -2.4175 -0.9940
26552SOL     OW81809   7.717   2.355   4.119  0.0526 -0.5730  0.1389
26552SOL    HW181810   7.710   2.335   4.212  0.0890  0.7393  0.4440
26552SOL    HW281811   7.766   2.281   4.082  1.2775 -0.4403  1.4238
26553SOL     OW81812   1.451   0.808   4.102 -0.1397  0.0865 -0.3503
26553SOL    HW181813   1.499   0.769   4.029 -0.4089 -0.1763 -0.3865
26553SOL    HW281814   1.415   0.889   4.067  1.2887  0.9107  0.0084
26554SOL     OW81815   2.991   3.791   3.750 -0.1228  0.5014  0.1183
26554SOL    HW181816   2.900   3.769   3.729  0.0202 -0.3314  0.3457
26554SOL    HW281817   3.026   3.828   3.668  0.0341 -1.4717 -0.7717
26555SOL     OW81818   0.452   8.662   3.148  0.6843 -0.1593  0.6488
26555SOL    HW181819   0.514   8.599   3.111 -1.1136 -0.6779 -1.7320
26555SOL    HW281820   0.374   8.611   3.167 -0.2688  1.0491  0.1114
26556SOL     OW81821   7.279   1.200   0.637  0.1837 -0.6933 -0.3075
26556SOL    HW181822   7.289   1.182   0.544  1.8015  0.0500 -0.3099
26556SOL    HW281823   7.344   1.268   0.656  0.6648 -1.6049  1.5774
26557SOL     OW81824   5.105   4.351   8.912 -0.0893  0.3084  0.1625
26557SOL    HW181825   5.149   4.429   8.947 -0.7322  1.6640 -1.8954
26557SOL    HW281826   5.174   4.305   8.863  0.0397  0.0938  0.5346
26558SOL     OW81827   1.661   4.086   8.294 -0.0347  0.4704  0.5662
26558SOL    HW181828   1.657   4.004   8.344 -0.9635 -0.2651 -0.6519
26558SOL    HW281829   1.586   4.136   8.325 -0.8069 -0.1262 -0.2938
26559SOL     OW81830   1.146   2.774   8.482 -0.5082  0.3795 -0.3250
26559SOL    HW181831   1.099   2.827   8.417  3.2205  2.0679 -1.9537
26559SOL    HW281832   1.152   2.830   8.559  0.0254  0.7729 -0.6425
26560SOL     OW81833   9.363   4.999   4.703  0.0258 -0.1814 -0.4277
26560SOL    HW181834   9.373   5.039   4.617  0.9286  0.7107  0.0592
26560SOL    HW281835   9.349   5.074   4.762 -2.6463 -0.8883 -0.0346
26561SOL     OW81836   3.923   7.215   4.770  0.3038 -0.3295 -0.2644
26561SOL    HW181837   4.001   7.159   4.764 -0.5124 -1.4548 -0.4907
26561SOL    HW281838   3.956   7.303   4.748  1.6674 -0.6357  0.4532
26562SOL     OW81839   3.296   0.460   9.432  0.2413 -0.5948  0.0075
26562SOL    HW181840   3.341   0.380   9.406 -1.0478 -1.5621  0.6183
26562SOL    HW281841   3.282   0.508   9.351  1.3863 -0.7707 -0.3169
26563SOL     OW81842   4.030   0.742   9.092 -0.2455 -0.4618 -0.0373
26563SOL    HW181843   4.057   0.685   9.163  0.1492  1.6160  1.5884
26563SOL    HW281844   4.099   0.807   9.086 -0.4102 -0.4163 -2.1803
26564SOL     OW81845   9.199   0.425   4.878  0.1149 -0.3410 -0.1560
26564SOL    HW181846   9.194   0.474   4.796  1.5614 -0.1143 -0.1452
26564SOL    HW281847   9.111   0.429   4.914 -0.1868  0.8769 -0.9551
26565SOL     OW81848   6.357   4.708   0.321 -0.7240 -0.1340  0.1095
26565SOL    HW181849   6.288   4.761   0.282  1.1012  0.3825 -2.7291
26565SOL    HW281850   6.352   4.624   0.275  0.7280  0.0541 -0.4426
26566SOL     OW81851   5.348   2.106   9.412  0.4380  0.2647 -0.0662
26566SOL    HW181852   5.362   2.064   9.496  0.7377 -0.0079 -0.2514
26566SOL    HW281853   5.396   2.189   9.418 -0.4018  0.7285  0.4077
26567SOL     OW81854   8.596   2.923   5.126  0.0115  0.3827  0.3550
26567SOL    HW181855   8.568   2.897   5.213 -1.2290 -0.2793 -0.2063
26567SOL    HW281856   8.517   2.957   5.084  0.7342  1.3333 -0.2910
26568SOL     OW81857   1.408   9.603   5.298  0.1132  0.0140 -0.4010
26568SOL    HW181858   1.386   9.668   5.364  1.1997  1.4892 -1.4234
26568SOL    HW281859   1.430   9.524   5.347 -0.0478  0.7792  0.9331
26569SOL     OW81860   6.829   0.047   0.342  0.3506 -0.4457  0.1687
26569SOL    HW181861   6.863   0.066   0.254  2.1905 -0.0783  0.9233
26569SOL    HW281862   6.907   0.030   0.395 -0.5766  1.2492  2.1970
26570SOL     OW81863   7.783   8.219   1.996 -0.3657 -0.2248  0.2805
26570SOL    HW181864   7.806   8.228   1.903  0.5641  0.0139  0.5268
26570SOL    HW281865   7.689   8.203   1.995 -0.0554 -2.4600 -0.8263
26571SOL     OW81866   9.210   0.792   0.529  0.5257  0.3460 -0.4714
26571SOL    HW181867   9.147   0.862   0.515 -0.5929 -0.1522  1.6379
26571SOL    HW281868   9.206   0.739   0.450 -1.3628  0.6031 -0.5849
26572SOL     OW81869   8.135   6.979   0.930 -0.8355  0.1512  0.0884
26572SOL    HW181870   8.088   6.896   0.942 -0.3634 -0.2977 -1.0123
26572SOL    HW281871   8.155   6.982   0.836 -0.2736  1.2059  0.2233
26573SOL     OW81872   0.123   1.591   8.026 -0.5086  0.0350 -0.0852
26573SOL    HW181873   0.123   1.591   8.122  0.3458  0.0552 -0.0801
26573SOL    HW281874   0.142   1.501   8.002  1.1298  0.3810 -0.2080
26574SOL     OW81875   3.467   5.380   3.520  0.1051 -0.1847 -0.3663
26574SOL    HW181876   3.447   5.473   3.528 -2.0552 -0.4759 -1.6573
26574SOL    HW281877   3.561   5.374   3.538  0.3083  2.2338 -0.3216
26575SOL     OW81878   6.758   1.932   8.503 -0.0082 -0.2164  0.3142
26575SOL    HW181879   6.725   1.983   8.429 -1.6088  1.3684  2.0119
26575SOL    HW281880   6.687   1.872   8.526 -0.0070  0.1329  1.2787
26576SOL     OW81881   9.555   3.412   8.535 -0.3213 -0.2702 -0.1069
26576SOL    HW181882   9.634   3.361   8.553 -1.0518 -2.0348 -1.6906
26576SOL    HW281883   9.587   3.502   8.527  1.4357 -0.8548 -0.1352
26577SOL     OW81884   0.910   0.925   0.819 -0.2497  0.5961 -0.9214
26577SOL    HW181885   0.889   0.947   0.909 -1.0155 -0.2013 -0.8899
26577SOL    HW281886   1.005   0.931   0.814 -0.3005  2.3948 -0.5436
26578SOL     OW81887   7.168   4.242   7.716  0.1302 -0.1365 -0.0236
26578SOL    HW181888   7.260   4.233   7.693 -0.2667 -0.8098 -1.5002
26578SOL    HW281889   7.122   4.185   7.654 -1.2927  0.3154  0.5643
26579SOL     OW81890   7.855   7.985   8.040  0.1272 -0.1241 -0.2663
26579SOL    HW181891   7.795   7.915   8.014  0.1446 -0.7754  1.3245
26579SOL    HW281892   7.830   8.005   8.130  2.4879 -0.6567  0.5692
26580SOL     OW81893   6.944   4.445   9.532  0.2247 -0.0323 -0.1315
26580SOL    HW181894   6.900   4.377   9.480  1.6728 -0.3764 -0.9604
26580SOL    HW281895   6.940   4.523   9.478  1.3644 -0.2864 -0.6176
26581SOL     OW81896   5.982   5.951   0.601 -0.0326 -0.4299 -0.6708
26581SOL    HW181897   5.975   6.017   0.531 -0.6508  1.2564  0.8989
26581SOL    HW281898   5.982   6.002   0.682 -1.2251 -2.4110  0.6631
26582SOL     OW81899   7.973   8.235   3.651  0.1871 -0.2609  0.1728
26582SOL    HW181900   7.884   8.212   3.623  0.2075 -1.2638  0.8973
26582SOL    HW281901   7.962   8.317   3.699 -0.1102  0.4690 -1.0827
26583SOL     OW81902   7.137   4.897   6.511  0.4080  0.1586  0.3384
26583SOL    HW181903   7.053   4.888   6.556  0.5652  0.4137  0.6853
26583SOL    HW281904   7.113   4.913   6.419  0.0947 -0.6563  0.2723
26584SOL     OW81905   7.229   3.714   6.427  0.0982 -0.0799 -0.5295
26584SOL    HW181906   7.164   3.784   6.432  1.8298  1.6301 -0.9116
26584SOL    HW281907   7.182   3.641   6.385 -1.5632  1.0825 -0.8034
26585SOL     OW81908   4.535   4.973   8.300  0.8243 -0.6480 -0.0494
26585SOL    HW181909   4.546   5.003   8.391  0.8237 -0.8866  0.0310
26585SOL    HW281910   4.486   5.043   8.258  0.6672 -0.6162  0.1821
26586SOL     OW81911   4.277   5.805   2.647 -0.3738 -0.0210  0.1521
26586SOL    HW181912   4.255   5.750   2.723  1.5849 -1.4800 -0.2484
26586SOL    HW281913   4.369   5.830   2.661  0.2568 -0.8891 -2.0177
26587SOL     OW81914   1.322   2.128   4.646  0.1526  0.4585  0.7265
26587SOL    HW181915   1.370   2.058   4.692  2.8509  1.5812 -0.2060
26587SOL    HW281916   1.268   2.168   4.714  2.0064  0.3399  2.3715
26588SOL     OW81917   9.123   0.869   5.056 -0.3741  0.2235  0.1820
26588SOL    HW181918   9.045   0.819   5.034  1.2805 -1.7405 -1.5490
26588SOL    HW281919   9.177   0.866   4.977  1.7089  1.0346  1.4906
26589SOL     OW81920   5.992   5.828   7.986 -0.0288  0.5078  0.3231
26589SOL    HW181921   6.067   5.853   7.931  1.2529 -0.7533  1.4371
26589SOL    HW281922   5.945   5.763   7.934 -1.3011  2.4013 -1.0349
26590SOL     OW81923   4.961   8.351   1.393 -1.2674 -0.1920 -0.0048
26590SOL    HW181924   4.999   8.263   1.389 -1.4757 -0.3087  0.4288
26590SOL    HW281925   5.033   8.410   1.370 -1.3962 -0.5285 -1.3429
26591SOL     OW81926   4.774   3.605   2.099  0.1330 -0.4492 -0.0395
26591SOL    HW181927   4.726   3.674   2.145  0.5210 -0.4581  0.3981
26591SOL    HW281928   4.854   3.595   2.151 -0.3327 -1.8722  0.4363
26592SOL     OW81929   4.157   5.361   6.832  0.0911  0.0139 -0.0068
26592SOL    HW181930   4.210   5.433   6.868  0.4531 -0.8984  1.3429
26592SOL    HW281931   4.221   5.305   6.788 -0.2454  0.6987 -1.4298
26593SOL     OW81932   7.817   6.297   3.780  0.7417 -0.1385  0.5322
26593SOL    HW181933   7.894   6.308   3.835  0.1517  1.2800  1.1218
26593SOL    HW281934   7.746   6.277   3.842 -0.0334  1.9857  0.4201
26594SOL     OW81935   8.611   9.631   1.442 -0.3382  0.4593 -0.3661
26594SOL    HW181936   8.641   9.712   1.482 -2.5982  1.3862 -0.3738
26594SOL    HW281937   8.522   9.651   1.413 -1.4522 -2.3592  0.7466
26595SOL     OW81938   2.631   2.478   9.487 -0.0910  0.2372 -0.6057
26595SOL    HW181939   2.642   2.555   9.542 -0.5889  1.0104 -1.5607
26595SOL    HW281940   2.698   2.417   9.517 -0.3839  0.6118  0.8782
26596SOL     OW81941   6.092   8.681   2.639  0.2784  0.5636 -0.5329
26596SOL    HW181942   6.050   8.635   2.566  1.0448  1.3083 -1.4687
26596SOL    HW281943   6.054   8.770   2.636 -1.8985 -0.1389  1.8231
26597SOL     OW81944   9.051   6.855   9.143  0.2584 -0.1697  0.0794
26597SOL    HW181945   9.053   6.868   9.048  1.8908  0.3482  0.1470
26597SOL    HW281946   9.016   6.767   9.155  0.8962 -0.6033 -1.0675
26598SOL     OW81947   5.239   4.711   7.491 -0.4214  0.0011 -0.2397
26598SOL    HW181948   5.160   4.658   7.499 -1.0284  0.8697 -0.3863
26598SOL    HW281949   5.272   4.717   7.581 -0.7320 -0.0540 -0.1189
26599SOL     OW81950   8.206   1.463   5.532 -0.3418  0.0082  0.4083
26599SOL    HW181951   8.229   1.373   5.558  0.1878  0.4116  1.3805
26599SOL    HW281952   8.122   1.454   5.488 -0.2188 -0.9893  0.3488
26600SOL     OW81953   4.083   5.234   3.560  0.1226 -0.0329 -0.0641
26600SOL    HW181954   4.172   5.243   3.593 -0.1326 -0.2485  0.6995
26600SOL    HW281955   4.074   5.140   3.540  0.3000  0.1076 -0.8328
26601SOL     OW81956   6.801   4.632   0.077 -0.2250  0.5770 -0.1373
26601SOL    HW181957   6.728   4.574   0.096 -0.4328  1.2493  1.2018
26601SOL    HW281958   6.866   4.575   0.033 -0.6662 -0.5158  0.5860
26602SOL     OW81959   4.817   6.129   5.184 -0.4924 -0.3819 -0.0003
26602SOL    HW181960   4.895   6.118   5.239 -0.8081 -0.1628  0.4995
26602SOL    HW281961   4.850   6.126   5.094  0.0887 -0.3270  0.2090
26603SOL     OW81962   7.831   7.967   6.170 -0.0362  0.2628  0.2629
26603SOL    HW181963   7.891   7.912   6.221 -0.2764 -0.7198 -0.4889
26603SOL    HW281964   7.819   8.045   6.224  1.9449  0.5120  0.4371
26604SOL     OW81965   7.783   4.412   3.367  0.3843 -0.5480 -0.3393
26604SOL    HW181966   7.829   4.340   3.411  1.0695 -0.6298 -1.1658
26604SOL    HW281967   7.771   4.478   3.435 -1.0321 -1.7592  0.6795
26605SOL     OW81968   2.971   6.304   9.167  0.4832 -0.1025 -0.2693
26605SOL    HW181969   2.945   6.233   9.227  2.0247 -1.1521 -0.7769
26605SOL    HW281970   2.904   6.303   9.099  0.0678 -0.5612  0.1366
26606SOL     OW81971   0.617   4.737   1.207  0.1308 -1.0097  0.1793
26606SOL    HW181972   0.626   4.643   1.197  0.3510 -0.8178 -2.1693
26606SOL    HW281973   0.592   4.768   1.119  1.5378  1.2480  0.4863
26607SOL     OW81974   9.391   7.681   3.039  0.5478 -0.0773 -0.3588
26607SOL    HW181975   9.427   7.767   3.016 -0.7308  0.3456 -0.8712
26607SOL    HW281976   9.420   7.666   3.129  2.5772 -0.0986 -0.9646
26608SOL     OW81977   4.583   1.204   2.644 -0.0604  0.2657 -0.4301
26608SOL    HW181978   4.580   1.295   2.673  1.4154 -0.3704  1.9603
26608SOL    HW281979   4.644   1.161   2.704  0.2025 -2.0665 -2.2156
26609SOL     OW81980   0.186   9.365   6.856 -0.5037 -0.5069 -0.5192
26609SOL    HW181981   0.161   9.340   6.944 -0.1400 -0.9283 -0.5300
26609SOL    HW281982   0.266   9.315   6.838  0.3240  0.7594 -0.4955
26610SOL     OW81983   0.309   0.174   9.368 -0.4282  0.1672  0.3761
26610SOL    HW181984   0.325   0.117   9.443  0.1287 -1.0846 -0.6417
26610SOL    HW281985   0.311   0.115   9.293  1.8738  1.7507 -0.9174
26611SOL     OW81986   2.373   1.836   3.824  0.0864  0.5081  0.2504
26611SOL    HW181987   2.337   1.773   3.762 -0.7581  2.0016 -0.8340
26611SOL    HW281988   2.467   1.818   3.824 -0.0725 -0.3829 -0.4504
26612SOL     OW81989   4.496   3.339   3.931 -0.1281  0.4631 -0.2928
26612SOL    HW181990   4.472   3.416   3.880 -0.4690  0.4659 -0.1293
26612SOL    HW281991   4.472   3.265   3.875  2.2331  0.4449 -1.4240
26613SOL     OW81992   7.814   4.385   4.402  0.1251 -0.1314  0.7495
26613SOL    HW181993   7.797   4.307   4.349  1.2083  2.3825 -3.8823
26613SOL    HW281994   7.759   4.453   4.361  1.5668  2.2261  2.4932
26614SOL     OW81995   5.180   1.215   9.498 -0.1445 -0.4195  0.0683
26614SOL    HW181996   5.135   1.167   9.429 -0.7976 -0.8144  0.7431
26614SOL    HW281997   5.111   1.237   9.561  0.2094  1.0739 -0.0286
26615SOL     OW81998   1.660   9.535   5.603  0.3750 -0.2351  0.1662
26615SOL    HW181999   1.679   9.616   5.556  0.4498 -0.3073  0.0724
26615SOL    HW282000   1.624   9.564   5.687  0.2777 -0.1064  0.0806
26616SOL     OW82001   2.122   4.936   2.083 -0.2029  0.0153 -0.4140
26616SOL    HW182002   2.104   4.884   2.005  0.8931  0.1002 -0.7508
26616SOL    HW282003   2.190   4.887   2.130  0.3782  0.7979 -0.4018
26617SOL     OW82004   6.030   9.215   2.971  0.7603  0.5736  0.1219
26617SOL    HW182005   6.013   9.157   2.897  0.1116  1.7538 -0.6855
26617SOL    HW282006   5.973   9.181   3.041 -0.2712  0.7374 -0.6114
26618SOL     OW82007   2.742   7.978   7.858  0.2060  0.2181 -0.0073
26618SOL    HW182008   2.700   7.892   7.848  0.9141 -0.1199 -0.1412
26618SOL    HW282009   2.769   8.002   7.770  2.4619 -0.7106  0.3665
26619SOL     OW82010   7.925   1.660   9.495 -0.4267  0.5453 -0.3023
26619SOL    HW182011   7.969   1.692   9.574 -0.8001  3.0459 -1.0135
26619SOL    HW282012   7.923   1.565   9.506  2.3639  0.5424  1.1851
26620SOL     OW82013   1.667   2.511   9.450  0.0241  0.4170 -0.0798
26620SOL    HW182014   1.687   2.418   9.458  0.7620  0.6793  1.4207
26620SOL    HW282015   1.743   2.549   9.406  0.2345  0.4872  0.3418
26621SOL     OW82016   3.055   5.724   1.599  0.3671 -0.0039 -0.0454
26621SOL    HW182017   2.988   5.759   1.540 -0.7498 -0.2732  1.0167
26621SOL    HW282018   3.011   5.653   1.646  1.7449 -0.9433 -0.1073
26622SOL     OW82019   5.422   1.751   0.876  0.3682 -0.2175  0.2874
26622SOL    HW182020   5.477   1.824   0.847 -0.2235 -0.0743 -0.5001
26622SOL    HW282021   5.483   1.691   0.919  1.0880  0.1162 -0.2411
26623SOL     OW82022   3.238   3.207   8.233 -0.2376 -0.0745 -0.1278
26623SOL    HW182023   3.255   3.116   8.208 -0.4773  0.1717 -1.2489
26623SOL    HW282024   3.315   3.232   8.285 -0.8051 -1.3244  1.3616
26624SOL     OW82025   4.050   0.930   3.682 -0.1330 -0.5096  0.9377
26624SOL    HW182026   4.094   1.014   3.673 -0.7290 -0.0832  1.9190
26624SOL    HW282027   4.113   0.866   3.648  0.0461  0.3884 -0.4955
26625SOL     OW82028   1.946   9.059   4.188 -0.5624  0.0499 -0.3280
26625SOL    HW182029   1.920   8.971   4.216 -1.2968  0.8334  1.7065
26625SOL    HW282030   1.924   9.063   4.095 -2.1068 -1.3788 -0.0741
26626SOL     OW82031   8.071   0.957   1.083  0.4858  0.6683 -0.2588
26626SOL    HW182032   8.140   0.980   1.145  0.7997 -0.7624 -0.0267
26626SOL    HW282033   7.990   0.963   1.135  0.7306 -0.3735  0.2771
26627SOL     OW82034   1.353   6.680   0.767  0.1743  0.0923  0.2220
26627SOL    HW182035   1.437   6.712   0.732 -0.2245  1.1466  0.2066
26627SOL    HW282036   1.287   6.719   0.710 -0.3771 -0.0675  0.7448
26628SOL     OW82037   9.432   3.845   3.260  0.0726  0.2421 -0.3797
26628SOL    HW182038   9.472   3.816   3.342  1.0358  4.7273  1.0270
26628SOL    HW282039   9.348   3.883   3.287 -1.2744 -1.3523 -2.1010
26629SOL     OW82040   2.938   2.485   2.331 -0.1372  0.0252 -0.0672
26629SOL    HW182041   2.960   2.392   2.324  1.7604  0.5127 -1.6480
26629SOL    HW282042   2.856   2.494   2.284  0.4677 -0.6450 -1.3162
26630SOL     OW82043   2.271   6.114   7.115  0.3517 -0.1512 -1.2228
26630SOL    HW182044   2.293   6.129   7.023  0.9190  0.8459 -0.9400
26630SOL    HW282045   2.308   6.028   7.135  0.4622 -0.2551 -1.8426
26631SOL     OW82046   3.247   8.755   2.298  0.2869  0.6613  0.4434
26631SOL    HW182047   3.250   8.850   2.292 -1.4366  0.9459  2.9757
26631SOL    HW282048   3.168   8.735   2.347  1.0722 -2.0552  0.8045
26632SOL     OW82049   9.259   2.891   0.849 -0.0595  0.0793  0.0469
26632SOL    HW182050   9.291   2.883   0.939  0.1857  0.4714 -0.0036
26632SOL    HW282051   9.336   2.916   0.798 -0.6412  2.3542  0.1372
26633SOL     OW82052   0.591   3.487   6.597 -0.3772  0.3293 -0.1321
26633SOL    HW182053   0.531   3.555   6.628 -1.9943 -1.2060  0.2473
26633SOL    HW282054   0.630   3.451   6.676 -0.9394 -0.4188 -0.1840
26634SOL     OW82055   4.785   3.068   8.999  0.0267  0.2174 -0.7080
26634SOL    HW182056   4.860   3.092   9.053 -0.8799 -0.3154  0.8476
26634SOL    HW282057   4.818   2.998   8.942  1.2792  1.5025 -1.6342
26635SOL     OW82058   5.875   0.931   2.217 -0.3033 -0.3096 -0.4302
26635SOL    HW182059   5.841   0.846   2.191 -1.9130  0.1581  0.0619
26635SOL    HW282060   5.938   0.912   2.286 -0.1242 -1.1369 -0.8103
26636SOL     OW82061   2.778   6.377   9.513  0.0688  0.3153  0.5016
26636SOL    HW182062   2.803   6.345   9.600 -1.3825 -0.6812  0.5810
26636SOL    HW282063   2.848   6.437   9.489  0.5922  0.4868  2.2902
26637SOL     OW82064   5.316   7.051   2.240  0.2014 -0.1527 -0.4109
26637SOL    HW182065   5.223   7.048   2.218  0.2325 -0.2683 -0.5345
26637SOL    HW282066   5.341   7.143   2.229 -0.2620  0.1855  1.1993
26638SOL     OW82067   7.498   4.799   2.164 -0.4097  0.6695  0.2191
26638SOL    HW182068   7.415   4.751   2.159 -0.1808  0.0626  1.7183
26638SOL    HW282069   7.562   4.739   2.127 -0.3146  0.2811  0.9985
26639SOL     OW82070   3.473   7.565   1.795  0.3130  0.2715  0.4524
26639SOL    HW182071   3.551   7.512   1.778  0.9927  1.0285  1.0987
26639SOL    HW282072   3.411   7.540   1.726  1.1630 -0.2800 -0.1317
26640SOL     OW82073   4.069   8.979   0.873  0.2235  0.4101  0.1186
26640SOL    HW182074   4.159   8.945   0.866 -0.2025 -0.7379  0.1477
26640SOL    HW282075   4.016   8.903   0.895 -0.7893  1.0616 -0.0279
26641SOL     OW82076   7.242   2.846   6.547  0.2965 -0.2396 -0.2483
26641SOL    HW182077   7.200   2.830   6.463 -1.4002  1.6099  0.1742
26641SOL    HW282078   7.322   2.793   6.545 -0.9274 -2.1205 -2.0050
26642SOL     OW82079   6.310   4.910   8.530  0.3870 -0.0097 -0.1641
26642SOL    HW182080   6.343   4.997   8.556 -3.5362  0.9387  2.5385
26642SOL    HW282081   6.320   4.857   8.609 -0.0920 -1.0869 -0.8085
26643SOL     OW82082   2.977   5.119   0.827 -0.0980  0.1801  0.4167
26643SOL    HW182083   2.954   5.109   0.734  1.0707 -2.7775  0.3374
26643SOL    HW282084   2.926   5.050   0.871  1.0417  0.0793  1.6160
26644SOL     OW82085   6.294   2.052   6.628 -0.5201  0.6290  0.1090
26644SOL    HW182086   6.206   2.072   6.594 -0.8506  0.6832  0.9572
26644SOL    HW282087   6.329   1.988   6.566 -1.8252 -0.6812  0.6495
26645SOL     OW82088   6.845   9.526   4.239 -0.2044 -0.4378 -0.1820
26645SOL    HW182089   6.873   9.520   4.330  0.9761  0.8647 -0.4169
26645SOL    HW282090   6.750   9.539   4.243 -0.0140  0.7913  0.9323
26646SOL     OW82091   8.430   3.103   0.714 -0.0064  0.0244 -0.5778
26646SOL    HW182092   8.363   3.073   0.775  0.9417 -1.6526 -0.3087
26646SOL    HW282093   8.491   3.030   0.707  1.1413  1.0428 -1.7711
26647SOL     OW82094   3.825   7.634   2.391  0.2425  0.1819  0.1755
26647SOL    HW182095   3.760   7.700   2.369 -0.4398  0.4987  2.7535
26647SOL    HW282096   3.855   7.658   2.479  0.6478 -2.4074  0.8463
26648SOL     OW82097   3.620   4.165   1.745 -0.5796 -0.3829 -0.0544
26648SOL    HW182098   3.666   4.080   1.743  0.8915  0.2211  2.6020
26648SOL    HW282099   3.660   4.215   1.674 -0.0812 -1.2796 -0.4340
26649SOL     OW82100   6.794   6.761   5.936 -0.2191 -0.1421  0.4645
26649SOL    HW182101   6.769   6.732   6.024 -0.0888 -1.7257  0.0220
26649SOL    HW282102   6.811   6.679   5.889  0.6175  0.7154 -0.7640
26650SOL     OW82103   5.769   7.522   0.946 -0.1969 -0.0785 -0.4715
26650SOL    HW182104   5.768   7.614   0.918  1.6042  0.0135 -0.3744
26650SOL    HW282105   5.861   7.504   0.963 -0.7484 -1.3157  1.5235
26651SOL     OW82106   8.275   8.330   6.816  0.5504 -0.1467  0.4900
26651SOL    HW182107   8.347   8.351   6.756  0.3608  0.8834  0.5927
26651SOL    HW282108   8.197   8.328   6.759  0.7744 -2.4324  0.1749
26652SOL     OW82109   2.777   1.743   4.103 -0.4396  0.5909  0.2952
26652SOL    HW182110   2.859   1.789   4.086  0.1893  0.3362  2.3419
26652SOL    HW282111   2.798   1.682   4.174 -1.2448 -2.9235 -2.2360
26653SOL     OW82112   7.351   8.034   3.999  0.2798  0.2573 -0.1021
26653SOL    HW182113   7.413   7.966   3.973  1.9909  1.6479  0.0526
26653SOL    HW282114   7.289   8.041   3.927 -0.3332 -1.8502  0.1633
26654SOL     OW82115   5.811   6.915   4.480 -0.0242  0.6720  0.1069
26654SOL    HW182116   5.870   6.977   4.438 -0.9970  2.8426  1.7391
26654SOL    HW282117   5.724   6.943   4.453 -0.4517 -0.8549 -0.1857
26655SOL     OW82118   9.552   4.450   7.661 -0.4041 -0.5324  0.1736
26655SOL    HW182119   9.547   4.545   7.650 -0.9786 -0.3744  1.5763
26655SOL    HW282120   9.469   4.417   7.627 -0.0623 -0.5948 -0.6428
26656SOL     OW82121   6.683   6.789   1.798 -0.2186 -0.1418 -0.4324
26656SOL    HW182122   6.710   6.810   1.888 -1.5364  0.4128 -0.1364
26656SOL    HW282123   6.705   6.868   1.748 -0.5500  0.0109 -0.3448
26657SOL     OW82124   1.787   4.065   7.044 -0.1046 -0.4978  0.1795
26657SOL    HW182125   1.859   4.002   7.051 -2.5872 -3.7328 -0.9630
26657SOL    HW282126   1.766   4.087   7.135 -0.7125 -3.4023  0.8550
26658SOL     OW82127   2.205   1.594   5.346  0.3404 -0.0781  0.2164
26658SOL    HW182128   2.218   1.687   5.323  0.8131 -0.4303 -1.0500
26658SOL    HW282129   2.264   1.579   5.419 -0.5507  0.8847  1.1683
26659SOL     OW82130   5.657   1.092   0.787 -0.3050 -0.0715 -0.4876
26659SOL    HW182131   5.723   1.141   0.837 -1.0895  0.0048  0.5023
26659SOL    HW282132   5.581   1.150   0.783 -0.3622 -0.2008 -1.5291
26660SOL     OW82133   0.337   6.960   7.260 -0.1428 -0.1958  0.7633
26660SOL    HW182134   0.332   6.963   7.356 -0.5403 -0.6231  0.7560
26660SOL    HW282135   0.402   6.892   7.242  2.0938  1.8098  0.7640
26661SOL     OW82136   8.978   3.920   3.954  0.4277  0.2134  0.0950
26661SOL    HW182137   8.983   3.919   4.049  0.4589 -1.3256  0.0972
26661SOL    HW282138   9.058   3.963   3.926  1.4592 -1.2296  0.7353
26662SOL     OW82139   4.155   9.584   8.027  0.0321  0.1913 -0.4440
26662SOL    HW182140   4.168   9.513   7.964  3.8486  1.9437 -1.8991
26662SOL    HW282141   4.128   9.659   7.973 -1.8780  0.4979  0.8090
26663SOL     OW82142   0.479   8.357   9.107  0.1917  0.1393 -0.0032
26663SOL    HW182143   0.482   8.443   9.151  0.5401 -0.3285  0.9062
26663SOL    HW282144   0.406   8.365   9.045 -0.5722  0.6972  0.9354
26664SOL     OW82145   7.068   3.490   2.618  0.4048  0.2857  0.3729
26664SOL    HW182146   6.984   3.497   2.573  0.4526 -2.6089 -0.4111
26664SOL    HW282147   7.132   3.523   2.554  0.1625 -0.9022 -0.5275
26665SOL     OW82148   4.892   3.418   1.310 -0.4383  0.6320  0.4435
26665SOL    HW182149   4.956   3.397   1.242 -0.9251 -0.6081  0.3357
26665SOL    HW282150   4.867   3.509   1.292 -1.8717 -0.1817 -2.1770
26666SOL     OW82151   5.165   0.268   6.252  0.1119  0.3476 -0.0418
26666SOL    HW182152   5.179   0.319   6.172 -0.7324  0.3070 -0.2269
26666SOL    HW282153   5.106   0.321   6.305  1.6479  0.9482  1.1367
26667SOL     OW82154   2.430   8.032   0.737  0.1301  0.0310 -0.0763
26667SOL    HW182155   2.368   8.016   0.808 -0.7129 -0.4328 -0.8911
26667SOL    HW282156   2.383   8.090   0.677  0.9967  0.7712 -0.0552
26668SOL     OW82157   3.526   2.803   8.881 -0.1126  0.9955  0.8523
26668SOL    HW182158   3.471   2.779   8.807 -0.0144 -0.1902  1.1523
26668SOL    HW282159   3.464   2.822   8.951 -0.2381  2.8228  0.3058
26669SOL     OW82160   0.939   7.861   3.503 -0.2775 -0.1145 -0.1753
26669SOL    HW182161   0.867   7.799   3.487 -0.6723  0.4701 -0.7153
26669SOL    HW282162   0.949   7.861   3.598 -0.1736 -1.1123 -0.1716
26670SOL     OW82163   4.453   4.065   7.329  0.0477  0.0395 -0.3600
26670SOL    HW182164   4.415   4.143   7.287 -0.9847  0.1572  0.7482
26670SOL    HW282165   4.391   3.995   7.309  1.3637 -0.7273 -2.0249
26671SOL     OW82166   1.253   7.535   1.033 -0.3312  0.3576  0.0946
26671SOL    HW182167   1.254   7.603   0.965 -1.1980 -0.9449 -1.3080
26671SOL    HW282168   1.334   7.486   1.019  0.0480  0.7827  0.7724
26672SOL     OW82169   4.108   3.697   8.804  0.4121  0.5891 -0.2961
26672SOL    HW182170   4.042   3.682   8.872  0.5614 -0.2328 -0.3200
26672SOL    HW282171   4.081   3.778   8.762 -0.4130  0.4280 -0.0970
26673SOL     OW82172   4.367   1.235   4.541  0.3568  0.1254 -0.2289
26673SOL    HW182173   4.304   1.177   4.497  0.7257 -0.7925  0.4158
26673SOL    HW282174   4.314   1.308   4.572  0.2038  1.2952 -2.9124
26674SOL     OW82175   3.482   4.051   4.780  0.8169  0.3132  0.2407
26674SOL    HW182176   3.482   4.014   4.692 -0.3615 -0.3946  0.5124
26674SOL    HW282177   3.473   4.145   4.767 -0.8787  0.1038 -0.3937
26675SOL     OW82178   0.210   1.319   9.425 -0.2486 -0.0188 -0.0654
26675SOL    HW182179   0.251   1.399   9.391  0.4594 -0.0591  0.6745
26675SOL    HW282180   0.218   1.256   9.353  1.3340 -0.1381  0.1786
26676SOL     OW82181   8.415   5.535   6.576 -0.2606 -0.2083  0.0952
26676SOL    HW182182   8.438   5.628   6.571 -0.3606 -0.1016  1.3196
26676SOL    HW282183   8.388   5.522   6.667 -0.8723 -1.2956 -0.2228
26677SOL     OW82184   7.423   3.620   8.759 -0.0348  0.2888  0.4377
26677SOL    HW182185   7.481   3.653   8.828  0.6212  0.7450 -0.3153
26677SOL    HW282186   7.336   3.652   8.782  0.2230  0.6558  0.9116
26678SOL     OW82187   4.781   8.868   7.205 -0.7113 -0.5152 -0.2111
26678SOL    HW182188   4.864   8.831   7.175  0.0138 -0.5154  1.6834
26678SOL    HW282189   4.723   8.793   7.214 -0.7772 -0.5747 -1.0247
26679SOL     OW82190   6.400   1.272   2.869  0.6106  0.4633 -0.2658
26679SOL    HW182191   6.467   1.215   2.832  1.3488  1.5673 -0.6680
26679SOL    HW282192   6.327   1.267   2.807  0.8799  0.3977 -0.5757
26680SOL     OW82193   2.950   7.735   3.732  0.0951 -0.1377 -0.1174
26680SOL    HW182194   2.869   7.778   3.761 -0.0884 -1.4161  1.3976
26680SOL    HW282195   3.010   7.807   3.715 -1.2045  0.8257 -0.8424
26681SOL     OW82196   1.783   6.445   3.397 -0.3947 -0.1141  0.0100
26681SOL    HW182197   1.692   6.473   3.402 -1.7449 -4.0200  0.6924
26681SOL    HW282198   1.799   6.401   3.481  2.2259  0.6329 -0.0244
26682SOL     OW82199   1.772   0.823   3.108 -0.8736  0.2708 -0.8013
26682SOL    HW182200   1.767   0.767   3.186  2.3475  2.5673  1.3403
26682SOL    HW282201   1.826   0.774   3.046  2.4289  0.9438  1.2785
26683SOL     OW82202   8.329   5.433   0.356  0.4655 -0.1065  0.2216
26683SOL    HW182203   8.361   5.343   0.363 -0.9382 -0.6254  0.3312
26683SOL    HW282204   8.261   5.429   0.289  1.0263  1.0790 -0.4509
26684SOL     OW82205   6.524   4.196   5.782  0.5846 -0.3956 -0.5970
26684SOL    HW182206   6.530   4.104   5.807  1.5480 -0.4482 -0.9681
26684SOL    HW282207   6.454   4.232   5.837  2.5536 -0.5071  2.2087
26685SOL     OW82208   2.710   7.308   9.264  0.6044 -0.4331  0.5868
26685SOL    HW182209   2.632   7.363   9.273  0.8122 -0.1915  0.9627
26685SOL    HW282210   2.761   7.327   9.343  1.1386 -0.4324  0.2471
26686SOL     OW82211   0.543   9.031   0.171  0.3269  0.4219  0.4598
26686SOL    HW182212   0.481   9.097   0.203  1.4085  0.3179  2.9690
26686SOL    HW282213   0.487   8.964   0.131 -1.0870  0.9984  1.3869
26687SOL     OW82214   8.001   8.304   7.572 -0.1283 -0.0208 -0.5324
26687SOL    HW182215   8.094   8.328   7.574 -0.4332  1.1719  0.0822
26687SOL    HW282216   8.001   8.209   7.583  0.9703  0.0989  0.8094
26688SOL     OW82217   8.646   6.085   6.852  0.5976  0.4571 -0.1767
26688SOL    HW182218   8.684   6.034   6.780  1.0930 -0.8880  0.9918
26688SOL    HW282219   8.552   6.082   6.836  0.6790 -0.0858 -0.6090
26689SOL     OW82220   6.730   0.916   0.600  0.3009  0.9861  0.1959
26689SOL    HW182221   6.651   0.916   0.654  0.0337  0.1449 -0.1705
26689SOL    HW282222   6.795   0.869   0.653  0.2128  0.6815  0.0394
26690SOL     OW82223   5.907   3.900   8.048  0.5230  0.1630 -0.2559
26690SOL    HW182224   5.821   3.903   8.091  0.9370  1.7591  0.5069
26690SOL    HW282225   5.957   3.837   8.100 -0.3919 -1.4095 -1.1872
26691SOL     OW82226   4.711   7.905   8.880  0.1110  0.3653  0.1014
26691SOL    HW182227   4.663   7.881   8.959  0.8412 -0.9264  0.1815
26691SOL    HW282228   4.790   7.948   8.912 -0.3634  1.3256  0.0090
26692SOL     OW82229   0.090   2.612   2.672 -0.2276  0.3598 -0.3409
26692SOL    HW182230   0.155   2.664   2.718  2.0689 -1.0002 -1.8432
26692SOL    HW282231   0.048   2.674   2.612  0.1007  1.1505  0.2328
26693SOL     OW82232   5.367   0.127   1.355  0.0834 -0.4510 -0.1925
26693SOL    HW182233   5.321   0.070   1.417  0.0990 -1.2344 -0.8805
26693SOL    HW282234   5.307   0.135   1.280 -0.0699  0.7357  0.0304
26694SOL     OW82235   9.431   7.581   6.613 -0.7529 -0.4667 -0.1641
26694SOL    HW182236   9.471   7.667   6.627 -0.7917 -0.6816  1.5549
26694SOL    HW282237   9.488   7.537   6.551  0.9013 -0.2337  1.1143
26695SOL     OW82238   4.719   8.002   1.576 -0.1960  0.6950  0.4501
26695SOL    HW182239   4.785   8.064   1.607  0.0749  0.0912  1.1194
26695SOL    HW282240   4.760   7.960   1.500 -0.4582  1.4608 -0.1231
26696SOL     OW82241   9.016   9.046   7.649  0.1185  0.4023 -0.1481
26696SOL    HW182242   8.980   9.053   7.560  0.4633  2.0098 -0.1885
26696SOL    HW282243   9.085   8.980   7.642 -0.8420 -0.5666 -0.7250
26697SOL     OW82244   1.791   3.826   9.215 -0.0726 -0.2564  0.2061
26697SOL    HW182245   1.774   3.743   9.258 -1.6854  0.0036  0.1077
26697SOL    HW282246   1.822   3.884   9.286  2.9293 -1.3791 -0.0231
26698SOL     OW82247   5.606   0.259   7.075  0.5196  0.0171 -0.0348
26698SOL    HW182248   5.553   0.234   6.999  1.8975 -0.3140 -0.9265
26698SOL    HW282249   5.657   0.180   7.094  0.1257  0.0735  1.3018
26699SOL     OW82250   8.035   8.911   3.813 -0.1161 -0.7524 -0.2022
26699SOL    HW182251   8.011   8.914   3.720 -1.6988  0.0052  0.1960
26699SOL    HW282252   8.112   8.967   3.820 -1.5765  1.4275 -0.6632
26700SOL     OW82253   5.909   5.764   8.231 -0.2431 -0.5346 -0.2664
26700SOL    HW182254   5.838   5.709   8.199 -0.3010 -1.0109  0.6730
26700SOL    HW282255   5.965   5.777   8.154 -0.5444 -1.4038 -0.6446
26701SOL     OW82256   3.040   7.642   7.555  0.3392 -0.0310  0.2087
26701SOL    HW182257   2.988   7.562   7.556  0.1593  0.0830  1.6657
26701SOL    HW282258   3.071   7.652   7.645  0.4618  1.4620  0.0276
26702SOL     OW82259   8.969   2.463   3.243  0.3373 -0.6842 -0.4932
26702SOL    HW182260   9.007   2.446   3.330 -0.9762 -1.9117 -0.1175
26702SOL    HW282261   8.970   2.558   3.234  1.9165 -0.6048  0.2016
26703SOL     OW82262   9.323   2.707   8.335  0.0231 -0.5985 -0.0644
26703SOL    HW182263   9.399   2.765   8.337 -1.3907  1.3290  1.6503
26703SOL    HW282264   9.340   2.643   8.404  0.7906 -1.2033 -0.7890
26704SOL     OW82265   1.609   9.253   0.549  0.1263  0.1142 -0.3501
26704SOL    HW182266   1.696   9.226   0.518 -0.7139 -0.2564 -2.4971
26704SOL    HW282267   1.612   9.349   0.547 -0.1801  0.1182 -2.5404
26705SOL     OW82268   2.464   7.687   8.872  0.5013 -0.0613 -0.2709
26705SOL    HW182269   2.475   7.610   8.817 -0.0049  0.0407 -0.5193
26705SOL    HW282270   2.404   7.743   8.823 -0.2782 -0.1437  0.5566
26706SOL     OW82271   2.410   0.340   2.424  0.0733  0.6167  0.4693
26706SOL    HW182272   2.478   0.401   2.451 -0.5104  0.6169  2.0384
26706SOL    HW282273   2.334   0.395   2.405  0.5229  0.6348 -1.4731
26707SOL     OW82274   7.123   3.751   2.996  0.7639  0.0826  0.1187
26707SOL    HW182275   7.114   3.839   2.960  2.2912  0.3349  0.3045
26707SOL    HW282276   7.206   3.752   3.042  1.3438 -1.7808 -0.7910
26708SOL     OW82277   1.732   5.692   0.770 -0.0131 -0.2852 -0.0832
26708SOL    HW182278   1.777   5.722   0.692  0.5203 -0.7742  0.0276
26708SOL    HW282279   1.652   5.650   0.737 -0.3947  0.5841 -0.2776
26709SOL     OW82280   0.701   8.989   5.296 -0.3877 -0.6876  0.1725
26709SOL    HW182281   0.796   8.990   5.283 -0.0288 -0.0624  2.3879
26709SOL    HW282282   0.674   9.080   5.289 -0.9038 -0.8895 -0.7065
26710SOL     OW82283   5.884   4.314   3.568 -0.4981 -0.0689 -0.0306
26710SOL    HW182284   5.891   4.219   3.582 -0.9362 -0.3649 -1.6454
26710SOL    HW282285   5.791   4.333   3.583 -0.1669  0.3884  1.6932
26711SOL     OW82286   8.554   8.220   7.670  0.3584  0.3922 -0.2089
26711SOL    HW182287   8.627   8.272   7.704  0.9862 -1.2154  1.0050
26711SOL    HW282288   8.594   8.138   7.642 -0.8834 -0.2206 -0.2621
26712SOL     OW82289   0.187   2.617   4.953 -0.2912  0.1561 -0.4184
26712SOL    HW182290   0.209   2.707   4.977 -0.1688  0.0860 -0.2700
26712SOL    HW282291   0.214   2.609   4.862 -1.4116  0.6461 -0.8197
26713SOL     OW82292   2.966   8.081   4.689  0.3818  0.2914  0.0597
26713SOL    HW182293   2.872   8.079   4.707  0.3583 -0.7662 -0.1320
26713SOL    HW282294   3.003   8.132   4.761  0.0354 -1.9938  1.9948
26714SOL     OW82295   8.223   6.868   6.289 -0.3844 -0.0568 -0.1477
26714SOL    HW182296   8.221   6.882   6.384 -1.5672  3.2203 -0.5133
26714SOL    HW282297   8.136   6.896   6.259  0.1104 -0.6193 -2.2433
26715SOL     OW82298   4.542   8.173   2.322 -0.4201 -0.2147  0.0613
26715SOL    HW182299   4.548   8.260   2.282 -3.2898 -1.0937 -2.7158
26715SOL    HW282300   4.602   8.119   2.270 -0.2920 -0.3382  0.3374
26716SOL     OW82301   2.702   2.809   5.134 -0.0419  0.6150  0.1210
26716SOL    HW182302   2.735   2.891   5.096  0.2512  0.0462 -0.9128
26716SOL    HW282303   2.717   2.744   5.065  0.4332 -0.4586  1.2228
26717SOL     OW82304   5.039   2.645   2.060 -0.5695  0.3815 -0.2710
26717SOL    HW182305   5.029   2.558   2.098 -0.7562  0.1411 -0.8648
26717SOL    HW282306   5.065   2.700   2.134 -0.8977 -0.0832  0.1993
26718SOL     OW82307   6.332   4.404   3.474 -0.1877  0.3979 -0.3566
26718SOL    HW182308   6.248   4.385   3.432 -0.7279  0.6107  0.6166
26718SOL    HW282309   6.382   4.323   3.465  0.2113  0.8127 -2.5322
26719SOL     OW82310   0.825   6.233   4.568  0.3958 -0.5370 -0.0654
26719SOL    HW182311   0.893   6.285   4.527  0.4792 -0.3014  0.3622
26719SOL    HW282312   0.761   6.218   4.499  0.3171  0.2253 -0.1678
26720SOL     OW82313   4.416   5.966   9.560  0.0545 -0.4195 -1.0974
26720SOL    HW182314   4.321   5.963   9.550  0.0655 -1.7079 -0.9721
26720SOL    HW282315   4.450   5.926   9.480  0.4380 -1.2787 -0.5185
26721SOL     OW82316   2.833   2.036   1.711  0.0711 -0.1017 -0.1001
26721SOL    HW182317   2.827   1.941   1.707  0.0456 -0.0666 -1.6844
26721SOL    HW282318   2.749   2.065   1.747  0.9426 -0.7421  2.6658
26722SOL     OW82319   0.941   5.780   8.653 -0.5098 -0.0090 -0.0175
26722SOL    HW182320   0.955   5.688   8.631 -1.8228 -0.5936  1.4043
26722SOL    HW282321   0.916   5.821   8.570  1.0667 -0.6797 -0.8752
26723SOL     OW82322   3.196   4.927   6.673 -0.3218 -0.6866  0.5109
26723SOL    HW182323   3.261   4.990   6.705 -0.9010  0.1197  0.1231
26723SOL    HW282324   3.203   4.853   6.733  0.1449 -0.1239  1.1695
26724SOL     OW82325   4.183   6.257   4.344 -0.4494  0.9387 -0.7998
26724SOL    HW182326   4.213   6.169   4.322 -0.7058  0.9506 -1.1912
26724SOL    HW282327   4.197   6.263   4.439 -1.1291  0.2093 -0.6438
26725SOL     OW82328   3.473   7.876   5.050 -0.4863  0.1009  0.1187
26725SOL    HW182329   3.390   7.918   5.070 -0.1659 -0.0250  1.8621
26725SOL    HW282330   3.519   7.873   5.134  1.1348 -0.1458 -0.7455
26726SOL     OW82331   3.928   0.904   9.363 -0.0361  0.0404  0.1464
26726SOL    HW182332   3.957   0.834   9.304  1.5214  1.4600 -0.8808
26726SOL    HW282333   3.833   0.901   9.359  0.0034 -0.2120 -2.1337
26727SOL     OW82334   7.545   2.193   1.306 -0.2475 -0.2715  0.3746
26727SOL    HW182335   7.529   2.192   1.400  0.8099 -1.0852  0.5754
26727SOL    HW282336   7.640   2.201   1.299 -0.2854 -0.5971 -0.6105
26728SOL     OW82337   4.181   8.934   4.323  0.1650 -0.1536  0.1462
26728SOL    HW182338   4.253   8.888   4.366 -1.0844  0.3031  2.9750
26728SOL    HW282339   4.222   9.010   4.282  1.4282 -0.4342  0.8492
26729SOL     OW82340   2.477   5.790   7.388  0.4589  0.3042 -0.2298
26729SOL    HW182341   2.476   5.694   7.385 -0.3494  0.3192 -1.8017
26729SOL    HW282342   2.487   5.816   7.296 -0.2348  1.7259  0.0677
26730SOL     OW82343   7.943   7.951   7.294  0.0916  0.9693  0.2974
26730SOL    HW182344   8.020   7.994   7.330  0.0831 -0.3132  1.9125
26730SOL    HW282345   7.978   7.880   7.240  0.0695  0.0367  1.4762
26731SOL     OW82346   4.721   5.195   0.375  0.1010 -0.7344  0.0663
26731SOL    HW182347   4.741   5.105   0.353 -0.8545 -0.9535  0.0299
26731SOL    HW282348   4.777   5.215   0.450 -1.1084 -2.0330  1.3731
26732SOL     OW82349   1.937   3.412   0.802  0.1869 -0.5559  0.3056
26732SOL    HW182350   1.951   3.323   0.833  3.1059 -0.4957 -0.5620
26732SOL    HW282351   1.938   3.406   0.707  1.7487  0.4954  0.2065
26733SOL     OW82352   6.291   0.641   7.244 -0.3573  0.2353 -0.0813
26733SOL    HW182353   6.364   0.695   7.215 -0.4155 -0.3167 -1.3215
26733SOL    HW282354   6.327   0.552   7.247 -0.3561  0.2510  1.6024
26734SOL     OW82355   0.971   5.619   4.343 -0.3328  0.7526 -0.0445
26734SOL    HW182356   1.032   5.546   4.331 -2.6876 -1.2924 -0.4275
26734SOL    HW282357   0.973   5.666   4.259  2.0661  1.9300  0.5973
26735SOL     OW82358   3.317   3.781   4.457 -0.3047 -0.1885 -0.3721
26735SOL    HW182359   3.260   3.726   4.510 -0.1690  0.5829  0.5993
26735SOL    HW282360   3.333   3.729   4.377  0.8674 -2.1524  1.0277
26736SOL     OW82361   7.418   1.123   3.775  0.7811  0.3752 -0.4053
26736SOL    HW182362   7.400   1.116   3.682  0.3130  0.2207 -0.3043
26736SOL    HW282363   7.344   1.081   3.818  1.3894 -0.3033  0.0194
26737SOL     OW82364   8.286   5.187   3.414  0.0705 -0.0193 -0.7265
26737SOL    HW182365   8.345   5.127   3.369 -0.9174 -0.6306 -1.2414
26737SOL    HW282366   8.214   5.201   3.352 -0.2679  0.8118 -0.1679
26738SOL     OW82367   7.778   1.736   8.646 -0.1238 -0.4185  0.3660
26738SOL    HW182368   7.746   1.806   8.702  1.6412  0.6654  0.1071
26738SOL    HW282369   7.720   1.662   8.664 -1.3774  0.7693  1.4446
26739SOL     OW82370   5.161   0.075   0.492  0.1774  0.4883 -0.1914
26739SOL    HW182371   5.241   0.113   0.528 -0.4514  0.7719  0.9360
26739SOL    HW282372   5.142   0.001   0.550  0.6064 -0.7058 -1.5219
26740SOL     OW82373   2.865   8.926   9.008  0.4574  0.2338  0.4615
26740SOL    HW182374   2.936   8.865   8.987 -0.4213 -0.0602 -1.8959
26740SOL    HW282375   2.896   9.011   8.976 -0.3199  0.0487 -0.8531
26741SOL     OW82376   0.036   4.372   3.433  0.1348 -0.1108 -0.3016
26741SOL    HW182377   0.042   4.326   3.517  0.2820 -0.1588 -0.3394
26741SOL    HW282378   0.036   4.465   3.457  0.6691 -0.1136 -0.2798
26742SOL     OW82379   5.037   1.432   0.556  0.3990  0.3815 -0.1465
26742SOL    HW182380   4.991   1.515   0.566 -1.0742 -0.3962 -0.2620
26742SOL    HW282381   4.993   1.389   0.482  3.0258  0.7171 -2.0513
26743SOL     OW82382   9.278   3.678   1.880  0.2956 -0.1208 -0.0590
26743SOL    HW182383   9.196   3.720   1.905  0.8852  1.0770 -0.0551
26743SOL    HW282384   9.308   3.635   1.961  0.8050  1.3807  0.5802
26744SOL     OW82385   4.389   0.548   9.376 -0.2252 -0.6712 -0.3792
26744SOL    HW182386   4.384   0.453   9.379 -0.1335 -0.6629  0.2438
26744SOL    HW282387   4.477   0.568   9.344  0.2737 -0.7984  0.8736
26745SOL     OW82388   2.868   5.880   6.402 -0.2117 -0.2950 -0.4532
26745SOL    HW182389   2.942   5.902   6.460 -0.5476 -1.4393  0.4538
26745SOL    HW282390   2.909   5.846   6.323  0.2504 -0.1493 -0.2815
26746SOL     OW82391   1.896   6.283   6.696 -0.8667  0.3851 -0.6956
26746SOL    HW182392   1.972   6.339   6.679  0.3426 -1.0603 -0.2447
26746SOL    HW282393   1.855   6.321   6.775 -0.0809  0.6417 -0.4033
26747SOL     OW82394   7.506   7.012   0.786 -0.6439  0.1436 -0.4859
26747SOL    HW182395   7.493   7.074   0.715 -0.7025 -0.2564 -0.8258
26747SOL    HW282396   7.557   6.941   0.747  2.1026  1.3417  0.6189
26748SOL     OW82397   3.059   9.041   7.842 -0.0100  0.0124  0.4018
26748SOL    HW182398   3.023   9.089   7.917  0.8259  3.1453 -1.0215
26748SOL    HW282399   2.984   8.992   7.807 -0.9155  0.1447  2.0271
26749SOL     OW82400   8.663   7.924   2.006 -0.1699 -0.0212 -0.4492
26749SOL    HW182401   8.640   7.969   1.924  0.0045 -1.3987 -1.2863
26749SOL    HW282402   8.641   7.832   1.989  0.2802 -0.3921  0.9108
26750SOL     OW82403   8.654   9.546   0.324  0.1371  0.2902 -0.0617
26750SOL    HW182404   8.640   9.488   0.398 -0.8402  2.4095  1.5448
26750SOL    HW282405   8.642   9.634   0.361 -0.8135  1.4273 -2.8183
26751SOL     OW82406   4.413   0.480   8.379 -0.4134 -0.1015  0.1081
26751SOL    HW182407   4.435   0.517   8.293  0.6644 -1.5617 -0.2991
26751SOL    HW282408   4.350   0.410   8.358 -1.1143  0.3579  0.6589
26752SOL     OW82409   7.430   2.653   1.140  0.0865  0.1981 -0.1578
26752SOL    HW182410   7.420   2.748   1.135  1.1431  0.3304  0.0229
26752SOL    HW282411   7.439   2.635   1.234 -0.7918 -0.1563 -0.1398
26753SOL     OW82412   2.762   2.372   3.775  0.1950  0.0932  0.1943
26753SOL    HW182413   2.778   2.349   3.684 -0.4515 -0.0401  0.1071
26753SOL    HW282414   2.812   2.453   3.789 -1.5024  1.4130 -0.9592
26754SOL     OW82415   6.137   5.422   1.017 -0.1516  0.1997 -0.2937
26754SOL    HW182416   6.169   5.498   1.067  1.9448 -0.6069 -0.3046
26754SOL    HW282417   6.217   5.377   0.989 -1.3272 -2.0447 -0.2515
26755SOL     OW82418   3.894   2.770   6.451 -0.1415 -0.1039 -0.1724
26755SOL    HW182419   3.948   2.800   6.378  0.9366  0.6859  0.9206
26755SOL    HW282420   3.887   2.846   6.509 -0.4120 -0.8982  0.8748
26756SOL     OW82421   1.415   8.826   5.667 -1.0570 -0.1336 -0.9564
26756SOL    HW182422   1.503   8.846   5.633 -1.9264  3.2303 -1.5628
26756SOL    HW282423   1.401   8.890   5.736 -2.7880 -1.1050 -0.3435
26757SOL     OW82424   6.765   6.169   4.259  0.2091  0.1913  0.1806
26757SOL    HW182425   6.816   6.115   4.198 -1.2071 -1.5599  0.4736
26757SOL    HW282426   6.816   6.250   4.266  0.6517  0.3448 -2.9802
26758SOL     OW82427   5.536   6.394   2.075  0.3069 -0.0511 -0.2566
26758SOL    HW182428   5.541   6.304   2.109 -0.7880 -0.5988 -1.4626
26758SOL    HW282429   5.548   6.449   2.153 -0.3650 -1.2349  0.7310
26759SOL     OW82430   6.649   1.553   0.245  0.2003 -0.1512 -0.0454
26759SOL    HW182431   6.644   1.485   0.178 -0.1034 -0.5359  0.3635
26759SOL    HW282432   6.628   1.634   0.198 -0.5830 -0.4980 -0.3071
26760SOL     OW82433   3.242   4.129   1.489  0.1656 -0.4797  0.4915
26760SOL    HW182434   3.231   4.175   1.406 -1.8572  1.2644  1.6076
26760SOL    HW282435   3.235   4.036   1.467  2.0850 -0.2360 -1.5448
26761SOL     OW82436   7.556   6.975   1.396  0.4682 -0.6379  0.4514
26761SOL    HW182437   7.486   6.945   1.338  1.0521  0.6448 -0.9671
26761SOL    HW282438   7.615   7.025   1.339  1.2784  0.3375  2.0824
26762SOL     OW82439   1.809   0.250   8.361  0.2280  0.4251  0.3156
26762SOL    HW182440   1.806   0.231   8.454  2.0559 -1.1348  0.1101
26762SOL    HW282441   1.782   0.169   8.318  0.1472  0.8871 -0.5382
26763SOL     OW82442   8.746   8.014   0.885 -0.4070  0.2065 -0.3263
26763SOL    HW182443   8.652   7.997   0.878 -0.4148  0.2419 -0.3080
26763SOL    HW282444   8.785   7.927   0.893 -0.4987  0.2285  0.4026
26764SOL     OW82445   8.419   0.987   3.442 -0.1113 -0.2454 -0.3633
26764SOL    HW182446   8.407   0.927   3.515  0.6380  1.1027  0.9328
26764SOL    HW282447   8.373   0.946   3.369 -0.7690 -1.7104  0.8208
26765SOL     OW82448   7.426   9.068   3.310  0.2307 -0.3402  0.0709
26765SOL    HW182449   7.368   9.124   3.258  0.3008  1.7348  2.0892
26765SOL    HW282450   7.501   9.052   3.253 -0.9255 -0.5273 -1.4648
26766SOL     OW82451   1.931   2.104   5.727 -0.3189  0.0443 -0.1141
26766SOL    HW182452   1.893   2.100   5.815 -1.1622  1.2181 -0.4035
26766SOL    HW282453   1.949   2.197   5.713  1.4995 -0.3411 -0.4950
26767SOL     OW82454   7.634   7.875   4.525 -0.4964 -0.2323  0.4724
26767SOL    HW182455   7.676   7.790   4.518 -0.8813 -0.6475  2.4704
26767SOL    HW282456   7.695   7.928   4.576  0.0646  0.9520 -1.3723
26768SOL     OW82457   2.069   7.234   9.607 -0.3853 -0.4246  0.8355
26768SOL    HW182458   2.090   7.273   9.693 -1.3804 -0.6718  1.2017
26768SOL    HW282459   1.983   7.270   9.585 -0.2464 -0.5659  0.0531
26769SOL     OW82460   1.053   1.684   1.395 -0.1807 -0.2765  0.2262
26769SOL    HW182461   1.070   1.605   1.446  0.0149 -0.7951 -0.6281
26769SOL    HW282462   1.119   1.747   1.425  0.6494 -0.9418 -0.1714
26770SOL     OW82463   4.933   7.699   7.562  0.3398  0.2903 -0.3002
26770SOL    HW182464   4.851   7.736   7.595  0.6514  2.2614 -1.5406
26770SOL    HW282465   5.000   7.732   7.621  0.4801  0.6404 -0.6497
26771SOL     OW82466   6.883   6.513   6.863  0.2330  0.5509 -0.5934
26771SOL    HW182467   6.968   6.509   6.905  0.2314 -1.2821 -0.6845
26771SOL    HW282468   6.902   6.518   6.769  0.2259  1.2224 -0.5648
26772SOL     OW82469   9.535   6.457   5.597  0.1415 -0.6047  0.1314
26772SOL    HW182470   9.449   6.497   5.611  0.3643 -0.3501  0.8367
26772SOL    HW282471   9.520   6.363   5.607 -0.5358 -0.8164 -2.2839
26773SOL     OW82472   5.215   4.879   2.492  0.0669 -0.1601  0.3358
26773SOL    HW182473   5.265   4.797   2.492 -1.4387 -1.1202 -0.2394
26773SOL    HW282474   5.206   4.902   2.584  2.2354  0.5006  0.4390
26774SOL     OW82475   1.079   2.926   2.278 -0.1823  0.7252  0.1089
26774SOL    HW182476   1.039   2.839   2.284  0.2570  0.4579 -0.6953
26774SOL    HW282477   1.086   2.955   2.368  1.2133 -0.7918  0.5302
26775SOL     OW82478   6.711   3.399   6.095 -0.7981  0.1380  0.0252
26775SOL    HW182479   6.653   3.388   6.019  0.1153  0.6914 -0.7743
26775SOL    HW282480   6.744   3.488   6.087 -0.0253 -0.0869  0.6032
26776SOL     OW82481   9.174   8.993   0.965  0.3418  0.2025  0.6909
26776SOL    HW182482   9.178   8.956   1.053  1.0390  0.8055  0.9256
26776SOL    HW282483   9.080   8.994   0.944  0.0060  1.4722  2.0560
26777SOL     OW82484   4.980   9.628   8.940  0.5336  0.3008  0.4388
26777SOL    HW182485   4.902   9.681   8.952 -0.4220 -0.4784 -1.7763
26777SOL    HW282486   4.976   9.562   9.009 -0.4932  0.5819  0.6557
26778SOL     OW82487   7.671   3.089   0.625 -0.4860  0.1101  0.1849
26778SOL    HW182488   7.614   3.020   0.658 -1.6560  2.0299  2.4035
26778SOL    HW282489   7.612   3.159   0.597  0.7047  1.4966  0.9996
26779SOL     OW82490   0.146   3.644   4.322 -0.1351 -0.0731 -0.0932
26779SOL    HW182491   0.077   3.577   4.313 -0.8052  0.7758 -1.7212
26779SOL    HW282492   0.121   3.712   4.260  1.8205  0.5922 -0.2193
26780SOL     OW82493   0.784   5.834   2.703 -0.1477 -0.5503 -0.3789
26780SOL    HW182494   0.741   5.861   2.784  0.0844 -0.5807 -0.2439
26780SOL    HW282495   0.715   5.793   2.652  0.2010 -2.7881  0.8303
26781SOL     OW82496   3.966   7.382   1.980  0.3647  0.1836 -0.2872
26781SOL    HW182497   4.043   7.329   1.999  0.2419  0.1646  0.1814
26781SOL    HW282498   3.895   7.319   1.966  0.2651  0.2132  0.0609
26782SOL     OW82499   4.122   9.620   6.768 -0.2370 -0.3315 -0.0430
26782SOL    HW182500   4.150   9.528   6.763  0.8317 -0.0144 -0.0407
26782SOL    HW282501   4.035   9.616   6.808 -0.2436 -1.3523 -0.1279
26783SOL     OW82502   4.685   6.222   7.807  0.4373  0.1584  0.1458
26783SOL    HW182503   4.690   6.159   7.736 -0.1066 -1.3929  1.4183
26783SOL    HW282504   4.603   6.200   7.852  0.7514  1.1178  1.2254
26784SOL     OW82505   3.074   5.918   0.165  0.2112 -0.1010  0.2134
26784SOL    HW182506   3.069   5.833   0.209 -1.2345 -0.3174 -0.3153
26784SOL    HW282507   3.136   5.904   0.094  0.0356 -0.6934  0.1719
26785SOL     OW82508   9.598   2.830   5.009 -0.2174  0.0972  0.2092
26785SOL    HW182509   9.654   2.875   4.946  0.5855 -0.4062  0.5416
26785SOL    HW282510   9.608   2.737   4.988 -0.5281 -0.0293  0.5981
26786SOL     OW82511   8.204   2.948   2.323 -0.2753  0.5229  0.2682
26786SOL    HW182512   8.231   2.974   2.235  0.4606  1.4793  0.7586
26786SOL    HW282513   8.148   3.019   2.353  1.5281  1.4973  1.5125
26787SOL     OW82514   0.016   7.553   0.685 -0.4059  0.0732 -0.0747
26787SOL    HW182515  -0.067   7.522   0.648 -0.7106  3.0594 -2.3327
26787SOL    HW282516  -0.009   7.609   0.758 -0.4554  0.9847 -0.7638
26788SOL     OW82517   6.777   5.558   9.175  0.2977  0.1719  0.3142
26788SOL    HW182518   6.728   5.615   9.117  0.5972  0.5751  0.4529
26788SOL    HW282519   6.720   5.545   9.251  0.6357  1.1471  0.7616
26789SOL     OW82520   0.473   5.420   3.286  0.9575  0.4058 -0.1724
26789SOL    HW182521   0.410   5.436   3.216 -1.7536  1.0361  2.1799
26789SOL    HW282522   0.517   5.504   3.299  0.3769  0.7202 -0.1817
26790SOL     OW82523   2.647   8.298   1.151  0.3968  0.6067 -0.6666
26790SOL    HW182524   2.638   8.231   1.083  0.8411  1.0220 -1.1425
26790SOL    HW282525   2.662   8.248   1.232 -0.3341  0.1046 -0.8306
26791SOL     OW82526   7.959   5.246   7.727  0.3035  0.8792 -0.2743
26791SOL    HW182527   7.970   5.200   7.643 -2.1454 -1.2153  0.4447
26791SOL    HW282528   7.880   5.299   7.715 -0.9459 -0.6012  1.1326
26792SOL     OW82529   8.827   6.175   4.686 -0.1321  0.1706  0.3740
26792SOL    HW182530   8.904   6.119   4.689 -0.7055 -0.7313 -0.8097
26792SOL    HW282531   8.802   6.188   4.777  0.1949 -1.2639  0.6937
26793SOL     OW82532   9.055   5.469   9.499  0.2461  0.4273 -0.4540
26793SOL    HW182533   8.967   5.436   9.511 -1.2797  3.4882 -2.0333
26793SOL    HW282534   9.094   5.412   9.432 -0.4511 -1.0087  0.3373
26794SOL     OW82535   0.308   6.125   7.597 -0.1161 -0.0371 -0.0675
26794SOL    HW182536   0.225   6.166   7.624 -0.1913 -0.0480 -0.2806
26794SOL    HW282537   0.369   6.198   7.586 -0.1671 -0.0083 -0.1560
26795SOL     OW82538   6.951   3.603   5.019  0.0428 -0.6261 -0.1524
26795SOL    HW182539   7.037   3.575   5.051  1.4559  0.1663 -2.8877
26795SOL    HW282540   6.945   3.695   5.045 -0.4311 -0.9398  0.8716
26796SOL     OW82541   0.331   6.486   6.193  0.0691 -0.0091  0.4288
26796SOL    HW182542   0.424   6.482   6.215 -0.3084  0.4531  2.2893
26796SOL    HW282543   0.293   6.545   6.258 -1.4521  0.2419 -0.6160
26797SOL     OW82544   7.049   8.136   0.118 -0.7698  0.6400 -0.2145
26797SOL    HW182545   7.081   8.226   0.121  0.5420  0.2040  2.9041
26797SOL    HW282546   7.069   8.106   0.029 -0.6142  3.1585 -1.1000
26798SOL     OW82547   3.887   1.336   6.006  0.4128  0.4993 -0.7982
26798SOL    HW182548   3.876   1.331   6.101 -1.0081 -0.5248 -0.9828
26798SOL    HW282549   3.876   1.245   5.977 -1.4428  1.0978 -2.1403
26799SOL     OW82550   5.451   5.986   4.778 -0.4488 -0.2779  0.3639
26799SOL    HW182551   5.497   6.053   4.727 -0.4722  0.8362  1.7160
26799SOL    HW282552   5.362   6.020   4.788 -0.1769  0.0504  1.9589
26800SOL     OW82553   2.384   6.176   8.403 -0.2865 -0.0600 -0.6409
26800SOL    HW182554   2.468   6.161   8.360 -0.4709 -0.7236 -0.7811
26800SOL    HW282555   2.331   6.100   8.379 -0.5266 -0.2497  0.4190
26801SOL     OW82556   7.056   9.320   8.236  0.5689  0.4078  0.4491
26801SOL    HW182557   6.970   9.279   8.239  1.1529 -0.8891  0.4634
26801SOL    HW282558   7.039   9.412   8.216 -0.8362  0.2905  1.0093
26802SOL     OW82559   4.152   6.609   7.408  0.0204 -0.0200  0.5004
26802SOL    HW182560   4.184   6.636   7.494 -1.9718  3.9025  0.2532
26802SOL    HW282561   4.067   6.568   7.426  0.5409 -1.0997  0.5192
26803SOL     OW82562   5.180   5.886   2.266  0.0350  0.6730 -0.0072
26803SOL    HW182563   5.141   5.969   2.293 -0.6094  0.9725 -1.7763
26803SOL    HW282564   5.119   5.850   2.202  1.8148  0.3574 -1.6163
26804SOL     OW82565   0.824   5.019   8.184 -0.3102 -0.0132  0.1445
26804SOL    HW182566   0.830   5.050   8.274  0.2344 -0.3240  0.2241
26804SOL    HW282567   0.785   5.091   8.136  1.9904  1.3119  0.1001
26805SOL     OW82568   8.566   5.816   1.679  0.3533 -0.3736  0.6575
26805SOL    HW182569   8.556   5.892   1.622 -0.5935 -0.2951  0.9240
26805SOL    HW282570   8.660   5.796   1.675  0.3410 -0.2583 -0.7856
26806SOL     OW82571   4.211   1.545   9.603 -0.3664 -0.1631 -0.1204
26806SOL    HW182572   4.224   1.503   9.518 -0.2795  0.1546 -0.2639
26806SOL    HW282573   4.126   1.588   9.596  1.1281  2.9150 -1.3436
26807SOL     OW82574   4.247   0.637   3.127  0.1905  0.0129  0.3292
26807SOL    HW182575   4.162   0.669   3.097  1.0304  0.9359 -1.2058
26807SOL    HW282576   4.228   0.550   3.163 -1.4621  0.4079  0.5068
26808SOL     OW82577   7.798   6.918   9.208  0.1595  0.7247  0.5299
26808SOL    HW182578   7.704   6.928   9.225  0.5006  1.3179  2.2404
26808SOL    HW282579   7.805   6.835   9.160 -1.2213  0.5851  0.5351
26809SOL     OW82580   5.003   6.483   1.650  0.0188 -0.1575 -0.8245
26809SOL    HW182581   5.077   6.531   1.611 -0.7057  2.6958  1.0358
26809SOL    HW282582   5.032   6.463   1.739 -1.0214 -0.0003 -0.4418
26810SOL     OW82583   6.648   7.063   5.623 -0.4245  0.5329 -0.5380
26810SOL    HW182584   6.604   6.983   5.595 -2.1284  0.9788  0.6961
26810SOL    HW282585   6.724   7.032   5.673 -0.0734 -0.2751 -1.5384
26811SOL     OW82586   7.150   5.659   9.597  0.2171  0.7426 -0.1275
26811SOL    HW182587   7.152   5.685   9.504 -1.4881  0.2823 -0.3385
26811SOL    HW282588   7.145   5.564   9.595 -1.4474  0.7745  0.3363
26812SOL     OW82589   5.732   0.418   9.096  0.0027  0.6308  0.3207
26812SOL    HW182590   5.806   0.458   9.142 -0.0767 -1.8069  2.8431
26812SOL    HW282591   5.772   0.370   9.023  0.3672  2.8203 -0.9961
26813SOL     OW82592   0.169   2.847   5.777  0.5392 -0.0039  0.0769
26813SOL    HW182593   0.203   2.813   5.860  0.3160 -0.0039  0.1694
26813SOL    HW282594   0.096   2.790   5.755 -0.9105  1.3654  1.0876
26814SOL     OW82595   2.398   7.256   3.665  0.3285 -0.2182 -0.1830
26814SOL    HW182596   2.406   7.186   3.730 -0.8875 -0.4142 -0.2281
26814SOL    HW282597   2.376   7.212   3.583 -1.0377  0.2317 -0.0850
26815SOL     OW82598   6.382   1.363   7.493  0.3467  0.1857 -0.6376
26815SOL    HW182599   6.412   1.372   7.402 -0.3143  1.4763 -0.7392
26815SOL    HW282600   6.291   1.337   7.485 -0.1923  1.8958 -0.3782
26816SOL     OW82601   5.315   6.751   1.008 -0.2893  0.0298  0.0889
26816SOL    HW182602   5.313   6.675   1.066 -0.4241  0.7929  1.1029
26816SOL    HW282603   5.378   6.726   0.939  2.0380  0.1416  2.0456
26817SOL     OW82604   3.828   8.674   1.763  0.0326 -0.2191 -0.0441
26817SOL    HW182605   3.732   8.670   1.770 -0.2384  1.7640 -1.6152
26817SOL    HW282606   3.851   8.596   1.713 -0.9774  0.0811 -1.0315
26818SOL     OW82607   3.731   4.225   1.502  0.0607  0.0276 -0.1878
26818SOL    HW182608   3.680   4.185   1.431  3.0136 -2.6474 -1.0368
26818SOL    HW282609   3.762   4.308   1.466 -0.8247  0.0482 -0.9430
26819SOL     OW82610   7.843   5.014   8.951 -0.2840  0.0572  0.3546
26819SOL    HW182611   7.848   5.105   8.921  0.6368 -0.3299 -0.7555
26819SOL    HW282612   7.783   5.016   9.024 -1.8288  1.2560 -0.8810
26820SOL     OW82613   0.386   5.305   8.688 -0.1618  0.2505 -0.3330
26820SOL    HW182614   0.350   5.390   8.714 -0.6712 -0.6101  1.9862
26820SOL    HW282615   0.402   5.259   8.771 -1.0102 -2.3782 -1.5296
26821SOL     OW82616   6.583   7.165   2.994 -0.4763  0.4110  0.2626
26821SOL    HW182617   6.616   7.227   2.928 -0.1574  0.6891  0.6754
26821SOL    HW282618   6.529   7.219   3.052  1.3395  0.7297  1.7494
26822SOL     OW82619   4.304   7.728   1.607  0.0738 -0.0820 -0.2366
26822SOL    HW182620   4.387   7.749   1.649 -0.4418  0.2928  0.6414
26822SOL    HW282621   4.300   7.785   1.530  0.7042 -0.2338 -0.3842
26823SOL     OW82622   2.460   3.832   9.401 -0.1479 -0.4328 -0.2380
26823SOL    HW182623   2.418   3.766   9.346 -0.5512 -1.1199  0.8572
26823SOL    HW282624   2.553   3.823   9.382 -0.0049 -2.5519  1.1353
26824SOL     OW82625   7.901   9.464   7.523 -0.1684  0.2253 -0.2363
26824SOL    HW182626   7.957   9.421   7.458 -1.2589  0.1975 -1.2052
26824SOL    HW282627   7.812   9.435   7.500 -0.4003 -2.1961  3.0913
26825SOL     OW82628   4.929   5.246   9.024 -0.0786 -0.0914 -0.2109
26825SOL    HW182629   4.971   5.331   9.028  0.2183 -0.1780 -1.2859
26825SOL    HW282630   4.958   5.201   9.103 -0.7079  0.9988  0.6815
26826SOL     OW82631   9.106   3.416   9.392  0.4604 -0.0096  0.5538
26826SOL    HW182632   9.052   3.495   9.398  0.9243  0.3556 -0.0950
26826SOL    HW282633   9.042   3.346   9.375 -0.0059  0.1336  1.6139
26827SOL     OW82634   1.437   0.969   8.135  0.3048  0.7171 -0.7469
26827SOL    HW182635   1.381   1.042   8.163  2.0320  2.2474 -1.0971
26827SOL    HW282636   1.491   0.950   8.212 -1.5313 -1.7284  0.0861
26828SOL     OW82637   5.285   1.083   8.403  0.2546 -0.2766  0.2102
26828SOL    HW182638   5.371   1.070   8.444  1.0726  0.3029 -1.2399
26828SOL    HW282639   5.298   1.060   8.311 -1.6711 -2.1081  0.3268
26829SOL     OW82640   5.752   1.285   3.446  0.0722 -0.1564  0.0789
26829SOL    HW182641   5.706   1.348   3.392  1.4261  0.3165 -0.5834
26829SOL    HW282642   5.810   1.238   3.385  0.7840 -0.4137  0.9186
26830SOL     OW82643   2.463   1.902   3.070 -0.1686  0.2851  0.2770
26830SOL    HW182644   2.434   1.832   3.012  0.1097  0.2647  0.1620
26830SOL    HW282645   2.556   1.887   3.082  0.5309  2.1955 -1.9609
26831SOL     OW82646   6.512   0.753   0.694  0.1863 -0.0026  0.1846
26831SOL    HW182647   6.519   0.769   0.788 -0.2977 -2.7606  0.7625
26831SOL    HW282648   6.483   0.662   0.686 -0.8340  0.4542 -2.6366
26832SOL     OW82649   7.178   3.066   6.988 -0.0647 -0.3227  0.5376
26832SOL    HW182650   7.115   3.114   7.042 -0.1168 -0.7032  0.8244
26832SOL    HW282651   7.126   3.029   6.917 -0.2638 -1.0551  1.0507
26833SOL     OW82652   3.687   6.901   4.006  0.4858 -0.2273  0.1004
26833SOL    HW182653   3.643   6.954   4.072  1.8379 -0.6249  1.3620
26833SOL    HW282654   3.706   6.818   4.050  0.0716 -1.0845 -1.2701
26834SOL     OW82655   7.208   6.108   1.193  0.3840 -0.0447  0.9171
26834SOL    HW182656   7.169   6.026   1.162 -0.6359  0.4714  0.8074
26834SOL    HW282657   7.253   6.143   1.116 -1.8075  1.0310  0.0319
26835SOL     OW82658   1.887   0.587   0.109  0.3465 -0.1733  0.4850
26835SOL    HW182659   1.858   0.519   0.170  1.0575  0.0377  1.0674
26835SOL    HW282660   1.807   0.633   0.085  0.0734 -0.1286  1.4305
26836SOL     OW82661   4.836   5.996   1.115 -0.3207  0.1534  0.1095
26836SOL    HW182662   4.895   5.978   1.188  0.0152  2.8459  0.6142
26836SOL    HW282663   4.759   6.037   1.155 -1.1052 -0.3210 -0.8630
26837SOL     OW82664   5.434   9.266   6.783  0.1917  0.1407 -0.5355
26837SOL    HW182665   5.342   9.243   6.789  0.1446  0.5574  0.6408
26837SOL    HW282666   5.434   9.361   6.770  0.4449  0.2535  0.2081
26838SOL     OW82667   0.638   5.652   2.522 -0.2307  0.2429  0.1869
26838SOL    HW182668   0.710   5.697   2.479  0.0784 -0.4791 -0.0737
26838SOL    HW282669   0.560   5.676   2.472 -0.1904  1.1027  0.5321
26839SOL     OW82670   3.180   7.963   3.353 -0.3370  0.8107  0.0191
26839SOL    HW182671   3.211   7.873   3.361 -0.4626  0.7806  0.1816
26839SOL    HW282672   3.224   7.997   3.275  3.1749  2.0523  2.3062
26840SOL     OW82673   6.377   1.733   7.511 -0.5003  0.1603  0.3370
26840SOL    HW182674   6.363   1.657   7.568 -0.6880 -0.4379 -0.4885
26840SOL    HW282675   6.471   1.736   7.496 -0.7098 -1.8906 -2.2036
26841SOL     OW82676   6.629   3.793   4.894 -0.8553 -0.0446  0.7181
26841SOL    HW182677   6.644   3.708   4.854 -2.1657 -0.7989  1.7665
26841SOL    HW282678   6.678   3.790   4.977  1.0425  1.1447 -0.2875
26842SOL     OW82679   1.630   4.852   1.963 -0.6299  0.3622  0.5861
26842SOL    HW182680   1.571   4.779   1.981 -0.5374  0.5239  1.5754
26842SOL    HW282681   1.583   4.929   1.995 -2.0068  1.2132 -2.9791
26843SOL     OW82682   1.060   2.637   5.432  0.6939 -0.0321  0.3199
26843SOL    HW182683   0.993   2.597   5.377 -0.0328 -0.2852  1.3651
26843SOL    HW282684   1.041   2.731   5.427 -0.3134 -0.1655  1.3186
26844SOL     OW82685   9.237   4.849   0.046  0.4601 -0.6534  0.4270
26844SOL    HW182686   9.322   4.824   0.081  0.8190  0.4749  0.3874
26844SOL    HW282687   9.176   4.786   0.085  1.3970 -2.0106 -0.2024
26845SOL     OW82688   5.011   7.386   5.574  0.0617  0.0355 -0.1502
26845SOL    HW182689   5.062   7.308   5.554 -1.4109 -1.4312  1.3943
26845SOL    HW282690   5.011   7.390   5.670  1.2975  2.8320 -0.1774
26846SOL     OW82691   7.964   6.359   6.812  0.3387  0.8080  0.4227
26846SOL    HW182692   7.888   6.336   6.759 -0.2024  2.6032  0.3438
26846SOL    HW282693   7.954   6.308   6.893 -0.6918  0.6525  0.2116
26847SOL     OW82694   5.791   4.048   2.696  0.0626  0.4329  0.0408
26847SOL    HW182695   5.824   4.029   2.784 -1.8583 -3.0149  0.1957
26847SOL    HW282696   5.745   3.968   2.670 -0.0790  1.5726 -3.8454
26848SOL     OW82697   5.274   1.287   8.588 -0.8602 -0.4099 -0.1404
26848SOL    HW182698   5.326   1.351   8.539 -1.3826 -0.2894 -0.5394
26848SOL    HW282699   5.258   1.216   8.525 -0.8711 -0.6154  0.0921
26849SOL     OW82700   4.186   1.787   0.079  0.3345  0.8200  0.1859
26849SOL    HW182701   4.228   1.722   0.022  0.7453  0.9872  0.2938
26849SOL    HW282702   4.213   1.762   0.168 -1.0040  0.0401  0.4065
26850SOL     OW82703   0.359   2.280   3.988  0.1882 -0.1337  0.3327
26850SOL    HW182704   0.436   2.272   4.043 -0.1894  2.2806  1.3809
26850SOL    HW282705   0.314   2.196   3.995  1.4211 -0.7103  1.7572
26851SOL     OW82706   1.427   8.987   8.925 -0.1728  0.0417  0.1540
26851SOL    HW182707   1.430   9.082   8.916 -0.2656 -0.0463 -0.9468
26851SOL    HW282708   1.334   8.966   8.928 -0.1698 -0.0829 -0.5084
26852SOL     OW82709   5.500   3.677   1.485 -0.2831  0.6632  0.1463
26852SOL    HW182710   5.527   3.769   1.480 -0.9067  1.0140  2.3080
26852SOL    HW282711   5.425   3.672   1.425 -0.8095  1.8144  0.6611
26853SOL     OW82712   5.336   2.432   5.416 -0.0927 -0.3909  0.1241
26853SOL    HW182713   5.399   2.359   5.410  1.4630  0.9339 -0.2902
26853SOL    HW282714   5.380   2.505   5.372 -0.9445  1.2467  1.8601
26854SOL     OW82715   9.397   9.133   9.214  0.2207 -0.5313 -0.0413
26854SOL    HW182716   9.318   9.170   9.254  0.9849  0.1743  0.8442
26854SOL    HW282717   9.390   9.157   9.121  0.6097  1.7558  0.4627
26855SOL     OW82718   5.460   0.098   8.662  0.0748 -0.0951  0.5431
26855SOL    HW182719   5.478   0.074   8.753 -0.7734  2.4136  1.4473
26855SOL    HW282720   5.516   0.174   8.645 -0.9771  0.4874 -0.4762
26856SOL     OW82721   4.088   6.561   0.174 -0.0656  0.4834 -0.0765
26856SOL    HW182722   3.993   6.565   0.185 -0.0350 -0.5347  0.7880
26856SOL    HW282723   4.119   6.647   0.202 -0.7124  0.6927  0.0111
26857SOL     OW82724   4.055   8.854   2.824 -0.6229 -0.0350  0.6936
26857SOL    HW182725   4.042   8.855   2.919  0.3349 -0.3392  0.8396
26857SOL    HW282726   4.135   8.802   2.812 -1.9537 -1.9648 -0.4209
26858SOL     OW82727   8.490   8.849   6.003  0.2945 -0.1884  0.1947
26858SOL    HW182728   8.468   8.903   5.927  0.0986  1.0918  1.1254
26858SOL    HW282729   8.579   8.874   6.026  0.3613 -0.5779  0.3803
26859SOL     OW82730   5.607   4.930   0.134  0.7372  0.0441 -0.3473
26859SOL    HW182731   5.650   4.919   0.049 -0.1264  1.5365 -0.9946
26859SOL    HW282732   5.517   4.902   0.119  0.3335  1.2200 -0.1946
26860SOL     OW82733   2.534   6.651   3.750  0.0771 -0.4857 -0.0002
26860SOL    HW182734   2.452   6.629   3.706 -0.8849  1.0501  0.9254
26860SOL    HW282735   2.570   6.723   3.698 -1.0259  1.2858  1.5351
26861SOL     OW82736   9.124   5.433   0.738 -0.4409 -0.1151  0.3351
26861SOL    HW182737   9.171   5.428   0.821  1.5091  2.4816 -0.4756
26861SOL    HW282738   9.185   5.476   0.678 -3.0873  1.5375 -1.4169
26862SOL     OW82739   9.239   5.831   7.947 -0.4741  0.4169 -0.0402
26862SOL    HW182740   9.193   5.915   7.948 -0.2598  0.5473 -0.6612
26862SOL    HW282741   9.323   5.851   7.906 -0.4106 -0.0977 -0.1577
26863SOL     OW82742   9.171   4.012   5.404 -0.0501  0.3544 -0.7202
26863SOL    HW182743   9.175   4.045   5.494  1.1473  1.0022 -0.9912
26863SOL    HW282744   9.152   4.090   5.351  0.5079  0.2062 -1.1474
26864SOL     OW82745   0.281   6.497   0.324  0.7829  0.5659 -0.4319
26864SOL    HW182746   0.330   6.579   0.319 -0.8156  1.6315  0.3461
26864SOL    HW282747   0.243   6.486   0.237 -0.6307  1.7567  0.0021
26865SOL     OW82748   8.871   7.932   3.905 -0.6149  0.1044 -0.3718
26865SOL    HW182749   8.833   7.958   3.989 -0.4769 -1.0140  0.0571
26865SOL    HW282750   8.926   8.006   3.879 -3.0261  1.7828 -1.0171
26866SOL     OW82751   8.631   5.475   6.393  0.0093 -0.1735 -0.3884
26866SOL    HW182752   8.559   5.485   6.456 -0.8438  0.0236 -1.3705
26866SOL    HW282753   8.664   5.564   6.381  2.2809 -0.5390  2.1094
26867SOL     OW82754   3.502   1.237   3.592 -0.3298  0.0905  0.4345
26867SOL    HW182755   3.432   1.264   3.652  0.5884 -0.4323  1.7853
26867SOL    HW282756   3.549   1.169   3.639  1.2203  0.5690 -0.3499
26868SOL     OW82757   8.825   2.341   0.805  0.7529  0.0999  0.0977
26868SOL    HW182758   8.730   2.340   0.790  0.4256  1.1528  1.8204
26868SOL    HW282759   8.860   2.283   0.738 -1.2744 -1.5861  0.3666
26869SOL     OW82760   3.017   1.251   0.101 -0.4028 -0.4004 -0.6562
26869SOL    HW182761   3.089   1.252   0.164 -2.3752 -2.1507  1.8196
26869SOL    HW282762   2.943   1.217   0.150 -2.4118 -0.7181 -3.6673
26870SOL     OW82763   5.399   6.836   8.692  0.5486  0.5681 -0.3372
26870SOL    HW182764   5.413   6.807   8.782 -1.8275 -1.9862 -0.6529
26870SOL    HW282765   5.316   6.884   8.694  1.0526  1.5094 -1.0059
26871SOL     OW82766   2.209   5.379   0.171  0.1603  0.3574  0.3967
26871SOL    HW182767   2.297   5.395   0.207 -0.0383  2.1295  0.1741
26871SOL    HW282768   2.150   5.411   0.239 -0.4751 -2.8157  1.5416
26872SOL     OW82769   1.001   1.889   5.190  0.2304  0.2401  0.7801
26872SOL    HW182770   0.910   1.880   5.161  0.8885 -3.7618 -0.7832
26872SOL    HW282771   0.998   1.871   5.284 -0.5991 -0.1123  0.6992
26873SOL     OW82772   1.478   2.314   9.581  0.0948  0.4894 -0.8375
26873SOL    HW182773   1.392   2.271   9.576  0.0918  0.5130 -0.9996
26873SOL    HW282774   1.458   2.408   9.582  0.0889  0.4836 -0.2078
26874SOL     OW82775   6.106   4.125   3.086 -0.2188 -0.5281  0.3229
26874SOL    HW182776   6.131   4.216   3.069 -0.5623 -0.5250 -0.1799
26874SOL    HW282777   6.039   4.131   3.153  0.8128 -0.5129  1.3913
26875SOL     OW82778   2.454   8.261   8.514 -0.0592 -0.2151  0.2997
26875SOL    HW182779   2.437   8.205   8.438  0.9840  1.1868 -1.0222
26875SOL    HW282780   2.514   8.210   8.568  1.2715 -0.2397 -1.1224
26876SOL     OW82781   2.628   0.101   8.843  0.1985  0.0612 -0.1961
26876SOL    HW182782   2.701   0.145   8.887 -0.0210 -0.3576  0.6009
26876SOL    HW282783   2.666   0.020   8.809  0.8804  1.2956 -2.6342
26877SOL     OW82784   3.592   2.705   7.975 -0.5163  0.0243 -0.1064
26877SOL    HW182785   3.513   2.674   8.019 -0.1436  1.1478  1.4590
26877SOL    HW282786   3.564   2.786   7.932 -0.7347 -0.7671 -1.5166
26878SOL     OW82787   6.522   7.909   4.230 -0.6837 -0.4228 -0.0360
26878SOL    HW182788   6.496   7.831   4.180  1.5950 -0.9431 -0.4936
26878SOL    HW282789   6.544   7.875   4.317 -1.6321  0.0399  0.4005
26879SOL     OW82790   8.760   4.576   9.082 -0.3275 -0.5325 -0.6433
26879SOL    HW182791   8.676   4.554   9.042 -0.2388 -1.0524 -0.5547
26879SOL    HW282792   8.759   4.671   9.089 -0.3939 -0.4283 -1.7765
26880SOL     OW82793   4.971   4.203   7.991  0.2353  0.0933 -0.5779
26880SOL    HW182794   4.956   4.289   7.952  0.0320  0.1586 -0.3566
26880SOL    HW282795   5.064   4.201   8.012 -0.1730  1.1923  1.6303
26881SOL     OW82796   0.913   0.976   6.757  0.1442 -0.2966  0.1309
26881SOL    HW182797   0.955   0.923   6.825 -0.3885 -1.5228 -0.4667
26881SOL    HW282798   0.971   0.969   6.681  1.5269  2.2754  0.8045
26882SOL     OW82799   3.172   6.227   2.008  0.7108  0.1675  0.5169
26882SOL    HW182800   3.190   6.144   2.051 -1.1466 -1.1917 -1.1405
26882SOL    HW282801   3.258   6.262   1.985  1.7260  0.3323  3.9606
26883SOL     OW82802   7.969   8.987   1.169 -0.0108  0.0211 -0.1082
26883SOL    HW182803   7.888   8.952   1.131  0.2222 -0.5266 -0.1131
26883SOL    HW282804   7.959   8.974   1.263 -1.2710  2.8076  0.2348
26884SOL     OW82805   5.589   1.214   9.633 -0.5148 -0.3417 -0.4729
26884SOL    HW182806   5.604   1.192   9.541 -0.1735  1.4495 -0.8753
26884SOL    HW282807   5.570   1.307   9.633 -1.8079 -0.5623  1.1553
26885SOL     OW82808   7.128   6.542   7.011  0.1421  0.0138 -0.5840
26885SOL    HW182809   7.100   6.527   7.101 -0.5041 -0.9737 -0.9367
26885SOL    HW282810   7.220   6.515   7.009  0.6612  1.6043  0.1546
26886SOL     OW82811   8.836   0.168   6.814 -0.0049 -0.2115 -0.1241
26886SOL    HW182812   8.767   0.141   6.754  0.3400  0.8150 -1.0259
26886SOL    HW282813   8.793   0.225   6.877 -0.2828 -0.9113  0.3241
26887SOL     OW82814   2.490   0.299   7.268  0.3184 -0.7650  0.4280
26887SOL    HW182815   2.410   0.349   7.256  0.5843 -0.5279 -0.4023
26887SOL    HW282816   2.546   0.323   7.194  0.8278 -1.5649  0.5280
26888SOL     OW82817   2.656   7.473   6.305 -0.2800 -0.7740 -0.2793
26888SOL    HW182818   2.623   7.456   6.394  0.1957 -0.3203 -0.0115
26888SOL    HW282819   2.643   7.567   6.293 -1.3729 -1.0136 -1.1231
26889SOL     OW82820   0.941   0.433   1.335 -0.6117 -0.1035  0.0089
26889SOL    HW182821   0.939   0.419   1.241 -2.3664  0.3779 -0.0600
26889SOL    HW282822   0.872   0.498   1.351  1.2924  1.7089  1.3409
26890SOL     OW82823   6.450   3.678   1.990  0.0095 -0.5766  0.4266
26890SOL    HW182824   6.527   3.710   1.944  0.6963 -1.0066  1.2519
26890SOL    HW282825   6.470   3.587   2.012 -0.6695 -0.6555  0.7782
26891SOL     OW82826   7.244   5.119   7.690 -0.2495 -0.0141 -0.2154
26891SOL    HW182827   7.249   5.185   7.759  1.7996  1.2172 -1.4401
26891SOL    HW282828   7.199   5.046   7.730 -0.5888  1.2762  1.9073
26892SOL     OW82829   3.662   2.983   1.278 -0.6627  0.0979 -0.8233
26892SOL    HW182830   3.661   3.050   1.210 -0.6200  0.9307 -0.0090
26892SOL    HW282831   3.729   3.012   1.340 -2.2148  0.5209  0.7329
26893SOL     OW82832   5.188   6.531   4.172  0.7274  0.0567  0.0626
26893SOL    HW182833   5.200   6.559   4.081  3.4560 -0.2904  0.2222
26893SOL    HW282834   5.199   6.436   4.170 -1.6251 -0.2768  0.4716
26894SOL     OW82835   0.463   8.969   6.793 -0.0135 -0.0477  0.2388
26894SOL    HW182836   0.482   8.877   6.806 -1.0867 -0.6411 -1.8915
26894SOL    HW282837   0.374   8.970   6.758  0.0492  1.7813  0.0311
26895SOL     OW82838   9.380   8.735   8.804  0.3553  0.4668 -0.0193
26895SOL    HW182839   9.427   8.668   8.754  0.6220 -0.4895  1.4311
26895SOL    HW282840   9.302   8.690   8.837  1.2010  0.4262  2.0687
26896SOL     OW82841   4.463   6.596   8.518 -0.1455 -0.6534 -0.1783
26896SOL    HW182842   4.550   6.576   8.485  0.0834  0.8702 -0.6148
26896SOL    HW282843   4.403   6.555   8.456  0.2909  0.1168 -1.1447
26897SOL     OW82844   4.929   8.591   9.101 -0.4426 -0.3958  0.2044
26897SOL    HW182845   4.929   8.674   9.148  0.1119  1.6942 -3.1287
26897SOL    HW282846   5.021   8.565   9.096 -0.4543 -0.3848 -0.0793
26898SOL     OW82847   1.149   7.558   4.458 -0.3575  0.1227 -0.7450
26898SOL    HW182848   1.207   7.493   4.421 -0.8835 -0.5312 -0.4481
26898SOL    HW282849   1.202   7.637   4.466  0.9434 -0.8798  0.9724
26899SOL     OW82850   3.677   3.956   7.230  0.7945  0.0570 -0.2193
26899SOL    HW182851   3.644   3.869   7.212 -0.5852  0.8216 -1.5903
26899SOL    HW282852   3.672   3.964   7.326 -1.4696 -0.4895 -0.2286
26900SOL     OW82853   5.381   4.033   4.103  0.3285 -0.1704 -0.0735
26900SOL    HW182854   5.434   3.963   4.064  2.1199  0.6530  0.7732
26900SOL    HW282855   5.292   3.998   4.103  0.2504 -0.4442 -4.3136
26901SOL     OW82856   5.950   8.164   4.350  1.2199 -0.3026  0.2826
26901SOL    HW182857   5.895   8.135   4.277 -0.2892  0.3706  1.0950
26901SOL    HW282858   6.013   8.225   4.311  0.8913 -0.4976 -0.5616
26902SOL     OW82859   8.710   6.299   0.454 -0.4618 -0.2525 -0.0059
26902SOL    HW182860   8.760   6.223   0.423  0.7949 -0.5004  2.3734
26902SOL    HW282861   8.766   6.374   0.433  1.3764 -0.5638  3.0820
26903SOL     OW82862   2.748   8.980   8.476 -0.0845 -0.2477  0.2821
26903SOL    HW182863   2.781   9.068   8.491  1.9293 -1.1470  1.4927
26903SOL    HW282864   2.749   8.939   8.562 -2.0615 -1.1437 -0.0627
26904SOL     OW82865   4.246   1.140   7.972  0.7293 -0.3114 -0.0439
26904SOL    HW182866   4.324   1.194   7.956  1.9298 -1.8486  0.3117
26904SOL    HW282867   4.281   1.059   8.009 -1.0587 -1.0998  0.0062
26905SOL     OW82868   2.117   7.858   0.327 -0.1533  0.2610  0.3163
26905SOL    HW182869   2.194   7.899   0.367  0.9726  1.2269 -2.5826
26905SOL    HW282870   2.140   7.766   0.321  1.1740  0.6466 -1.1837
26906SOL     OW82871   5.813   7.939   7.938 -0.6871 -0.0421 -0.2921
26906SOL    HW182872   5.800   8.033   7.949 -0.0775 -0.0599  0.7360
26906SOL    HW282873   5.736   7.899   7.978  1.0710 -0.0716  3.5891
26907SOL     OW82874   2.264   0.599   0.180  0.0697  0.2560  0.2071
26907SOL    HW182875   2.304   0.540   0.116  1.3020  2.2526 -1.0053
26907SOL    HW282876   2.181   0.625   0.140 -0.2341 -0.2619  0.5010
26908SOL     OW82877   5.704   2.744   4.459  0.0574 -0.7225 -0.2137
26908SOL    HW182878   5.696   2.703   4.545 -2.6552 -1.3304 -0.6495
26908SOL    HW282879   5.791   2.719   4.428  0.3449 -2.1109  1.5549
26909SOL     OW82880   6.199   2.178   5.366 -0.4271  0.6756  0.4128
26909SOL    HW182881   6.215   2.101   5.311 -1.2076  0.9878 -0.2842
26909SOL    HW282882   6.282   2.194   5.411 -0.4470 -0.9781  1.0999
26910SOL     OW82883   8.568   1.673   2.166 -0.0179  0.0032  0.1968
26910SOL    HW182884   8.486   1.668   2.116  1.0508 -0.2851 -1.6209
26910SOL    HW282885   8.556   1.612   2.239 -1.2392 -0.3909 -0.3062
26911SOL     OW82886   1.829   3.440   3.270 -0.0903 -0.6548 -0.0525
26911SOL    HW182887   1.842   3.458   3.177 -0.5878  3.0712  0.4679
26911SOL    HW282888   1.742   3.474   3.289  0.9581  0.9884  2.2360
26912SOL     OW82889   5.666   4.992   9.024 -0.1272 -0.6201 -0.0723
26912SOL    HW182890   5.730   5.012   8.955 -0.1490  1.8144  0.5076
26912SOL    HW282891   5.716   4.948   9.092  0.8706  0.7848  0.1477
26913SOL     OW82892   5.879   5.395   5.698 -0.5764 -0.2240  0.0897
26913SOL    HW182893   5.886   5.413   5.792  2.1772 -1.8349  0.2950
26913SOL    HW282894   5.844   5.476   5.661 -1.7401  0.4590  2.4494
26914SOL     OW82895   1.356   4.735   6.996 -0.0960 -0.2159  0.7044
26914SOL    HW182896   1.299   4.771   7.064 -1.4352  0.6323 -0.7959
26914SOL    HW282897   1.296   4.688   6.937  0.8776 -0.1538 -0.3808
26915SOL     OW82898   5.973   1.797   3.704 -0.0302  0.4655  0.3500
26915SOL    HW182899   5.922   1.716   3.705  0.8088 -0.0638  0.7909
26915SOL    HW282900   5.918   1.859   3.656 -0.9926 -0.1552  0.6271
26916SOL     OW82901   8.942   4.267   1.348  0.0071  0.6090 -0.1820
26916SOL    HW182902   8.861   4.276   1.297 -0.3478  1.4707  0.5041
26916SOL    HW282903   8.947   4.347   1.400  0.4298 -0.1640  1.0355
26917SOL     OW82904   5.171   5.317   9.483 -0.0361 -0.2024  0.4056
26917SOL    HW182905   5.173   5.227   9.514 -0.3043 -0.1743  0.5045
26917SOL    HW282906   5.211   5.314   9.396  1.2492 -0.2000  0.9695
26918SOL     OW82907   0.028   6.892   2.700 -0.0261  0.0660 -0.1655
26918SOL    HW182908  -0.040   6.931   2.755 -0.0665  0.7857 -0.7202
26918SOL    HW282909   0.006   6.919   2.611  0.0704 -1.0513 -0.5393
26919SOL     OW82910   4.937   5.908   7.036  0.1648  0.1913 -0.0230
26919SOL    HW182911   4.849   5.936   7.061  0.0735  0.4278 -0.6081
26919SOL    HW282912   4.928   5.816   7.014 -0.0437  0.3359 -0.5687
26920SOL     OW82913   1.093   0.516   3.074  0.2682 -0.4728  0.3646
26920SOL    HW182914   1.024   0.478   3.128  0.2817 -1.1739 -0.0943
26920SOL    HW282915   1.160   0.544   3.136  0.1099 -0.9169  0.7374
26921SOL     OW82916   5.362   4.572   1.203  0.4361 -0.2489 -0.9698
26921SOL    HW182917   5.298   4.543   1.269 -0.0880 -0.5541 -1.6019
26921SOL    HW282918   5.337   4.524   1.124  2.5598 -1.7926 -0.7877
26922SOL     OW82919   1.827   3.760   1.888  0.8755 -0.0208 -0.2066
26922SOL    HW182920   1.798   3.830   1.947  1.2873 -0.3837  0.4457
26922SOL    HW282921   1.920   3.750   1.906  0.5194 -1.8289  0.9256
26923SOL     OW82922   7.506   8.020   9.049 -0.5316 -0.4015  0.1993
26923SOL    HW182923   7.597   7.993   9.036 -0.2250  0.1253  1.1690
26923SOL    HW282924   7.455   7.955   9.001  0.3721 -0.4636 -0.7033
26924SOL     OW82925   2.757   4.448   0.762 -0.0287 -0.6684 -0.0708
26924SOL    HW182926   2.823   4.494   0.710 -0.1372 -1.3062 -0.7983
26924SOL    HW282927   2.803   4.422   0.841 -0.5210  2.6726  1.5109
26925SOL     OW82928   3.451   1.793   5.520  0.8426  0.0419 -0.2631
26925SOL    HW182929   3.389   1.855   5.560  0.6191  0.2447 -0.9160
26925SOL    HW282930   3.435   1.800   5.426  0.6634 -1.1729 -0.3373
26926SOL     OW82931   8.684   1.731   5.478 -0.0452  0.2604 -0.1120
26926SOL    HW182932   8.744   1.787   5.526  0.5791 -1.0894  0.7289
26926SOL    HW282933   8.621   1.792   5.438  1.1270  1.6000  0.0203
26927SOL     OW82934   5.317   8.614   2.306  0.1800  0.1979  0.2348
26927SOL    HW182935   5.407   8.642   2.323 -0.3647  1.5536  1.0315
26927SOL    HW282936   5.289   8.574   2.389  0.2589 -0.8316 -0.2277
26928SOL     OW82937   1.330   2.299   0.361 -0.6383  0.0248 -0.2188
26928SOL    HW182938   1.250   2.343   0.331 -1.0904 -0.8309 -0.3006
26928SOL    HW282939   1.336   2.322   0.454 -0.7564  0.4150 -0.3036
26929SOL     OW82940   8.742   0.407   7.344 -0.3376  0.1637  0.7876
26929SOL    HW182941   8.779   0.319   7.350 -0.1678  0.2788  1.4606
26929SOL    HW282942   8.796   0.460   7.402  1.1475  1.2557 -1.4349
26930SOL     OW82943   0.335   7.109   3.437 -0.1067  0.3249  0.3371
26930SOL    HW182944   0.250   7.072   3.461 -0.2835 -1.9109 -3.1089
26930SOL    HW282945   0.398   7.039   3.456  0.4491  0.5675 -0.5584
26931SOL     OW82946   7.910   7.129   1.613 -0.3291  0.2444 -0.2004
26931SOL    HW182947   7.895   7.037   1.634 -0.2452  0.4204  0.6681
26931SOL    HW282948   7.828   7.173   1.638  0.0560  0.5724  0.5186
26932SOL     OW82949   5.988   3.258   5.170  0.6542  0.6990  1.2185
26932SOL    HW182950   5.940   3.258   5.253  0.2462 -0.0357  0.9933
26932SOL    HW282951   5.933   3.306   5.110 -0.5283 -1.3157  0.5833
26933SOL     OW82952   5.841   8.065   6.401 -0.3840 -0.0200 -0.3874
26933SOL    HW182953   5.838   8.160   6.395  1.5348  0.1020 -0.1351
26933SOL    HW282954   5.827   8.046   6.494  0.2056  0.0969 -0.2691
26934SOL     OW82955   0.367   2.477   2.548 -0.4941  0.0176  0.1936
26934SOL    HW182956   0.318   2.551   2.512 -0.8532  0.0671  0.7649
26934SOL    HW282957   0.450   2.514   2.576  0.2310 -0.2187 -1.5336
26935SOL     OW82958   8.491   8.853   9.059 -1.4832 -0.4450 -0.0862
26935SOL    HW182959   8.571   8.810   9.091 -2.3147 -1.0000  1.3505
26935SOL    HW282960   8.450   8.787   9.003 -0.0439  0.5159 -2.4795
26936SOL     OW82961   8.669   3.380   0.080  0.2087 -0.0873 -0.1564
26936SOL    HW182962   8.633   3.319   0.144 -0.6961  1.9624  1.4351
26936SOL    HW282963   8.692   3.457   0.132 -0.5103  1.6540 -2.2771
26937SOL     OW82964   1.046   1.292   3.877 -0.4097  0.3848  0.2233
26937SOL    HW182965   0.974   1.351   3.859 -0.7097 -0.0456  0.0033
26937SOL    HW282966   1.068   1.309   3.969 -0.0215  1.3349 -0.0340
26938SOL     OW82967   1.861   1.306   2.365 -0.8783 -0.2528  0.3921
26938SOL    HW182968   1.858   1.362   2.287 -1.6646 -3.5382 -2.1500
26938SOL    HW282969   1.833   1.220   2.334  1.8838 -2.5726  3.6159
26939SOL     OW82970   9.187   3.272   0.962 -0.0081  0.3615 -0.4240
26939SOL    HW182971   9.207   3.364   0.948  0.0702  0.6873  1.5201
26939SOL    HW282972   9.271   3.232   0.984 -0.3265  0.2537  0.6606
26940SOL     OW82973   2.806   9.486   1.632 -0.0946 -0.2336  0.1810
26940SOL    HW182974   2.830   9.573   1.663  2.7323 -0.5012 -0.8969
26940SOL    HW282975   2.835   9.484   1.541  0.1361 -2.3360  0.2364
26941SOL     OW82976   0.797   8.808   2.690 -0.2950  0.3523  0.3491
26941SOL    HW182977   0.737   8.740   2.718  0.1676 -0.3182 -0.2234
26941SOL    HW282978   0.858   8.819   2.763 -0.4590  0.2485  0.4998
26942SOL     OW82979   2.364   7.608   6.734 -0.4508  0.3168  0.0904
26942SOL    HW182980   2.397   7.685   6.781  1.3658  0.3698 -1.1618
26942SOL    HW282981   2.330   7.551   6.803  0.8988  0.9643  1.3475
26943SOL     OW82982   1.786   2.164   8.895 -0.1154  0.3768 -0.0651
26943SOL    HW182983   1.866   2.132   8.853 -1.2992 -0.5114 -1.8006
26943SOL    HW282984   1.725   2.178   8.822 -2.4959 -1.8038  1.3176
26944SOL     OW82985   9.196   7.628   9.476 -0.5424 -0.0301  0.7296
26944SOL    HW182986   9.169   7.714   9.443 -0.2346 -0.1757  0.0884
26944SOL    HW282987   9.288   7.621   9.452 -1.0553 -1.3548 -0.9794
26945SOL     OW82988   7.890   7.746   2.107  0.5501  0.0608 -0.1389
26945SOL    HW182989   7.860   7.800   2.034  0.3999  0.3438  0.1311
26945SOL    HW282990   7.971   7.788   2.136  0.6144 -0.0565 -0.1455
26946SOL     OW82991   3.053   6.768   4.479 -0.0820  0.1170 -0.1455
26946SOL    HW182992   3.054   6.830   4.552 -1.0933  0.1681 -0.1491
26946SOL    HW282993   3.144   6.741   4.468  0.3119  1.2850  0.1299
26947SOL     OW82994   2.702   3.385   1.609  0.3566  0.3414  0.4697
26947SOL    HW182995   2.684   3.398   1.516  1.1179 -0.0129  0.2676
26947SOL    HW282996   2.684   3.470   1.649  0.8085  0.7223 -0.1269
26948SOL     OW82997   1.240   0.096   1.919  0.2188  0.3188 -0.2422
26948SOL    HW182998   1.209   0.180   1.884  1.3156  0.6235 -0.5296
26948SOL    HW282999   1.319   0.119   1.969  0.0632 -0.4413  0.3677
26949SOL     OW83000   1.753   9.196   4.312  0.3191  0.0503  0.1714
26949SOL    HW183001   1.841   9.192   4.274 -0.3794  0.7022 -1.6167
26949SOL    HW283002   1.731   9.105   4.330  1.6998 -0.0641  1.5613
26950SOL     OW83003   7.815   2.531   7.913  0.3414  0.3013 -0.2209
26950SOL    HW183004   7.782   2.451   7.955  1.2530  0.6559  1.2204
26950SOL    HW283005   7.741   2.591   7.914  0.1032  0.0070  0.0832
26951SOL     OW83006   5.057   5.688   2.580  0.0071 -0.0260  0.1037
26951SOL    HW183007   4.972   5.710   2.541  1.0587  2.6328 -0.8913
26951SOL    HW283008   5.115   5.674   2.505  1.3047  2.0115  0.6415
26952SOL     OW83009   1.052   7.075   6.377 -0.1383  0.4058  0.0533
26952SOL    HW183010   1.142   7.059   6.349 -0.5193 -1.5307 -0.1575
26952SOL    HW283011   1.061   7.102   6.469  0.6179 -0.6253  0.3083
26953SOL     OW83012   2.834   1.513   3.480 -0.5419  0.0953  0.3055
26953SOL    HW183013   2.878   1.445   3.530 -0.7834 -0.1538  0.1825
26953SOL    HW283014   2.889   1.526   3.403 -1.9459 -2.0568 -1.2011
26954SOL     OW83015   4.301   3.498   8.870  0.1233  0.0276  0.6841
26954SOL    HW183016   4.244   3.568   8.903 -0.4655  0.2494 -0.7328
26954SOL    HW283017   4.383   3.542   8.848 -0.4869  0.4444 -0.8798
26955SOL     OW83018   4.005   7.183   2.450  0.5677 -0.2566  0.3406
26955SOL    HW183019   3.999   7.167   2.355  3.2427  1.7569 -0.2773
26955SOL    HW283020   4.013   7.096   2.488  1.4325 -1.0344 -1.4912
26956SOL     OW83021   1.500   3.940   0.482 -0.1845  0.5302 -0.2915
26956SOL    HW183022   1.435   4.011   0.488  0.1997  0.8036  0.9524
26956SOL    HW283023   1.451   3.861   0.505 -0.2110  0.6602  0.1112
26957SOL     OW83024   8.560   8.957   3.368 -0.0223 -0.7898  0.4186
26957SOL    HW183025   8.560   8.973   3.274  1.8551 -0.6877  0.3914
26957SOL    HW283026   8.538   9.041   3.407  0.5385 -0.4809  0.0820
26958SOL     OW83027   1.396   2.025   4.131  0.4706 -0.1034 -0.0981
26958SOL    HW183028   1.415   2.116   4.108  0.6042 -0.2457 -0.5644
26958SOL    HW283029   1.479   1.979   4.117 -0.1580 -0.7182 -2.0788
26959SOL     OW83030   9.227   5.496   6.630  0.0774  0.1995  0.3088
26959SOL    HW183031   9.312   5.532   6.603  0.6514  0.2298  2.0037
26959SOL    HW283032   9.203   5.547   6.707 -2.1000  0.9843 -0.8205
26960SOL     OW83033   2.374   1.847   8.748  0.7159  0.6669 -0.2029
26960SOL    HW183034   2.326   1.800   8.816 -0.6087  1.8975 -0.2282
26960SOL    HW283035   2.431   1.907   8.795 -0.8439  2.1526 -0.1032
26961SOL     OW83036   0.575   2.192   6.312 -0.2978  0.1642  0.3029
26961SOL    HW183037   0.531   2.275   6.294  1.7350  1.3262  0.4729
26961SOL    HW283038   0.667   2.215   6.323  0.5192 -2.2532 -0.7445
26962SOL     OW83039   7.684   1.593   2.899 -0.1502  0.6560 -0.0015
26962SOL    HW183040   7.602   1.644   2.901  0.2031  1.3455 -1.6084
26962SOL    HW283041   7.753   1.659   2.904  0.3136  0.2422 -0.7637
26963SOL     OW83042   6.628   5.073   0.432  0.8813  0.0808  0.0543
26963SOL    HW183043   6.630   5.091   0.526  0.4712  0.3781  0.0117
26963SOL    HW283044   6.624   4.978   0.425  0.1428  0.0853  0.3584
26964SOL     OW83045   3.238   0.570   0.921 -0.0066 -0.0040 -0.1924
26964SOL    HW183046   3.281   0.522   0.850  2.1301  0.1131  0.9393
26964SOL    HW283047   3.171   0.622   0.877  1.8442  0.7781 -2.2797
26965SOL     OW83048   1.465   6.740   5.864 -0.1894  0.2769 -0.2744
26965SOL    HW183049   1.384   6.705   5.827 -0.7568 -0.8203  1.8109
26965SOL    HW283050   1.515   6.663   5.891  1.6038  0.9276 -1.5099
26966SOL     OW83051   1.125   2.762   0.153  0.0136 -0.0002  0.0472
26966SOL    HW183052   1.122   2.816   0.231  0.4208 -1.3039  1.0096
26966SOL    HW283053   1.063   2.690   0.171  0.6947 -0.7371 -0.4745
26967SOL     OW83054   0.556   0.372   2.415  0.0297  0.1177 -0.0487
26967SOL    HW183055   0.496   0.340   2.347  1.9879 -1.0894 -1.3244
26967SOL    HW283056   0.619   0.301   2.426  0.7301  0.9811  1.8818
26968SOL     OW83057   4.451   1.166   9.583 -0.6657 -0.1584  0.7952
26968SOL    HW183058   4.395   1.157   9.506 -1.3111 -1.6601  1.3905
26968SOL    HW283059   4.434   1.255   9.615 -0.0460  0.6624 -1.0062
26969SOL     OW83060   3.540   8.750   3.817  0.2781 -0.5552 -0.3519
26969SOL    HW183061   3.577   8.709   3.896  0.2593 -0.9445 -0.5424
26969SOL    HW283062   3.616   8.776   3.765  0.4235  2.4760  1.1327
26970SOL     OW83063   0.346   7.364   8.349  0.8996 -0.2079  0.1212
26970SOL    HW183064   0.291   7.395   8.421 -0.7195 -1.9667 -0.2522
26970SOL    HW283065   0.430   7.342   8.390  0.7488  0.8897  1.0477
26971SOL     OW83066   8.954   8.323   2.227 -0.4167 -0.3861  0.0549
26971SOL    HW183067   9.044   8.292   2.237 -0.6023 -0.4825  1.7236
26971SOL    HW283068   8.902   8.244   2.214 -0.3852 -0.4125  0.0907
26972SOL     OW83069   2.411   2.461   7.607  0.2913  0.2732  0.7576
26972SOL    HW183070   2.372   2.424   7.528  1.4412 -0.1389  0.3771
26972SOL    HW283071   2.504   2.442   7.600  1.3331  4.6543 -0.3220
26973SOL     OW83072   7.817   7.538   6.535  0.0258 -0.2516 -0.3074
26973SOL    HW183073   7.722   7.532   6.532  0.1447 -2.2471 -2.1097
26973SOL    HW283074   7.835   7.601   6.605 -2.6104  0.8295 -0.5054
26974SOL     OW83075   9.096   9.221   1.700  0.4252 -0.2702 -0.4904
26974SOL    HW183076   9.139   9.191   1.780 -1.4488 -0.4863  0.4776
26974SOL    HW283077   9.107   9.149   1.638  0.8387 -0.5984 -0.0393
26975SOL     OW83078   4.474   4.278   2.770 -0.2465 -0.2071  0.0849
26975SOL    HW183079   4.422   4.328   2.707 -0.4745 -1.2581 -0.5772
26975SOL    HW283080   4.561   4.318   2.766 -0.4658  0.2460 -0.3047
26976SOL     OW83081   3.594   3.550   0.566 -0.0882 -0.0617  0.4779
26976SOL    HW183082   3.606   3.456   0.579  0.2959 -0.1186 -0.2815
26976SOL    HW283083   3.604   3.564   0.472  2.3101  1.0800  0.8131
26977SOL     OW83084   2.178   5.534   5.360 -0.1382 -0.1733 -1.0559
26977SOL    HW183085   2.097   5.584   5.373  0.1211  0.2443 -1.0144
26977SOL    HW283086   2.175   5.507   5.268  0.1428  0.6997 -1.3367
26978SOL     OW83087   8.233   2.703   6.531  0.3179 -0.6183 -0.1371
26978SOL    HW183088   8.311   2.647   6.526  0.3571 -0.6800  0.9739
26978SOL    HW283089   8.227   2.743   6.444  1.7629 -0.3829 -0.1520
26979SOL     OW83090   2.459   0.936   3.056 -0.0089  0.2562  0.1009
26979SOL    HW183091   2.443   0.905   3.145 -0.1298  1.6258  0.5860
26979SOL    HW283092   2.430   1.028   3.058  2.3377  1.0846 -0.6401
26980SOL     OW83093   7.594   8.908   7.260  0.2548  0.5899  0.3120
26980SOL    HW183094   7.516   8.877   7.306 -0.8266  1.8689 -0.5864
26980SOL    HW283095   7.642   8.828   7.238  0.2968 -0.1111  2.7048
26981SOL     OW83096   5.970   6.278   6.464 -0.0029  0.2953 -0.2767
26981SOL    HW183097   6.035   6.234   6.518  0.0870  2.1444  1.2152
26981SOL    HW283098   6.008   6.276   6.376  0.7544 -1.0612  0.0404
26982SOL     OW83099   6.554   5.345   1.861  0.1417 -0.0802  0.4562
26982SOL    HW183100   6.461   5.335   1.841  0.1202 -0.1846  0.6055
26982SOL    HW283101   6.593   5.262   1.834  0.3950  0.4013 -0.7466
26983SOL     OW83102   1.876   8.215   6.091  0.8737 -0.1215  0.1200
26983SOL    HW183103   1.940   8.269   6.045  0.5663  0.5207  0.4272
26983SOL    HW283104   1.822   8.176   6.022  0.5961  0.6044 -0.0790
26984SOL     OW83105   4.158   0.734   6.144  0.1952  0.2903  0.7137
26984SOL    HW183106   4.212   0.664   6.180  0.3714  0.1618  0.2105
26984SOL    HW283107   4.071   0.717   6.179 -0.1124 -1.1045 -0.6206
26985SOL     OW83108   4.169   5.712   0.883  0.3641 -0.1200  0.5288
26985SOL    HW183109   4.146   5.800   0.912  0.7829 -0.3093  1.4644
26985SOL    HW283110   4.119   5.700   0.802 -2.8028 -0.4720  2.3503
26986SOL     OW83111   5.703   3.229   0.661 -0.3740  0.2791  0.2492
26986SOL    HW183112   5.721   3.143   0.699 -0.1219  0.6836  1.0762
26986SOL    HW283113   5.768   3.239   0.592 -1.1930 -0.7035 -0.6957
26987SOL     OW83114   7.393   8.369   2.498  0.3200 -0.5683 -0.3376
26987SOL    HW183115   7.363   8.281   2.475  1.6104 -0.7677 -1.4381
26987SOL    HW283116   7.472   8.381   2.445  0.5607  0.9858  0.3287
26988SOL     OW83117   7.196   0.633   8.186  0.7401 -0.3647  0.2695
26988SOL    HW183118   7.204   0.679   8.270 -0.2442  1.4473 -0.5843
26988SOL    HW283119   7.167   0.700   8.125  0.1198 -1.9630 -1.2495
26989SOL     OW83120   8.008   2.683   7.235  0.6046 -0.2883  0.4287
26989SOL    HW183121   7.966   2.608   7.194 -0.1697  0.1647  0.3817
26989SOL    HW283122   7.967   2.690   7.321 -0.0403  0.6607  0.0621
26990SOL     OW83123   8.383   2.790   1.009 -0.1832 -0.3397 -0.4591
26990SOL    HW183124   8.452   2.793   1.075 -1.3496  0.9028  0.7498
26990SOL    HW283125   8.341   2.704   1.021  0.0964 -0.4278 -0.1189
26991SOL     OW83126   4.529   9.279   5.095 -0.1239 -0.1274  0.0827
26991SOL    HW183127   4.513   9.203   5.151  0.4052  0.9147  1.7253
26991SOL    HW283128   4.612   9.259   5.051 -1.4062 -1.7298 -1.7776
26992SOL     OW83129   7.228   0.974   3.905  0.5581 -0.2894  0.3993
26992SOL    HW183130   7.133   0.980   3.898  0.6639  1.1148 -0.2912
26992SOL    HW283131   7.245   0.957   3.998 -0.3772 -1.4103  0.3802
26993SOL     OW83132   9.454   4.886   1.611 -0.7331 -0.2509 -0.3742
26993SOL    HW183133   9.446   4.795   1.640 -0.0029 -0.6305 -1.2885
26993SOL    HW283134   9.495   4.880   1.524 -0.5770  0.9558 -0.4050
26994SOL     OW83135   3.556   1.215   1.217 -0.3119 -0.1447  0.0394
26994SOL    HW183136   3.583   1.222   1.309  2.4514  0.3574 -0.7033
26994SOL    HW283137   3.588   1.130   1.190  2.1173  1.0890 -1.2954
26995SOL     OW83138   2.838   1.627   5.741  0.0792  0.2154 -0.4758
26995SOL    HW183139   2.787   1.547   5.732 -0.4912  0.4015  0.7961
26995SOL    HW283140   2.928   1.601   5.723 -0.1485 -0.6471 -0.4018
26996SOL     OW83141   0.762   9.117   7.524 -0.2917 -0.1345 -0.3055
26996SOL    HW183142   0.731   9.084   7.609  0.4708 -0.5539 -0.1883
26996SOL    HW283143   0.697   9.086   7.461  0.8470 -2.6498 -0.3298
26997SOL     OW83144   1.744   3.923   2.095 -0.1013  0.1843 -0.0372
26997SOL    HW183145   1.776   3.957   2.178  1.5279 -0.6055 -0.3127
26997SOL    HW283146   1.685   3.991   2.062  0.9515  1.4963  0.7080
26998SOL     OW83147   1.618   4.427   3.903  0.1149  0.3509 -0.0902
26998SOL    HW183148   1.565   4.442   3.982 -0.5896  1.0420 -0.6752
26998SOL    HW283149   1.554   4.425   3.832  0.5401 -2.1129 -0.4650
26999SOL     OW83150   2.854   6.339   3.767  0.0516 -0.6278 -0.2152
26999SOL    HW183151   2.762   6.313   3.778 -0.3629  1.0820  0.5586
26999SOL    HW283152   2.870   6.403   3.836  1.8944 -1.0164 -0.2381
27000SOL     OW83153   7.198   4.054   5.041  0.0731 -0.2763  0.1180
27000SOL    HW183154   7.256   4.054   4.964  0.8210 -0.9034  0.6605
27000SOL    HW283155   7.218   4.137   5.085 -0.0968 -0.0791 -0.1751
27001SOL     OW83156   3.277   2.227   8.390  0.4518 -0.2765  0.1486
27001SOL    HW183157   3.309   2.150   8.341  1.7780  0.3273  0.0103
27001SOL    HW283158   3.332   2.230   8.468 -0.0080  0.1794  0.4585
27002SOL     OW83159   4.276   8.393   5.212  0.0285 -0.0246  0.9726
27002SOL    HW183160   4.217   8.460   5.246 -0.5492 -0.8838  1.7084
27002SOL    HW283161   4.322   8.436   5.140 -0.2062  1.2066  1.5346
27003SOL     OW83162   6.123   5.106   0.187  0.0560 -0.0439  0.4651
27003SOL    HW183163   6.156   5.175   0.130  0.7564  0.9735  2.0475
27003SOL    HW283164   6.180   5.108   0.264  0.8324 -3.1772  0.0958
27004SOL     OW83165   9.220   9.613   3.795  0.2058  0.4674  0.1531
27004SOL    HW183166   9.140   9.653   3.826  0.5424  1.2198  0.0735
27004SOL    HW283167   9.209   9.519   3.812 -0.6348  0.5801  0.2388
27005SOL     OW83168   1.349   1.389   4.976 -0.0996 -0.2573 -0.1404
27005SOL    HW183169   1.332   1.299   5.005 -0.7608 -0.2364 -0.4297
27005SOL    HW283170   1.280   1.406   4.912 -0.4092  0.7128  0.4405
27006SOL     OW83171   6.118   8.336   1.514 -0.4181 -0.0740  0.4496
27006SOL    HW183172   6.149   8.325   1.604  0.1890 -0.5711  0.1840
27006SOL    HW283173   6.063   8.415   1.518 -0.5655 -0.2044  1.2913
27007SOL     OW83174   1.428   3.624   1.628  0.1564  0.0188 -0.0493
27007SOL    HW183175   1.416   3.625   1.723 -0.1616  0.0056 -0.0895
27007SOL    HW283176   1.523   3.635   1.616  0.4557 -1.8290  0.3065
27008SOL     OW83177   5.647   7.275   8.399  0.4082 -0.1602 -0.1038
27008SOL    HW183178   5.594   7.271   8.479 -0.1307 -0.8652 -0.4900
27008SOL    HW283179   5.632   7.363   8.365  0.5312  0.0990  0.4900
27009SOL     OW83180   4.681   8.548   5.197  0.1513 -0.1135 -0.5717
27009SOL    HW183181   4.765   8.506   5.178  0.4433  0.0035  0.4092
27009SOL    HW283182   4.676   8.549   5.292 -0.5087  0.7818 -0.6022
27010SOL     OW83183   6.355   1.110   5.406 -0.0185  0.3669  0.4149
27010SOL    HW183184   6.310   1.186   5.371 -1.3249 -0.3011  0.5934
27010SOL    HW283185   6.419   1.146   5.468  1.8644  1.5310 -2.0245
27011SOL     OW83186   5.402   7.919   0.728 -0.3275  0.7129 -0.4345
27011SOL    HW183187   5.392   7.826   0.749 -1.7204  1.0546  0.5611
27011SOL    HW283188   5.439   7.920   0.640 -0.7552 -0.7817 -0.6609
27012SOL     OW83189   0.073   9.322   0.263  0.2895  0.5133 -0.3431
27012SOL    HW183190   0.027   9.243   0.293  0.2661  1.1815  1.4976
27012SOL    HW283191   0.008   9.369   0.211 -0.5133  0.4745  0.5823
27013SOL     OW83192   0.818   1.629   7.337  0.2419  0.2844  0.2330
27013SOL    HW183193   0.767   1.549   7.340  0.7010 -0.1051 -1.4391
27013SOL    HW283194   0.885   1.618   7.404 -0.4394 -0.1775  0.8534
27014SOL     OW83195   0.432   7.537   8.058  0.0621  0.0283  0.3952
27014SOL    HW183196   0.489   7.597   8.105  0.8119 -1.3665  1.3032
27014SOL    HW283197   0.479   7.454   8.056  0.0098 -0.0690 -2.6837
27015SOL     OW83198   5.723   7.448   0.235 -0.2821 -0.2357 -0.1664
27015SOL    HW183199   5.709   7.361   0.271 -0.7322  0.6662  2.0329
27015SOL    HW283200   5.763   7.498   0.306 -2.8126  2.1515 -0.2045
27016SOL     OW83201   0.297   4.030   1.093 -0.4249  0.3573  0.3833
27016SOL    HW183202   0.249   4.088   1.152  0.8673  0.8470  0.9827
27016SOL    HW283203   0.388   4.056   1.103  0.0362 -0.9162 -0.3257
27017SOL     OW83204   6.974   8.125   3.146  0.0133  0.6601 -0.5787
27017SOL    HW183205   6.920   8.199   3.174  1.3183  1.4754 -0.1573
27017SOL    HW283206   6.915   8.050   3.149 -0.6543  1.2156  1.5709
27018SOL     OW83207   9.010   7.236   0.986 -0.0415  0.1855 -0.4029
27018SOL    HW183208   9.040   7.233   1.076 -0.9953 -0.1504 -0.0772
27018SOL    HW283209   8.962   7.319   0.979  0.0065  0.1974 -0.5838
27019SOL     OW83210   2.963   7.674   0.745  0.5298  0.1549 -0.6221
27019SOL    HW183211   2.969   7.617   0.668  0.2832 -1.3223  0.4157
27019SOL    HW283212   3.043   7.726   0.742  0.6662 -0.0935 -1.7138
27020SOL     OW83213   5.687   3.371   7.820  0.0433 -0.0601 -0.0553
27020SOL    HW183214   5.735   3.353   7.900 -1.3966 -0.1164  0.8258
27020SOL    HW283215   5.750   3.352   7.750  1.2469 -0.2386  1.0315
27021SOL     OW83216   4.847   9.196   9.171  0.2636  0.1954  0.5040
27021SOL    HW183217   4.816   9.194   9.261 -1.5991 -1.4314 -0.1269
27021SOL    HW283218   4.768   9.204   9.117  1.1974 -0.5481 -1.0555
27022SOL     OW83219   5.891   0.649   1.751  0.0488 -0.3107 -0.2050
27022SOL    HW183220   5.853   0.580   1.696 -0.4152 -0.5626  0.4067
27022SOL    HW283221   5.954   0.602   1.807  0.8212  0.0072 -0.7909
27023SOL     OW83222   0.204   2.346   6.417 -0.0467 -0.6207 -0.3045
27023SOL    HW183223   0.283   2.330   6.366  0.3356 -1.3116  0.4662
27023SOL    HW283224   0.147   2.398   6.360  0.9838 -0.0734 -0.8498
27024SOL     OW83225   4.030   6.777   7.615 -0.2318  0.5537  0.6451
27024SOL    HW183226   4.032   6.869   7.640 -0.1657  0.1596  2.1646
27024SOL    HW283227   4.083   6.733   7.682  0.1665 -0.5322 -0.3445
27025SOL     OW83228   5.822   3.353   9.403 -0.2377  0.4434 -0.5778
27025SOL    HW183229   5.783   3.313   9.480  0.6427  1.5788  0.5035
27025SOL    HW283230   5.798   3.296   9.330 -0.6652 -0.9272  0.6167
27026SOL     OW83231   3.945   7.132   7.422  0.2295 -0.5523 -0.2636
27026SOL    HW183232   3.954   7.111   7.515  0.4372  0.6228  0.0029
27026SOL    HW283233   3.986   7.218   7.413 -0.0688 -0.5097 -1.3845
27027SOL     OW83234   4.261   7.384   5.703  0.1380 -0.2139  0.8764
27027SOL    HW183235   4.194   7.349   5.761  0.0052  0.7088  1.3102
27027SOL    HW283236   4.295   7.308   5.656 -1.8092 -0.5817 -0.0095
27028SOL     OW83237   3.705   1.553   1.240 -0.2667  0.1610  0.4772
27028SOL    HW183238   3.719   1.522   1.150 -1.1939 -0.0519  0.3937
27028SOL    HW283239   3.662   1.480   1.284  1.4987 -0.3004  1.5350
27029SOL     OW83240   6.801   4.267   5.761  0.4231 -0.1134  0.2945
27029SOL    HW183241   6.800   4.269   5.856 -0.7884 -0.5941  0.3029
27029SOL    HW283242   6.711   4.248   5.736  0.2930  1.8772 -0.9861
27030SOL     OW83243   2.180   5.689   3.047 -0.1896 -0.5409 -0.3672
27030SOL    HW183244   2.227   5.655   2.971  0.4993  3.1375 -1.7607
27030SOL    HW283245   2.106   5.737   3.010 -1.2802 -0.7106  1.4731
27031SOL     OW83246   9.108   7.889   6.064 -0.0805 -0.0608 -0.0706
27031SOL    HW183247   9.051   7.896   5.987 -0.5076 -0.1586  0.2319
27031SOL    HW283248   9.127   7.796   6.072 -1.7565 -0.3496  1.1518
27032SOL     OW83249   5.968   7.799   7.763  0.3803  1.1945 -0.1448
27032SOL    HW183250   5.910   7.846   7.823 -2.4064 -1.1934 -0.6796
27032SOL    HW283251   5.967   7.851   7.683  1.0680  2.4663  0.6404
27033SOL     OW83252   2.676   1.999   0.798  0.4584 -0.5652 -0.0039
27033SOL    HW183253   2.652   1.908   0.785 -0.2046 -0.5717  1.1470
27033SOL    HW283254   2.762   1.996   0.840  0.7824 -0.6339 -0.6638
27034SOL     OW83255   9.038   8.767   7.857 -0.5171  0.0333  0.2505
27034SOL    HW183256   9.026   8.856   7.891 -1.2132  0.4661 -1.0374
27034SOL    HW283257   9.123   8.739   7.891  0.8057  2.0729 -1.1544
27035SOL     OW83258   2.606   2.322   2.440 -0.1498  0.4474  0.2090
27035SOL    HW183259   2.604   2.376   2.519 -0.3700 -0.1791  0.6423
27035SOL    HW283260   2.620   2.384   2.368  1.7062  0.8819  0.8739
27036SOL     OW83261   1.042   3.328   5.857  0.0384 -0.5319 -0.3842
27036SOL    HW183262   1.121   3.374   5.883  0.1558 -0.0677 -1.4871
27036SOL    HW283263   0.978   3.347   5.925  0.5564 -0.0154 -0.0425
27037SOL     OW83264   5.608   9.217   2.772  0.1753  0.0251 -0.1601
27037SOL    HW183265   5.535   9.167   2.809  0.1172 -0.0960 -0.4357
27037SOL    HW283266   5.566   9.284   2.718  0.2717 -0.0856 -0.3713
27038SOL     OW83267   4.062   1.873   6.604  0.7592  0.3216  0.2325
27038SOL    HW183268   4.044   1.962   6.571 -0.1545 -0.2773 -0.9957
27038SOL    HW283269   4.087   1.824   6.526  0.1320 -0.7732  0.6961
27039SOL     OW83270   8.023   3.854   0.921 -0.3910 -0.5425  0.0700
27039SOL    HW183271   8.063   3.805   0.849  0.4345  0.7179 -0.3485
27039SOL    HW283272   8.095   3.866   0.984 -0.3756  0.7684 -0.1755
27040SOL     OW83273   7.209   8.882   2.657  0.5513 -0.3081  0.1880
27040SOL    HW183274   7.300   8.894   2.630  0.6306 -0.4367  0.3986
27040SOL    HW283275   7.194   8.787   2.650  0.2386 -0.2161 -0.4691
27041SOL     OW83276   2.768   6.283   4.389  0.4005 -0.6553 -0.1420
27041SOL    HW183277   2.688   6.335   4.384 -0.4577 -1.9179 -0.0719
27041SOL    HW283278   2.832   6.340   4.431 -0.0594  0.8460 -1.4124
27042SOL     OW83279   7.249   8.987   6.098 -0.2667  0.0396  0.1318
27042SOL    HW183280   7.306   8.988   6.021  0.5779 -2.3316  0.6403
27042SOL    HW283281   7.297   9.036   6.164  0.2386 -0.1700 -0.0721
27043SOL     OW83282   7.947   2.889   6.331 -0.4309 -0.1774 -0.5439
27043SOL    HW183283   7.923   2.837   6.407 -0.9052 -0.0378 -0.5958
27043SOL    HW283284   7.943   2.828   6.258  1.1001 -0.5845 -0.3198
27044SOL     OW83285   8.751   4.205   1.154  0.0310  0.1526  0.0294
27044SOL    HW183286   8.796   4.237   1.075  1.3895  0.9581  1.0868
27044SOL    HW283287   8.779   4.114   1.162  0.3449  0.2347 -0.1040
27045SOL     OW83288   1.925   3.426   1.237 -0.3343  0.0014  0.3308
27045SOL    HW183289   1.854   3.379   1.194  0.3096 -1.8706  1.2256
27045SOL    HW283290   2.005   3.386   1.203  0.4494  2.7786 -1.4878
27046SOL     OW83291   6.519   8.732   4.684  0.6555  0.1752 -0.2570
27046SOL    HW183292   6.541   8.806   4.741  0.8416  0.7392 -1.0526
27046SOL    HW283293   6.426   8.715   4.703  0.4313  1.0419 -0.5532
27047SOL     OW83294   2.237   6.652   2.257  0.1117 -0.1506  0.1577
27047SOL    HW183295   2.143   6.671   2.261 -0.0441 -0.9525  0.5837
27047SOL    HW283296   2.242   6.557   2.262  0.9701 -0.0918  0.5860
27048SOL     OW83297   7.055   2.897   0.545 -0.2561 -0.3128  0.0838
27048SOL    HW183298   7.048   2.972   0.604 -0.2678 -0.5516  0.3893
27048SOL    HW283299   6.995   2.917   0.473 -2.5443 -1.3386  1.5783
27049SOL     OW83300   0.410   5.796   7.378 -0.3729 -0.6661  0.1841
27049SOL    HW183301   0.323   5.799   7.418 -0.2889 -1.4079  0.4319
27049SOL    HW283302   0.445   5.711   7.404  0.7500 -0.0438  0.7422
27050SOL     OW83303   0.497   2.715   6.826 -0.0300 -0.2471  0.1214
27050SOL    HW183304   0.415   2.668   6.844 -0.0857 -0.0129  0.4849
27050SOL    HW283305   0.479   2.805   6.853  0.9418 -0.5571  2.0105
27051SOL     OW83306   8.489   0.833   0.232  0.0077 -0.6767  0.1995
27051SOL    HW183307   8.529   0.814   0.147  1.1720  0.0685  0.5587
27051SOL    HW283308   8.560   0.822   0.295 -0.7645 -0.9052  1.0543
27052SOL     OW83309   1.628   4.455   7.507  0.0609 -0.2897  0.1091
27052SOL    HW183310   1.547   4.504   7.498 -0.2829 -0.9702 -0.5824
27052SOL    HW283311   1.628   4.425   7.598 -1.4699 -1.9684 -0.3792
27053SOL     OW83312   5.260   7.283   1.925  0.1560  0.1049 -0.0781
27053SOL    HW183313   5.291   7.197   1.896  2.0913  1.1440 -1.2898
27053SOL    HW283314   5.284   7.286   2.018 -1.2118 -1.1570  0.3608
27054SOL     OW83315   3.634   2.379   0.556 -0.0361  0.0770  0.1367
27054SOL    HW183316   3.715   2.327   0.552 -0.1188  0.0150 -1.3509
27054SOL    HW283317   3.629   2.421   0.470 -1.7384 -0.1457  0.0898
27055SOL     OW83318   5.799   7.665   4.061  0.0281 -0.0885 -0.4256
27055SOL    HW183319   5.764   7.623   3.983  1.5055 -1.3037 -0.4806
27055SOL    HW283320   5.832   7.592   4.114  0.9566  0.8810  0.3594
27056SOL     OW83321   6.865   1.870   4.613  0.3320 -0.2491  0.1014
27056SOL    HW183322   6.794   1.813   4.644 -1.4374  0.8579 -1.6870
27056SOL    HW283323   6.839   1.958   4.641  2.0573 -0.0250  1.1386
27057SOL     OW83324   9.395   3.815   0.465 -0.0042 -0.1113  0.2380
27057SOL    HW183325   9.354   3.886   0.514  1.4336  0.0363  1.2868
27057SOL    HW283326   9.488   3.833   0.470  0.2576 -0.5891 -1.8468
27058SOL     OW83327   6.256   0.584   6.139  0.1883 -0.2064  0.5350
27058SOL    HW183328   6.329   0.524   6.152 -0.8097 -1.3076  1.2143
27058SOL    HW283329   6.227   0.606   6.228 -0.0846  0.4917  0.2781
27059SOL     OW83330   2.807   0.537   0.564 -0.3701  0.2869 -0.3411
27059SOL    HW183331   2.792   0.600   0.635 -2.6646  0.5096 -0.9729
27059SOL    HW283332   2.720   0.509   0.537  0.5432 -2.3216 -0.8839
27060SOL     OW83333   1.609   6.451   2.818 -0.1066 -0.0413 -0.1053
27060SOL    HW183334   1.638   6.521   2.876 -1.3611  0.9145 -0.5779
27060SOL    HW283335   1.603   6.492   2.732  0.6409 -1.1496 -0.7088
27061SOL     OW83336   2.037   3.644   8.604 -0.0458 -0.2231  0.1892
27061SOL    HW183337   2.029   3.558   8.562 -1.5398 -0.0547  0.0610
27061SOL    HW283338   2.094   3.694   8.546  0.6332 -1.0447  0.1325
27062SOL     OW83339   2.628   2.259   3.971 -0.2685  0.2331 -0.0763
27062SOL    HW183340   2.681   2.196   4.019 -1.4283 -1.4871 -0.9615
27062SOL    HW283341   2.685   2.287   3.898 -0.5945 -1.8357 -1.2023
27063SOL     OW83342   1.566   7.845   4.757  0.6950  0.1407  0.1992
27063SOL    HW183343   1.558   7.894   4.839 -0.9774  0.5697 -0.2012
27063SOL    HW283344   1.617   7.902   4.700 -3.3087  2.7480 -1.1460
27064SOL     OW83345   8.232   4.603   7.803  0.3493  0.3848 -0.3732
27064SOL    HW183346   8.262   4.687   7.768  0.5508  0.5453  0.1639
27064SOL    HW283347   8.233   4.615   7.898  1.3314 -0.5367 -0.2430
27065SOL     OW83348   0.062   9.200   3.566 -0.2158  0.3514 -0.4297
27065SOL    HW183349   0.099   9.113   3.586  2.5919  1.7375  1.1010
27065SOL    HW283350  -0.032   9.189   3.576  0.2168 -1.8130  3.1976
27066SOL     OW83351   2.589   4.852   4.210 -0.0151  0.0931 -0.1466
27066SOL    HW183352   2.631   4.781   4.162 -1.6103 -2.4185  1.9493
27066SOL    HW283353   2.512   4.874   4.157  0.4663  0.2632 -0.7881
27067SOL     OW83354   1.626   1.944   1.850  0.0801  0.1416  0.6747
27067SOL    HW183355   1.643   1.950   1.756 -0.2782  0.1452  0.6081
27067SOL    HW283356   1.689   1.879   1.882  0.8003  0.7764  0.5862
27068SOL     OW83357   9.456   0.153   0.226  0.7365  0.6255  0.3764
27068SOL    HW183358   9.473   0.224   0.288 -2.3051  1.5161  0.3360
27068SOL    HW283359   9.464   0.073   0.277 -1.1842  1.3236  1.8714
27069SOL     OW83360   4.079   3.555   3.732  0.7261 -0.2755  0.4123
27069SOL    HW183361   4.053   3.601   3.811 -0.9516  0.0882 -0.3075
27069SOL    HW283362   4.155   3.603   3.699  1.3263 -0.3310  1.6759
27070SOL     OW83363   2.369   3.953   3.237  0.2622  0.0079 -0.5566
27070SOL    HW183364   2.448   4.008   3.233 -0.0862  0.4479 -1.9709
27070SOL    HW283365   2.308   3.994   3.176  0.0936 -2.0937 -1.8901
27071SOL     OW83366   9.381   4.278   1.924 -0.1467  0.6139  0.5225
27071SOL    HW183367   9.344   4.314   1.844 -0.2089  0.3564  0.4342
27071SOL    HW283368   9.476   4.286   1.912 -0.1206  3.6853  1.8397
27072SOL     OW83369   6.506   1.815   8.526 -0.0729  0.0815  0.4859
27072SOL    HW183370   6.427   1.846   8.572  0.7037 -0.4708  2.2805
27072SOL    HW283371   6.536   1.740   8.577  2.1669  0.8653  0.4434
27073SOL     OW83372   4.988   8.217   7.428 -0.2071 -0.3678  1.2386
27073SOL    HW183373   5.036   8.138   7.452  3.4759  1.7008  1.4726
27073SOL    HW283374   4.955   8.252   7.511 -0.4270 -0.8315  1.3456
27074SOL     OW83375   9.154   8.199   1.563 -0.0096 -0.1228  0.1104
27074SOL    HW183376   9.082   8.246   1.521  1.8172  0.7936 -2.2199
27074SOL    HW283377   9.171   8.124   1.505  1.3195  0.0501  0.2493
27075SOL     OW83378   3.176   4.954   5.556 -0.1162 -0.4553 -0.3102
27075SOL    HW183379   3.152   4.944   5.464 -0.6111  1.1262 -0.3771
27075SOL    HW283380   3.252   4.897   5.567  0.7780  0.3214 -2.0563
27076SOL     OW83381   5.878   1.472   7.470 -0.0199  0.3683  0.1069
27076SOL    HW183382   5.849   1.439   7.384  0.1829 -2.7193  1.0931
27076SOL    HW283383   5.799   1.468   7.524  0.6296 -1.3803  0.9925
27077SOL     OW83384   4.985   0.646   3.413  0.3562 -0.3716 -0.2566
27077SOL    HW183385   5.039   0.682   3.343 -1.0710 -0.6652 -1.5665
27077SOL    HW283386   4.903   0.696   3.408 -0.3342 -1.4305  0.1741
27078SOL     OW83387   7.962   7.512   1.763  0.6238 -0.2350 -0.7809
27078SOL    HW183388   7.983   7.526   1.671 -1.0242  1.9341 -0.9100
27078SOL    HW283389   8.012   7.580   1.809 -0.2918  0.1460 -0.3375
27079SOL     OW83390   5.663   7.595   4.490  0.4679 -0.0576  0.0351
27079SOL    HW183391   5.578   7.551   4.478  1.0970 -1.0194 -1.1364
27079SOL    HW283392   5.666   7.661   4.420 -0.7051  2.3564  2.1158
27080SOL     OW83393   1.527   6.263   9.291  0.1250 -0.6920  0.1407
27080SOL    HW183394   1.578   6.341   9.269  2.0209 -1.7612  0.5193
27080SOL    HW283395   1.520   6.215   9.209 -1.4076  0.0309 -0.1871
27081SOL     OW83396   0.058   3.735   3.233  0.4380  0.5042  0.3159
27081SOL    HW183397   0.000   3.689   3.171  1.3740 -2.6046  1.5316
27081SOL    HW283398   0.012   3.728   3.317  1.0674  0.9536  0.6981
27082SOL     OW83399   8.903   8.337   0.497  0.1645  0.2679 -0.4275
27082SOL    HW183400   8.831   8.361   0.438  0.5029  0.5578 -0.7266
27082SOL    HW283401   8.865   8.346   0.585 -0.1531  0.4564 -0.5797
27083SOL     OW83402   3.110   0.145   6.458 -0.3970  0.3590 -0.1246
27083SOL    HW183403   3.054   0.211   6.416 -0.6548 -0.0429 -0.4116
27083SOL    HW283404   3.153   0.193   6.529  1.0593  1.3956 -1.6334
27084SOL     OW83405   8.465   7.036   0.699  0.0290 -0.3339 -0.2142
27084SOL    HW183406   8.549   7.021   0.656  0.6298  1.9623  0.0501
27084SOL    HW283407   8.456   6.963   0.759  1.6405 -0.8570 -0.5489
27085SOL     OW83408   6.325   0.758   6.572  0.9469  0.2983  0.3810
27085SOL    HW183409   6.353   0.669   6.592  0.1879 -0.0139  0.0984
27085SOL    HW283410   6.395   0.795   6.518  0.4930 -0.7215 -0.9594
27086SOL     OW83411   4.411   8.865   0.544 -0.4934  0.7217  0.0661
27086SOL    HW183412   4.457   8.949   0.548 -0.7547  0.9023 -0.5794
27086SOL    HW283413   4.318   8.889   0.546 -0.7672  0.2629  4.5039
27087SOL     OW83414   6.234   5.560   2.622 -0.1393  0.0205 -0.0759
27087SOL    HW183415   6.280   5.589   2.543 -0.6386  0.5969 -0.1604
27087SOL    HW283416   6.290   5.492   2.659  1.3978  1.4729  0.4470
27088SOL     OW83417   7.217   2.841   5.246 -0.3363 -0.1239  0.2316
27088SOL    HW183418   7.246   2.795   5.325 -0.7875 -0.8358 -0.0114
27088SOL    HW283419   7.293   2.894   5.221  0.1078 -0.5432  0.6615
27089SOL     OW83420   4.949   8.038   0.180  0.3567 -0.4680 -0.7095
27089SOL    HW183421   5.017   7.971   0.173 -1.5889 -2.4927 -1.7542
27089SOL    HW283422   4.903   8.018   0.262 -0.9522 -1.2344 -1.5799
27090SOL     OW83423   2.505   1.181   8.205 -0.0997  0.4335 -0.4883
27090SOL    HW183424   2.427   1.188   8.149 -1.5184  0.8514  1.4452
27090SOL    HW283425   2.513   1.088   8.223 -1.2098  0.5316  0.6598
27091SOL     OW83426   8.132   4.064   6.029 -0.0207  0.5095 -0.2283
27091SOL    HW183427   8.076   3.996   5.991 -0.2069  1.3274 -1.4822
27091SOL    HW283428   8.077   4.104   6.098 -0.6503  0.6849 -0.8173
27092SOL     OW83429   9.011   6.295   9.454  0.1304 -0.3630 -0.2421
27092SOL    HW183430   9.011   6.228   9.521 -1.0470 -0.5698 -0.4166
27092SOL    HW283431   8.976   6.251   9.376 -0.1895  0.3148 -0.4924
27093SOL     OW83432   8.239   3.483   2.988 -0.2179  0.4943 -0.2844
27093SOL    HW183433   8.305   3.446   2.929 -1.1856 -2.2756  0.2308
27093SOL    HW283434   8.170   3.514   2.930  0.1712  0.5955 -0.7070
27094SOL     OW83435   3.643   0.139   9.209 -0.2313 -0.5097  0.7401
27094SOL    HW183436   3.569   0.078   9.211 -0.4001 -0.3735 -0.4180
27094SOL    HW283437   3.658   0.162   9.300  0.5031 -3.0741  1.3457
27095SOL     OW83438   2.063   1.052   1.174 -0.0207 -0.7849 -0.0347
27095SOL    HW183439   1.984   1.012   1.139 -0.4834 -0.6708  0.8492
27095SOL    HW283440   2.133   1.020   1.118 -0.8529  0.3320 -1.7770
27096SOL     OW83441   8.165   3.383   3.620  0.4525 -0.4506  0.2756
27096SOL    HW183442   8.207   3.315   3.673  1.7026 -0.1233 -0.2722
27096SOL    HW283443   8.225   3.397   3.547 -0.6479 -0.0083 -0.5719
27097SOL     OW83444   3.519   6.700   2.857 -0.2067  0.6565 -0.0011
27097SOL    HW183445   3.503   6.608   2.876 -0.1986  0.7312  0.3858
27097SOL    HW283446   3.613   6.705   2.840 -0.4372  0.3518 -1.4853
27098SOL     OW83447   1.749   9.446   0.269 -0.0702 -0.1406 -0.3390
27098SOL    HW183448   1.661   9.455   0.305 -0.4371  0.3864 -1.3115
27098SOL    HW283449   1.807   9.457   0.343 -0.8213 -0.4035  0.3047
27099SOL     OW83450   8.716   7.669   1.313  0.1066  0.3018 -0.2377
27099SOL    HW183451   8.660   7.735   1.272 -0.8601  0.9534  1.9745
27099SOL    HW283452   8.663   7.590   1.313 -0.3459  0.5872  0.6840
27100SOL     OW83453   9.475   7.689   5.959 -0.5760 -0.2574  0.1214
27100SOL    HW183454   9.432   7.769   5.988 -0.7217 -0.7419  1.3052
27100SOL    HW283455   9.404   7.626   5.947 -0.4672 -0.2142 -0.8380
27101SOL     OW83456   6.859   4.870   3.600 -0.1590 -0.4938 -0.3847
27101SOL    HW183457   6.801   4.904   3.669  1.2217 -0.8215  1.0048
27101SOL    HW283458   6.888   4.948   3.553  1.0910  0.1072  1.2539
27102SOL     OW83459   1.961   5.496   3.962 -0.2297 -0.3270 -0.6160
27102SOL    HW183460   1.942   5.415   4.008 -0.9400  0.3882  0.3853
27102SOL    HW283461   2.020   5.544   4.021 -1.8056  0.9562 -0.0191
27103SOL     OW83462   9.314   6.946   2.013 -0.1825  0.0025 -0.6193
27103SOL    HW183463   9.226   6.984   2.009  0.0057  0.4159 -1.0183
27103SOL    HW283464   9.347   6.953   1.923 -0.3122 -1.5477 -0.8142
27104SOL     OW83465   6.022   0.466   3.494  0.6572  0.2682  0.1911
27104SOL    HW183466   5.931   0.438   3.499  0.2994  1.4643  0.5690
27104SOL    HW283467   6.047   0.450   3.403 -0.4012  1.3343 -0.3074
27105SOL     OW83468   8.389   2.571   3.564 -0.3252  0.2361 -0.3755
27105SOL    HW183469   8.443   2.576   3.486 -1.2516 -0.0581 -1.0496
27105SOL    HW283470   8.384   2.478   3.585 -0.6659  0.2506 -0.3839
27106SOL     OW83471   3.237   4.677   3.977  0.2573 -0.9196  0.3519
27106SOL    HW183472   3.257   4.747   3.915  1.9567 -0.7959  0.9671
27106SOL    HW283473   3.186   4.718   4.046 -0.4006 -0.7340 -0.2424
27107SOL     OW83474   8.535   4.693   6.988 -0.0242 -0.3003  0.6768
27107SOL    HW183475   8.512   4.741   7.068  0.7118 -0.3820  0.9437
27107SOL    HW283476   8.474   4.726   6.922  0.5239  1.1015  0.8276
27108SOL     OW83477   0.493   1.810   1.902 -0.0247  0.2568  0.6045
27108SOL    HW183478   0.577   1.854   1.913  0.0349 -0.0878  1.6525
27108SOL    HW283479   0.515   1.716   1.904 -0.5200  0.1475  1.8160
27109SOL     OW83480   1.298   8.803   3.628  0.3952 -0.3474  0.4590
27109SOL    HW183481   1.255   8.888   3.614  0.2930 -0.4710  0.0349
27109SOL    HW283482   1.357   8.819   3.701 -1.1512 -0.4458  1.8003
27110SOL     OW83483   5.740   8.730   1.161  0.2993  0.5131  0.0587
27110SOL    HW183484   5.663   8.775   1.129 -0.9808  0.8074  3.1868
27110SOL    HW283485   5.706   8.650   1.201  1.8063 -0.0771  0.2315
27111SOL     OW83486   4.381   4.772   6.631 -0.6901  0.1113 -0.4142
27111SOL    HW183487   4.374   4.677   6.620  0.2945 -0.0630  0.3203
27111SOL    HW283488   4.334   4.809   6.555 -0.2150 -0.9625 -1.2552
27112SOL     OW83489   1.640   8.809   1.593  0.0085 -0.3416 -0.1434
27112SOL    HW183490   1.652   8.869   1.520 -0.6678  1.0576  0.8663
27112SOL    HW283491   1.675   8.725   1.561  0.7983  0.5223 -1.6315
27113SOL     OW83492   8.269   6.000   2.727  0.2056 -0.5006 -0.2909
27113SOL    HW183493   8.224   6.085   2.722  0.6757 -0.1148  1.3969
27113SOL    HW283494   8.208   5.938   2.686 -0.0341  0.6652 -1.8074
27114SOL     OW83495   2.655   3.899   8.553 -0.2564  0.2487  0.8293
27114SOL    HW183496   2.750   3.890   8.555 -0.3233 -0.5872  2.7840
27114SOL    HW283497   2.623   3.810   8.567 -1.4182  0.1115 -1.9320
27115SOL     OW83498   2.276   9.173   2.370  0.1926  0.2240 -0.5442
27115SOL    HW183499   2.322   9.122   2.304  0.3489  1.9081 -1.8136
27115SOL    HW283500   2.184   9.150   2.359  0.2381  0.3488 -1.2380
27116SOL     OW83501   2.087   7.290   0.264 -0.4304  0.2802  0.2834
27116SOL    HW183502   2.098   7.365   0.323 -2.1781  0.6387  0.2079
27116SOL    HW283503   2.173   7.248   0.263 -0.3275  0.2240  3.1184
27117SOL     OW83504   7.958   6.010   4.088 -0.4879 -0.0566  0.3552
27117SOL    HW183505   7.863   6.000   4.081 -0.8024  1.8421  1.1816
27117SOL    HW283506   7.994   5.932   4.046 -2.3993 -0.5682 -0.4326
27118SOL     OW83507   2.517   6.361   0.128  0.4382 -0.7389 -0.0445
27118SOL    HW183508   2.504   6.433   0.190  2.0966 -1.0184  0.6827
27118SOL    HW283509   2.608   6.336   0.140  0.3046 -1.9645 -1.3824
27119SOL     OW83510   1.912   2.864   5.759  1.2048 -0.1424  0.2127
27119SOL    HW183511   1.976   2.851   5.829  2.6344 -0.7377 -1.1456
27119SOL    HW283512   1.963   2.860   5.679 -0.4576  0.0477 -0.9052
27120SOL     OW83513   1.838   7.775   2.623 -0.0603 -0.0813  0.2930
27120SOL    HW183514   1.831   7.777   2.527 -0.0394  0.1758  0.2950
27120SOL    HW283515   1.852   7.683   2.644  1.7228  0.0686 -0.0793
27121SOL     OW83516   3.034   9.607   2.803 -0.2635  0.5632 -0.1513
27121SOL    HW183517   3.063   9.698   2.803  1.6572  0.0012  1.0372
27121SOL    HW283518   2.960   9.604   2.864  0.3412  1.1410  0.6164
27122SOL     OW83519   2.623   8.998   2.929  0.0762  0.0584  0.2455
27122SOL    HW183520   2.612   8.903   2.918 -0.8654  0.2941 -1.0663
27122SOL    HW283521   2.706   9.007   2.975 -0.3359 -1.4444  1.3609
27123SOL     OW83522   6.729   5.482   9.460  0.2191 -0.4834 -0.0976
27123SOL    HW183523   6.658   5.445   9.512 -0.8351  1.7990  0.2095
27123SOL    HW283524   6.759   5.558   9.511  4.0891 -2.2353  0.6489
27124SOL     OW83525   3.376   8.187   8.472  0.7407  0.7946 -0.1978
27124SOL    HW183526   3.358   8.237   8.392 -1.0719  3.2567  1.5873
27124SOL    HW283527   3.295   8.139   8.489  1.3851 -0.3194 -0.2291
27125SOL     OW83528   8.488   6.300   0.604 -0.8102 -0.6549 -0.3596
27125SOL    HW183529   8.554   6.264   0.544 -0.1658 -0.8174  0.4338
27125SOL    HW283530   8.421   6.338   0.546  0.4522  0.3995 -1.1846
27126SOL     OW83531   5.239   5.960   4.511 -0.4096 -0.6361 -0.1962
27126SOL    HW183532   5.274   5.870   4.511  0.6512 -0.2460 -0.6662
27126SOL    HW283533   5.175   5.960   4.440 -1.1981 -1.2941  0.4917
27127SOL     OW83534   8.791   8.661   7.228  0.3255  0.5912 -0.1436
27127SOL    HW183535   8.792   8.685   7.320 -0.4518  1.1388 -0.2728
27127SOL    HW283536   8.850   8.585   7.222 -0.1206  0.1499  0.8977
27128SOL     OW83537   3.574   9.610   6.368 -0.1147 -0.0921 -0.5960
27128SOL    HW183538   3.494   9.616   6.420 -0.1807 -0.3346 -0.6689
27128SOL    HW283539   3.645   9.611   6.432 -0.1051  1.6164 -0.5960
27129SOL     OW83540   0.754   9.494   6.328 -0.3346 -0.9827  0.1092
27129SOL    HW183541   0.704   9.501   6.247  0.5071 -1.8652 -0.4933
27129SOL    HW283542   0.819   9.565   6.323 -0.6915 -0.6344  0.3165
27130SOL     OW83543   0.380   1.468   6.601  0.3434 -0.0972  0.3531
27130SOL    HW183544   0.437   1.523   6.547  0.1743 -0.6854 -0.4487
27130SOL    HW283545   0.353   1.525   6.673  0.1560  0.8772 -0.4648
27131SOL     OW83546   0.160   0.298   5.024  0.2116  0.1949 -0.1052
27131SOL    HW183547   0.144   0.207   5.045 -2.2989  0.7117  0.5092
27131SOL    HW283548   0.256   0.306   5.022  0.5012 -2.4973 -0.6041
27132SOL     OW83549   7.334   4.734   9.237  0.9574 -0.5976 -0.2064
27132SOL    HW183550   7.384   4.699   9.163  0.1176 -1.5324 -0.3657
27132SOL    HW283551   7.272   4.664   9.259 -0.1954  0.4688  0.0598
27133SOL     OW83552   1.552   2.789   5.783 -0.1033  0.6924  0.5747
27133SOL    HW183553   1.478   2.780   5.723 -0.3407 -0.5133  1.0202
27133SOL    HW283554   1.590   2.701   5.786  0.0404  0.7908  1.9940
27134SOL     OW83555   6.691   6.543   2.359  0.6111  0.3816  0.4539
27134SOL    HW183556   6.693   6.510   2.448  0.9723 -0.0478  0.2903
27134SOL    HW283557   6.633   6.619   2.363  1.2757  0.8652  1.2169
27135SOL     OW83558   8.179   9.337   3.823 -0.5161  0.2991 -0.7439
27135SOL    HW183559   8.203   9.426   3.850 -0.2791  0.0084  0.0055
27135SOL    HW283560   8.085   9.342   3.809 -0.3632  0.9222 -1.7082
27136SOL     OW83561   8.310   5.988   3.298  0.0586 -0.1876  0.3236
27136SOL    HW183562   8.344   5.913   3.250 -0.4970 -0.2720  0.0566
27136SOL    HW283563   8.248   5.951   3.361 -1.8727  0.1941 -1.2581
27137SOL     OW83564   5.424   8.658   5.505 -0.1460 -0.3047  0.4341
27137SOL    HW183565   5.387   8.712   5.575 -2.7431 -2.0090  0.5343
27137SOL    HW283566   5.358   8.590   5.491  0.9025 -0.8017 -2.7731
27138SOL     OW83567   4.926   0.014   5.959  0.0645  0.6142  0.5444
27138SOL    HW183568   4.972  -0.004   6.041  1.0878 -2.5823 -0.5785
27138SOL    HW283569   4.995   0.019   5.893 -0.8163  2.1159 -0.3145
27139SOL     OW83570   4.128   5.683   5.036 -0.9157 -0.2902 -0.5983
27139SOL    HW183571   4.137   5.588   5.040 -1.5389 -0.3104  1.6324
27139SOL    HW283572   4.209   5.716   5.075 -0.4954  0.1465 -1.7822
27140SOL     OW83573   9.474   6.423   6.494 -0.3681 -0.1088  0.0840
27140SOL    HW183574   9.389   6.464   6.509 -0.3895  0.1678 -0.7608
27140SOL    HW283575   9.538   6.489   6.520 -0.4075  0.3474 -0.9153
27141SOL     OW83576   5.789   1.771   5.132 -0.0430  0.4194  0.0698
27141SOL    HW183577   5.771   1.679   5.149 -0.4379  0.7916  1.8545
27141SOL    HW283578   5.882   1.782   5.152  0.1474  0.3108 -0.7058
27142SOL     OW83579   1.463   5.998   8.131  0.3848  0.0945  0.0230
27142SOL    HW183580   1.455   6.084   8.172 -2.4865 -0.6571  1.2885
27142SOL    HW283581   1.460   6.015   8.037  0.5714  1.4193  0.2478
27143SOL     OW83582   3.978   8.867   8.179  0.0619  0.4575 -0.0974
27143SOL    HW183583   3.998   8.893   8.269 -0.2502 -0.9706  0.4176
27143SOL    HW283584   3.883   8.867   8.175  0.0552 -0.3471 -0.1369
27144SOL     OW83585   1.109   2.834   4.448  0.0341 -0.2603 -0.6005
27144SOL    HW183586   1.073   2.866   4.365 -0.2480  1.1528  0.0347
27144SOL    HW283587   1.079   2.743   4.453 -0.6914 -0.1053 -1.6297
27145SOL     OW83588   6.682   8.795   1.096  0.2939 -0.2988 -0.4866
27145SOL    HW183589   6.695   8.887   1.077 -0.8885 -0.6819 -3.6968
27145SOL    HW283590   6.588   8.781   1.087  0.1341 -1.5128  1.9461
27146SOL     OW83591   4.572   1.617   3.042  0.0545  0.2814 -0.4928
27146SOL    HW183592   4.504   1.678   3.070  0.6581  1.3515 -1.2902
27146SOL    HW283593   4.539   1.531   3.068 -0.5069  0.9843  1.2780
27147SOL     OW83594   6.526   0.322   4.768  0.3655  0.7597 -0.1671
27147SOL    HW183595   6.610   0.368   4.775  1.0021 -0.0741 -1.7679
27147SOL    HW283596   6.487   0.357   4.688 -1.3261  1.8618  1.0737
27148SOL     OW83597   1.040   5.333   8.198 -0.2797 -0.7731 -0.3527
27148SOL    HW183598   1.047   5.242   8.225 -2.7610 -0.5418  1.3978
27148SOL    HW283599   1.063   5.384   8.276  1.2412  0.1739 -1.3443
27149SOL     OW83600   2.997   5.850   2.901  0.3019 -0.4954  0.1844
27149SOL    HW183601   3.070   5.911   2.910 -0.5681  0.4332  1.1237
27149SOL    HW283602   2.920   5.901   2.925 -0.9167 -0.9314 -2.4433
27150SOL     OW83603   7.322   5.215   2.557  0.3934 -0.4164  0.0501
27150SOL    HW183604   7.336   5.121   2.552 -1.9701 -0.8216 -0.2079
27150SOL    HW283605   7.409   5.252   2.565  1.3691 -2.6328  0.3938
27151SOL     OW83606   6.444   3.977   2.072 -0.4628 -0.3553 -0.2882
27151SOL    HW183607   6.358   3.982   2.032 -1.2380 -2.4959  0.9497
27151SOL    HW283608   6.488   3.906   2.026 -0.4354 -1.1556  0.9367
27152SOL     OW83609   4.107   8.157   1.186  0.3741  0.4935 -0.2021
27152SOL    HW183610   4.190   8.201   1.169  0.6500  0.1403  0.1997
27152SOL    HW283611   4.131   8.083   1.242 -0.2574  0.5815  0.1864
27153SOL     OW83612   3.610   8.671   4.049  0.1989 -0.0626 -0.6611
27153SOL    HW183613   3.702   8.673   4.075 -0.0824  1.4489  0.3292
27153SOL    HW283614   3.576   8.757   4.072 -1.1982 -0.1734 -2.0883
27154SOL     OW83615   8.474   1.493   6.115  0.2092 -0.5976  0.7856
27154SOL    HW183616   8.444   1.527   6.200 -2.2134  2.1147 -0.9611
27154SOL    HW283617   8.546   1.551   6.090 -1.1300  0.6626 -0.3095
27155SOL     OW83618   2.879   5.275   2.288  0.1981  0.2938  0.1752
27155SOL    HW183619   2.791   5.277   2.324  1.0127  1.3070  2.2751
27155SOL    HW283620   2.870   5.308   2.199 -2.0136 -2.8769 -0.9530
27156SOL     OW83621   1.174   3.985   9.482 -0.0359 -0.3250 -0.2306
27156SOL    HW183622   1.119   3.912   9.510  0.3901 -0.2105  0.9339
27156SOL    HW283623   1.233   3.946   9.417 -2.2574 -0.1842 -2.4561
27157SOL     OW83624   3.938   5.840   9.071  0.1322  0.2177  0.1961
27157SOL    HW183625   3.997   5.786   9.018  0.2982  1.4941 -0.9910
27157SOL    HW283626   3.866   5.863   9.012 -0.2671  0.7398  0.8677
27158SOL     OW83627   4.772   4.529   6.558 -0.0160 -0.3981  0.4214
27158SOL    HW183628   4.744   4.602   6.614 -1.3440 -1.4288  1.1569
27158SOL    HW283629   4.799   4.461   6.619 -0.1796 -1.0438 -0.2157
27159SOL     OW83630   6.319   5.081   0.413  0.1662 -0.2966 -0.0702
27159SOL    HW183631   6.403   5.036   0.411 -0.3431 -1.3382  0.5438
27159SOL    HW283632   6.338   5.168   0.447  0.6189 -1.4897  3.0211
27160SOL     OW83633   6.624   2.184   6.914  0.0778  0.2217 -0.9183
27160SOL    HW183634   6.539   2.193   6.870 -2.1787 -3.0430  2.2367
27160SOL    HW283635   6.663   2.106   6.875  1.1285  0.9952 -1.4757
27161SOL     OW83636   4.576   4.209   7.039  0.1628  0.2941  0.6208
27161SOL    HW183637   4.515   4.266   7.084  1.0811  3.8749 -2.1968
27161SOL    HW283638   4.521   4.160   6.977 -0.1336  3.9622 -2.3717
27162SOL     OW83639   3.383   2.476   7.800  0.1620  0.1153 -0.0192
27162SOL    HW183640   3.389   2.566   7.830 -0.5159  0.1434  0.0416
27162SOL    HW283641   3.455   2.431   7.845 -0.1858  0.3861  0.8191
27163SOL     OW83642   6.284   3.199   2.425  0.2448  1.0537 -0.6434
27163SOL    HW183643   6.287   3.187   2.520 -1.7651 -1.0447 -0.7574
27163SOL    HW283644   6.267   3.293   2.414 -0.3595  1.1903  1.1050
27164SOL     OW83645   6.320   1.202   6.068  0.1381  0.9865 -0.0729
27164SOL    HW183646   6.352   1.257   6.139  0.8801  0.7304 -0.1980
27164SOL    HW283647   6.262   1.260   6.018 -1.3591  0.8357  1.3937
27165SOL     OW83648   8.023   4.114   3.058  0.2301  0.3443  0.1754
27165SOL    HW183649   7.955   4.050   3.074 -0.7544  1.4563  0.5621
27165SOL    HW283650   8.049   4.145   3.145 -0.4837  1.6382 -0.0401
27166SOL     OW83651   0.175   5.335   2.299 -0.4024 -0.0168  0.0902
27166SOL    HW183652   0.185   5.386   2.380 -1.1260 -1.4437  1.1259
27166SOL    HW283653   0.240   5.266   2.305  1.1327  1.1823 -1.6940
27167SOL     OW83654   3.485   5.343   2.006 -0.0672 -0.0950 -0.0722
27167SOL    HW183655   3.516   5.285   2.076 -0.0644  0.0245  0.0283
27167SOL    HW283656   3.431   5.288   1.950  2.7834 -1.1057 -2.0198
27168SOL     OW83657   9.495   8.892   4.306  0.1632 -0.0228 -0.3434
27168SOL    HW183658   9.402   8.896   4.331 -0.2878  0.2251 -1.9078
27168SOL    HW283659   9.527   8.981   4.321 -0.6946  0.7594 -2.5628
27169SOL     OW83660   3.501   6.649   1.723 -0.0921 -0.8855  0.2828
27169SOL    HW183661   3.549   6.691   1.651 -1.1074 -0.7500 -0.3273
27169SOL    HW283662   3.496   6.557   1.698  1.2620 -1.2303  1.1462
27170SOL     OW83663   4.966   0.431   3.618 -0.4897  0.0896  0.3973
27170SOL    HW183664   5.056   0.408   3.642 -0.2411 -0.3927 -0.9310
27170SOL    HW283665   4.974   0.481   3.537 -1.2649  2.1734  1.5227
27171SOL     OW83666   6.111   4.483   2.222 -0.1379  0.7748  0.2195
27171SOL    HW183667   6.064   4.534   2.288 -1.6114  0.9896 -0.9359
27171SOL    HW283668   6.203   4.490   2.247 -0.6045  1.3205  1.9048
27172SOL     OW83669   0.619   5.195   3.667  0.9007  0.2460  0.3115
27172SOL    HW183670   0.625   5.160   3.757 -1.2283  0.7827  0.7239
27172SOL    HW283671   0.563   5.272   3.675 -0.4784 -0.4525 -1.6428
27173SOL     OW83672   4.337   2.127   9.086 -0.2930 -0.1048  0.1694
27173SOL    HW183673   4.246   2.114   9.061 -0.1783 -0.0787 -0.2598
27173SOL    HW283674   4.387   2.110   9.006  0.0886 -0.2437  0.4321
27174SOL     OW83675   7.415   5.132   1.416  0.2298  0.5318 -0.0071
27174SOL    HW183676   7.322   5.152   1.406 -0.4063 -1.1464  1.9895
27174SOL    HW283677   7.460   5.213   1.390 -1.8238  1.7399  0.0183
27175SOL     OW83678   3.703   0.806   7.649 -0.0543 -0.1724 -0.1844
27175SOL    HW183679   3.788   0.766   7.631  0.0739  0.0339 -0.0388
27175SOL    HW283680   3.721   0.871   7.717 -0.2477  0.1848 -0.4695
27176SOL     OW83681   6.228   5.424   5.159 -0.3098  0.0346 -0.6982
27176SOL    HW183682   6.174   5.474   5.220  1.3471  1.1869 -0.1158
27176SOL    HW283683   6.268   5.356   5.212  0.2317  0.3232 -0.7330
27177SOL     OW83684   9.129   9.025   5.477  0.0745 -0.0874  0.1333
27177SOL    HW183685   9.126   9.052   5.385  0.8180  0.9446  0.3969
27177SOL    HW283686   9.037   9.023   5.503 -0.0664  1.4964 -0.1228
27178SOL     OW83687   3.424   1.426   8.289 -0.4385  0.4406  0.1071
27178SOL    HW183688   3.391   1.355   8.233 -0.5412  0.2411  0.4173
27178SOL    HW283689   3.350   1.449   8.345 -0.4457  0.8914 -0.0872
27179SOL     OW83690   4.398   7.111   5.575  0.3561  0.2502  0.5279
27179SOL    HW183691   4.487   7.097   5.544 -0.1770  0.9595 -1.4641
27179SOL    HW283692   4.364   7.181   5.520 -1.2721  0.3644  1.6020
27180SOL     OW83693   1.893   7.274   8.671  0.7501 -0.5439  0.1207
27180SOL    HW183694   1.823   7.332   8.703  1.0602  0.1451 -0.4227
27180SOL    HW283695   1.858   7.186   8.683  0.6835 -0.2974  1.9454
27181SOL     OW83696   2.517   3.370   7.270 -0.7015 -0.0629  0.0094
27181SOL    HW183697   2.441   3.314   7.273 -0.5932 -0.1967  0.3111
27181SOL    HW283698   2.483   3.456   7.246 -0.8244 -0.3215 -0.7786
27182SOL     OW83699   4.847   0.271   2.010 -0.5746  0.5006 -0.0799
27182SOL    HW183700   4.916   0.263   1.945  0.8246  0.7622  1.3225
27182SOL    HW283701   4.825   0.364   2.011  0.3753  0.7376  0.7415
27183SOL     OW83702   8.046   0.504   3.668  0.5244 -0.1981 -0.0260
27183SOL    HW183703   7.964   0.547   3.645  1.5407  1.2810 -1.0724
27183SOL    HW283704   8.053   0.431   3.605  0.6288  0.4798 -0.8156
27184SOL     OW83705   0.498   3.466   7.282  0.3215  0.4810  0.3392
27184SOL    HW183706   0.435   3.395   7.294  1.7019 -0.8315  0.2086
27184SOL    HW283707   0.454   3.527   7.223 -0.4497 -0.8896 -0.5748
27185SOL     OW83708   6.774   8.445   6.391  0.8951 -0.2352 -0.1217
27185SOL    HW183709   6.792   8.461   6.483  0.6466 -3.0159  0.4816
27185SOL    HW283710   6.723   8.521   6.363  2.1747  1.3399  1.6199
27186SOL     OW83711   8.094   1.135   8.853 -0.5706  0.5035  0.6115
27186SOL    HW183712   8.185   1.147   8.878 -0.2700 -0.0116 -0.1878
27186SOL    HW283713   8.097   1.115   8.759 -1.4259 -0.4678  0.7702
27187SOL     OW83714   6.404   3.576   4.261 -0.2134 -0.4498 -0.7594
27187SOL    HW183715   6.445   3.531   4.187 -1.7098 -1.7692 -0.8432
27187SOL    HW283716   6.314   3.591   4.233 -0.4398  0.2461  0.2933
27188SOL     OW83717   3.110   9.198   8.704 -0.2262  0.2808 -0.6800
27188SOL    HW183718   3.106   9.103   8.701  0.4506  0.2472 -0.7835
27188SOL    HW283719   3.102   9.225   8.612 -0.9099  0.3541 -0.6044
27189SOL     OW83720   3.715   6.127   1.429 -0.1063  0.0800  0.3996
27189SOL    HW183721   3.645   6.192   1.423  0.3138  0.4813 -0.3349
27189SOL    HW283722   3.697   6.066   1.357  0.2787  0.1821  0.2116
27190SOL     OW83723   2.290   1.554   7.280  0.4090  0.9252 -0.3973
27190SOL    HW183724   2.277   1.638   7.325  1.4419  0.6129  0.5271
27190SOL    HW283725   2.369   1.518   7.319  0.0776 -0.4113 -0.9170
27191SOL     OW83726   9.452   9.414   0.480  0.3277  0.1908 -0.4786
27191SOL    HW183727   9.502   9.397   0.560 -1.9778 -0.3679  0.9115
27191SOL    HW283728   9.410   9.331   0.459 -1.6021  1.1146 -0.4491
27192SOL     OW83729   6.924   8.640   3.470 -0.5546  0.5366  0.0064
27192SOL    HW183730   6.942   8.659   3.562 -0.2572  0.1226  0.0385
27192SOL    HW283731   6.920   8.544   3.466  0.5441  0.4899 -0.6044
27193SOL     OW83732   5.707   0.595   2.914 -0.3899  0.0994 -0.6069
27193SOL    HW183733   5.743   0.682   2.932 -1.3768  0.1603  1.3155
27193SOL    HW283734   5.784   0.540   2.898  0.5709  0.4647  2.2863
27194SOL     OW83735   9.336   0.652   4.223 -0.2722  0.0155  0.4293
27194SOL    HW183736   9.414   0.659   4.279  0.4530 -2.7612 -0.0830
27194SOL    HW283737   9.334   0.734   4.175  2.4659  0.1494  0.3618
27195SOL     OW83738   4.904   8.403   6.407  0.6677 -0.2338 -0.2295
27195SOL    HW183739   4.810   8.409   6.425  0.6235  0.6828 -0.7281
27195SOL    HW283740   4.941   8.483   6.444  1.2219 -0.4781 -0.2414
27196SOL     OW83741   5.467   0.784   3.423 -0.0121  0.4461  0.2694
27196SOL    HW183742   5.402   0.855   3.429  0.2800  0.8446 -0.9651
27196SOL    HW283743   5.525   0.812   3.353 -1.0734 -1.9673 -1.6987
27197SOL     OW83744   7.018   6.573   9.400  0.1746  0.8182 -0.4212
27197SOL    HW183745   7.045   6.582   9.309 -1.5943  0.4573 -1.0388
27197SOL    HW283746   7.097   6.587   9.451  1.4816 -0.2525 -2.0593
27198SOL     OW83747   8.544   4.967   7.446  0.5416  0.5815 -0.3041
27198SOL    HW183748   8.612   4.991   7.509  1.4453  0.8641 -1.3557
27198SOL    HW283749   8.462   4.975   7.494  1.1420  1.7187  0.5531
27199SOL     OW83750   3.558   1.885   4.277  1.0797  0.1170 -0.1091
27199SOL    HW183751   3.509   1.872   4.195  1.0947 -0.3782 -0.0435
27199SOL    HW283752   3.598   1.800   4.294 -0.4072 -0.3350  1.3887
27200SOL     OW83753   7.388   0.270   0.163  0.3586  0.0617 -0.5163
27200SOL    HW183754   7.328   0.290   0.235  0.3602 -2.2292  0.1852
27200SOL    HW283755   7.365   0.181   0.136  2.5104 -0.3538 -1.1827
27201SOL     OW83756   5.060   7.244   0.064  0.1722  0.1859  0.0975
27201SOL    HW183757   5.117   7.172   0.090 -1.0069 -0.7957  0.0566
27201SOL    HW283758   5.016   7.270   0.144  0.2417  0.5452  0.0203
27202SOL     OW83759   5.264   0.301   7.186  0.3863  0.3635  0.5475
27202SOL    HW183760   5.238   0.248   7.111  1.7070 -0.7268  0.8046
27202SOL    HW283761   5.270   0.390   7.152 -1.0280  0.2243 -0.1207
27203SOL     OW83762   7.226   0.124   5.258 -0.3479 -0.6775 -0.1127
27203SOL    HW183763   7.291   0.152   5.193 -0.3756 -0.7296 -0.1618
27203SOL    HW283764   7.175   0.203   5.275  1.3463  0.1083  1.8371
27204SOL     OW83765   2.716   4.791   2.502  0.2063  0.5582  0.1137
27204SOL    HW183766   2.624   4.768   2.512  0.2083  1.0940  1.7565
27204SOL    HW283767   2.722   4.882   2.533  1.5446 -0.0493  1.8207
27205SOL     OW83768   8.442   2.279   6.139 -0.0489  0.3355 -0.2686
27205SOL    HW183769   8.453   2.220   6.064 -0.6804  0.0387 -0.1329
27205SOL    HW283770   8.405   2.359   6.102  1.5412  0.9566 -0.5716
27206SOL     OW83771   2.088   0.639   8.537 -0.2734  0.1906 -0.0754
27206SOL    HW183772   2.179   0.663   8.519 -0.3121 -0.2107 -0.8236
27206SOL    HW283773   2.044   0.645   8.453 -1.0142  0.6382  0.3251
27207SOL     OW83774   3.820   7.577   1.744  0.6184  0.5439  0.0011
27207SOL    HW183775   3.800   7.483   1.738  2.5066 -0.1222  2.3824
27207SOL    HW283776   3.853   7.600   1.657  0.1260 -1.0117 -0.6312
27208SOL     OW83777   6.667   3.233   9.539 -0.4783  0.6088  0.6635
27208SOL    HW183778   6.694   3.252   9.629 -0.4288  1.8170  0.4128
27208SOL    HW283779   6.749   3.220   9.492 -0.5299 -1.6276  1.0825
27209SOL     OW83780   5.579   6.277   3.284 -0.5607  0.3254 -0.0013
27209SOL    HW183781   5.560   6.246   3.196  2.1236  1.6245 -1.1597
27209SOL    HW283782   5.531   6.359   3.292 -0.0556  0.6870 -0.6378
27210SOL     OW83783   4.462   5.073   5.199  0.0939 -0.3528 -0.4407
27210SOL    HW183784   4.403   4.998   5.211 -1.6346  1.0811  0.5340
27210SOL    HW283785   4.519   5.071   5.275  0.1147 -0.7380 -0.4656
27211SOL     OW83786   0.919   2.593   0.147  0.7405 -0.7658 -0.1129
27211SOL    HW183787   0.884   2.638   0.070 -0.3259  0.8905  1.2537
27211SOL    HW283788   0.870   2.511   0.151 -0.4600 -0.0779 -0.2488
27212SOL     OW83789   3.670   5.088   1.872 -0.5006 -0.2263  0.1411
27212SOL    HW183790   3.587   5.127   1.846  0.6565  0.9524 -2.0863
27212SOL    HW283791   3.734   5.157   1.860  1.0085 -1.5028  0.4618
27213SOL     OW83792   5.888   4.149   4.535 -0.2348 -0.3437  0.2800
27213SOL    HW183793   5.931   4.143   4.449 -1.2907 -0.8315 -0.2327
27213SOL    HW283794   5.920   4.072   4.583 -0.6190 -0.7737 -0.1429
27214SOL     OW83795   6.375   6.006   6.582  0.2759 -1.0331 -0.1926
27214SOL    HW183796   6.450   6.026   6.639 -0.4266  1.0095  0.1082
27214SOL    HW283797   6.414   5.964   6.505  1.8662  0.6170 -0.3792
27215SOL     OW83798   0.951   0.146   5.821 -0.0824 -0.4000 -0.2174
27215SOL    HW183799   0.991   0.079   5.877  0.7438  0.1875 -0.0915
27215SOL    HW283800   0.879   0.181   5.873 -0.7599 -1.4342 -0.4251
27216SOL     OW83801   9.084   4.156   8.977  0.4210  0.0968 -0.0527
27216SOL    HW183802   9.129   4.172   8.894  0.7540  0.5461  0.2151
27216SOL    HW283803   9.085   4.240   9.022 -1.3013  0.3003 -0.3375
27217SOL     OW83804   5.282   3.338   8.897 -0.1028  0.1404  0.2312
27217SOL    HW183805   5.208   3.283   8.869 -1.2955  0.8096  1.8708
27217SOL    HW283806   5.271   3.346   8.992  1.8465  0.6420  0.4544
27218SOL     OW83807   5.999   1.878   4.371 -0.0472  0.0806 -0.3111
27218SOL    HW183808   5.997   1.927   4.289  2.2174 -0.3183 -0.6881
27218SOL    HW283809   6.028   1.942   4.436  0.0147 -0.0568 -0.2041
27219SOL     OW83810   8.873   6.208   2.669 -0.3305 -0.0096  0.2257
27219SOL    HW183811   8.910   6.126   2.638  0.3535  0.3294  0.1302
27219SOL    HW283812   8.798   6.182   2.722  0.6580 -0.7657  1.3025
27220SOL     OW83813   8.888   0.734   0.322 -0.0421 -0.3428  0.0737
27220SOL    HW183814   8.930   0.728   0.236 -0.9307  0.9395 -0.4704
27220SOL    HW283815   8.961   0.729   0.384  0.7169 -0.1779 -0.7775
27221SOL     OW83816   9.282   5.051   2.450  0.0559 -0.0514 -0.0183
27221SOL    HW183817   9.251   4.960   2.450 -0.2724  0.0398 -1.2836
27221SOL    HW283818   9.285   5.076   2.543  1.9496 -1.9261  0.4931
27222SOL     OW83819   5.538   7.164   0.974 -0.2467  0.2046 -0.4897
27222SOL    HW183820   5.459   7.113   0.994  0.4113 -0.9275 -0.7211
27222SOL    HW283821   5.610   7.115   1.014  0.6273 -0.0599 -2.2914
27223SOL     OW83822   4.733   0.647   6.001  0.1400 -0.7737  0.1902
27223SOL    HW183823   4.707   0.716   5.940 -0.8887 -1.8090 -0.5948
27223SOL    HW283824   4.730   0.567   5.949 -0.3674 -1.6374  1.4952
27224SOL     OW83825   6.086   2.811   6.389  0.1219 -0.0313  0.1878
27224SOL    HW183826   6.097   2.856   6.473  0.1196 -0.3161  0.3439
27224SOL    HW283827   6.103   2.719   6.410 -1.3639 -0.3322  0.2002
27225SOL     OW83828   1.174   3.540   7.087 -0.1717  0.2398 -0.7870
27225SOL    HW183829   1.174   3.633   7.066 -2.3760  0.6599  0.7143
27225SOL    HW283830   1.127   3.498   7.015 -0.5626  0.5386 -0.7114
27226SOL     OW83831   2.525   1.497   6.245  0.2742  0.4164  0.2461
27226SOL    HW183832   2.532   1.592   6.243  0.0625  0.4253 -0.0222
27226SOL    HW283833   2.450   1.479   6.301  0.2071  0.4114  0.1544
27227SOL     OW83834   8.131   0.406   3.088  0.3867 -0.5005 -0.5326
27227SOL    HW183835   8.181   0.327   3.067 -0.8625 -1.2772 -0.7417
27227SOL    HW283836   8.132   0.458   3.008  0.9952 -0.4302 -0.4802
27228SOL     OW83837   4.707   7.087   4.261 -0.0872  0.7455 -0.9446
27228SOL    HW183838   4.788   7.136   4.249  0.7575 -0.6615 -1.0905
27228SOL    HW283839   4.700   7.075   4.356 -0.9010  2.0877 -0.7985
27229SOL     OW83840   4.525   8.213   4.938  0.2572  0.3966  0.1384
27229SOL    HW183841   4.475   8.212   4.857  2.1636  0.6072 -1.1091
27229SOL    HW283842   4.479   8.152   4.996 -1.1306  0.2317 -1.0852
27230SOL     OW83843   0.262   8.758   6.898  0.2672  0.0871 -0.1902
27230SOL    HW183844   0.187   8.741   6.954 -0.3196  0.8189 -0.7269
27230SOL    HW283845   0.332   8.704   6.934  0.0284  0.8630  1.5181
27231SOL     OW83846   6.377   5.083   2.998  0.0932 -0.3551 -0.2177
27231SOL    HW183847   6.425   5.165   3.008  0.0656 -0.1749 -1.3954
27231SOL    HW283848   6.443   5.015   3.008  0.5078 -0.1261 -1.3062
27232SOL     OW83849   6.228   6.177   4.443 -0.1982 -0.2634  0.2168
27232SOL    HW183850   6.173   6.099   4.440 -0.2683 -0.4313  2.8932
27232SOL    HW283851   6.318   6.144   4.440 -0.2354 -0.3335 -0.1009
27233SOL     OW83852   1.474   6.018   4.839  0.0605  0.5560 -0.6297
27233SOL    HW183853   1.443   6.108   4.854  0.3643  0.3447  1.7860
27233SOL    HW283854   1.413   5.982   4.776 -1.5061  1.7702  0.1052
27234SOL     OW83855   7.009   4.649   1.038  0.1573  0.3084 -0.7590
27234SOL    HW183856   6.939   4.621   1.096 -0.3729 -0.3436 -1.6855
27234SOL    HW283857   7.087   4.605   1.072 -0.0523  0.3295 -0.2441
27235SOL     OW83858   6.663   3.124   8.445 -0.0267 -0.4494  0.0411
27235SOL    HW183859   6.752   3.146   8.419  0.5231  0.6351  2.5362
27235SOL    HW283860   6.673   3.046   8.499 -0.5918 -0.3258  0.3285
27236SOL     OW83861   0.688   0.824   5.641  0.2637  0.5378 -0.5758
27236SOL    HW183862   0.609   0.782   5.607  0.1208 -1.1387  1.6186
27236SOL    HW283863   0.680   0.916   5.615 -1.1553 -0.0860 -2.5146
27237SOL     OW83864   4.337   3.524   6.249 -0.4323 -0.3936 -0.0434
27237SOL    HW183865   4.330   3.435   6.217  0.1336 -0.1809 -0.7848
27237SOL    HW283866   4.390   3.570   6.183  0.3200  0.1842  0.9220
27238SOL     OW83867   6.732   2.550   1.023  0.4718  0.2958  0.6252
27238SOL    HW183868   6.824   2.560   0.998  0.4832  0.6167  0.7817
27238SOL    HW283869   6.722   2.458   1.046  0.4400 -0.0300 -0.6431
27239SOL     OW83870   8.920   1.873   7.398  0.2632  0.1107 -0.1240
27239SOL    HW183871   9.009   1.904   7.386  0.3485 -0.2970 -0.5674
27239SOL    HW283872   8.905   1.877   7.493  0.0139  2.2083 -0.1864
27240SOL     OW83873   0.857   9.041   6.081  0.0180  0.5615  0.0354
27240SOL    HW183874   0.817   9.126   6.097  0.0492  0.2873  1.7871
27240SOL    HW283875   0.851   8.995   6.165  1.2468 -0.6387 -0.4895
27241SOL     OW83876   3.820   4.874   2.663 -0.6878 -0.3817 -0.6847
27241SOL    HW183877   3.778   4.856   2.579 -0.0958 -0.5944 -0.9388
27241SOL    HW283878   3.848   4.965   2.656 -0.7105 -0.3748 -0.6853
27242SOL     OW83879   3.616   6.467   9.412  0.2585  0.4046 -0.4420
27242SOL    HW183880   3.673   6.410   9.361  2.2376  1.7953  0.1310
27242SOL    HW283881   3.630   6.441   9.503 -0.8407  0.0601 -0.3574
27243SOL     OW83882   7.520   8.160   4.167 -0.2989 -0.1099  0.2405
27243SOL    HW183883   7.580   8.153   4.092 -1.5274  0.9368 -0.9030
27243SOL    HW283884   7.435   8.132   4.133 -0.4876 -1.7086  1.8712
27244SOL     OW83885   8.476   1.048   5.201 -0.1976 -0.0136 -0.6496
27244SOL    HW183886   8.482   1.116   5.268 -0.8676 -1.0894  0.5456
27244SOL    HW283887   8.408   1.078   5.141 -1.2691 -0.1011  0.4752
27245SOL     OW83888   1.410   3.815   1.235  0.0278  0.9719 -0.2473
27245SOL    HW183889   1.355   3.849   1.165 -0.0616 -2.5798 -2.1199
27245SOL    HW283890   1.497   3.805   1.196 -0.1497 -1.5987 -0.1664
27246SOL     OW83891   2.010   7.796   3.341  0.5829 -0.0383 -0.4777
27246SOL    HW183892   2.022   7.796   3.436 -2.4917 -1.5481  0.0428
27246SOL    HW283893   1.955   7.872   3.324 -1.0061 -1.1537 -0.5973
27247SOL     OW83894   2.006   8.728   0.148  0.3054 -0.7313 -0.2702
27247SOL    HW183895   1.991   8.789   0.075 -0.7014  0.3015  0.7643
27247SOL    HW283896   1.923   8.682   0.158 -0.0437  0.1248  1.0809
27248SOL     OW83897   5.884   3.032   2.605  0.3706  0.0118 -0.4053
27248SOL    HW183898   5.947   3.023   2.534 -1.3365 -1.0463 -1.8830
27248SOL    HW283899   5.906   2.961   2.666  1.2310  0.2970 -0.3770
27249SOL     OW83900   7.529   1.797   0.803  0.0945 -0.0938  0.3059
27249SOL    HW183901   7.621   1.770   0.800  0.3631  0.5361  2.0382
27249SOL    HW283902   7.512   1.816   0.895 -2.2217 -1.6726  0.3003
27250SOL     OW83903   9.086   6.117   8.899  0.2055  0.7506  0.4043
27250SOL    HW183904   9.069   6.212   8.905  0.0036  0.6404  2.1687
27250SOL    HW283905   9.180   6.110   8.889  0.0178  1.1738 -2.5450
27251SOL     OW83906   6.536   6.526   7.356 -0.4649 -0.3520  0.2873
27251SOL    HW183907   6.580   6.498   7.436 -1.2329 -0.8388  0.5460
27251SOL    HW283908   6.449   6.554   7.384 -0.6174 -0.1898 -0.3247
27252SOL     OW83909   5.505   5.201   5.114 -0.0375 -0.2283 -0.6272
27252SOL    HW183910   5.464   5.248   5.187 -0.6617 -0.0555 -1.0779
27252SOL    HW283911   5.560   5.267   5.072 -1.6258  0.4126 -1.8212
27253SOL     OW83912   4.450   1.487   6.504  0.3804 -0.1238 -0.4140
27253SOL    HW183913   4.436   1.576   6.470 -2.3070  0.6280  2.1679
27253SOL    HW283914   4.535   1.491   6.548  0.6172  0.9601 -0.9416
27254SOL     OW83915   7.450   4.477   5.410 -0.0724 -0.7375 -0.0676
27254SOL    HW183916   7.379   4.528   5.371  0.7107  0.7851  0.4062
27254SOL    HW283917   7.417   4.387   5.412 -1.4473 -0.2885 -1.0786
27255SOL     OW83918   8.388   2.786   8.458 -0.3363  0.6036  0.0349
27255SOL    HW183919   8.309   2.736   8.436 -0.0450  0.3808 -0.5134
27255SOL    HW283920   8.410   2.833   8.378  1.1862 -0.8370 -0.4477
27256SOL     OW83921   5.985   1.388   9.081  0.4441  0.4286  0.0518
27256SOL    HW183922   6.032   1.316   9.038 -0.3819  0.3221 -0.7013
27256SOL    HW283923   5.936   1.347   9.151 -0.4897  0.1514 -0.7468
27257SOL     OW83924   5.711   0.538   0.144  0.3545  0.0929 -0.3288
27257SOL    HW183925   5.715   0.464   0.083 -0.1072  0.0353 -0.2908
27257SOL    HW283926   5.625   0.577   0.129 -1.3909 -2.1208  2.8184
27258SOL     OW83927   0.035   1.014   3.591 -0.1696  0.2858 -0.3170
27258SOL    HW183928   0.013   1.092   3.540  0.1116  0.0106 -0.8796
27258SOL    HW283929   0.088   0.961   3.531 -0.3321 -0.3207  0.0661
27259SOL     OW83930   1.214   6.566   2.625  0.5563 -0.6442 -0.3035
27259SOL    HW183931   1.273   6.615   2.568  0.8120 -1.8152 -1.0983
27259SOL    HW283932   1.234   6.474   2.605  1.3394 -1.1313  2.3624
27260SOL     OW83933   4.412   2.576   1.607  0.0078 -0.3221 -0.1945
27260SOL    HW183934   4.343   2.626   1.566  0.4489 -0.2219 -0.8312
27260SOL    HW283935   4.371   2.493   1.630 -0.3171 -0.2811 -0.6102
27261SOL     OW83936   2.027   5.845   2.415 -0.0043 -0.5976  0.1951
27261SOL    HW183937   2.074   5.804   2.342 -0.4027  1.9156 -1.6341
27261SOL    HW283938   1.939   5.809   2.410  0.1846 -1.0330 -0.0703
27262SOL     OW83939   4.678   7.020   3.811  0.3656 -0.1391 -0.3736
27262SOL    HW183940   4.626   7.071   3.748 -1.0333 -1.4200 -0.3021
27262SOL    HW283941   4.641   6.932   3.807 -0.4258 -0.0869  2.9073
27263SOL     OW83942   6.913   7.248   5.813 -0.7908 -0.8076 -0.3500
27263SOL    HW183943   6.965   7.243   5.732  1.9338  0.5047  1.1732
27263SOL    HW283944   6.907   7.342   5.831 -0.4247 -1.1006  1.4835
27264SOL     OW83945   4.847   8.809   9.267 -0.4537  0.0286  0.4001
27264SOL    HW183946   4.898   8.865   9.208  0.4530 -1.4081 -0.2168
27264SOL    HW283947   4.802   8.871   9.325  0.5247  1.3947 -0.2412
27265SOL     OW83948   4.375   6.845   7.645  0.0338 -0.3120 -0.2545
27265SOL    HW183949   4.359   6.908   7.576  1.0165 -0.4263 -0.6008
27265SOL    HW283950   4.468   6.823   7.637  0.4648  0.5504  1.8317
27266SOL     OW83951   6.238   5.992   2.951 -0.6082  0.6164 -0.0045
27266SOL    HW183952   6.277   5.909   2.924 -3.6394 -0.5697 -1.1083
27266SOL    HW283953   6.200   5.973   3.037 -0.4901  1.1846  0.1759
27267SOL     OW83954   8.402   1.297   8.463  0.6431  0.0678 -0.0924
27267SOL    HW183955   8.362   1.332   8.542 -0.5022  0.9886 -1.0535
27267SOL    HW283956   8.400   1.369   8.400 -2.8389 -1.8729 -2.5239
27268SOL     OW83957   5.686   4.242   9.540  0.6687 -0.8439 -0.2422
27268SOL    HW183958   5.737   4.292   9.604 -1.8397 -0.8738  1.9433
27268SOL    HW283959   5.724   4.154   9.543  0.0442 -1.0941  1.9843
27269SOL     OW83960   3.332   7.096   0.888  0.2850 -0.1337 -0.1215
27269SOL    HW183961   3.345   7.124   0.979  2.4253  0.2598 -0.4812
27269SOL    HW283962   3.317   7.177   0.840 -1.2429 -0.3780 -0.0830
27270SOL     OW83963   8.639   9.498   3.438 -0.0449  0.0823 -0.8229
27270SOL    HW183964   8.643   9.519   3.531 -0.0629 -0.0185 -0.7991
27270SOL    HW283965   8.685   9.415   3.431  0.1288  0.1872 -0.9340
27271SOL     OW83966   0.023   6.392   0.193  0.7330 -0.5756 -0.1613
27271SOL    HW183967   0.041   6.440   0.113  0.5508 -1.5924 -0.8263
27271SOL    HW283968   0.106   6.347   0.213  1.5019  1.3900  1.4795
27272SOL     OW83969   2.751   8.470   9.581  0.5686  0.1733 -0.6283
27272SOL    HW183970   2.807   8.548   9.588  0.0567  0.7090 -2.1260
27272SOL    HW283971   2.663   8.504   9.598  0.4444 -0.2499 -0.4351
27273SOL     OW83972   3.223   0.047   1.585 -0.3037  0.7314  0.4234
27273SOL    HW183973   3.268  -0.025   1.628 -0.3330  1.4124  1.6548
27273SOL    HW283974   3.292   0.111   1.566 -0.4560  0.9363  0.5426
27274SOL     OW83975   5.923   2.405   0.396  0.0219  0.5166 -0.2916
27274SOL    HW183976   5.863   2.480   0.391 -0.8542 -0.2465 -2.3658
27274SOL    HW283977   5.936   2.379   0.305  0.0211 -2.0613  0.3810
27275SOL     OW83978   0.308   7.946   2.780  0.3165  0.0220 -0.0966
27275SOL    HW183979   0.389   7.995   2.792 -0.4840  1.1535  0.9002
27275SOL    HW283980   0.309   7.921   2.688  2.5424 -1.3972  0.2258
27276SOL     OW83981   7.304   3.343   5.850 -0.2837  0.0182 -0.4657
27276SOL    HW183982   7.327   3.343   5.757 -3.2048  1.7905 -1.3434
27276SOL    HW283983   7.350   3.418   5.886  0.8696 -0.6806 -0.4375
27277SOL     OW83984   7.559   3.464   5.114  0.2681  0.4300  0.0593
27277SOL    HW183985   7.621   3.422   5.055 -0.5662  1.6429 -1.8029
27277SOL    HW283986   7.588   3.556   5.118 -0.4870  0.6622  0.4464
27278SOL     OW83987   3.288   7.265   7.085 -0.4663  0.4935  0.5848
27278SOL    HW183988   3.357   7.208   7.119  0.2391  1.2666  0.4860
27278SOL    HW283989   3.328   7.352   7.082 -1.7947  1.1736  1.5711
27279SOL     OW83990   8.598   2.830   0.783  1.0768  0.0463 -0.5316
27279SOL    HW183991   8.667   2.866   0.839  0.9419  0.1809 -0.4535
27279SOL    HW283992   8.540   2.784   0.843  0.6560  0.6171 -0.4947
27280SOL     OW83993   5.905   8.705   0.953 -0.2175 -0.0289 -0.4745
27280SOL    HW183994   5.875   8.771   0.890  0.3914  1.5769  0.8456
27280SOL    HW283995   5.847   8.714   1.028 -0.0523 -0.9381 -0.2170
27281SOL     OW83996   6.357   4.983   6.555 -0.1612 -0.5833  0.1675
27281SOL    HW183997   6.342   5.039   6.632  1.9397 -0.3425  0.4574
27281SOL    HW283998   6.304   5.022   6.486 -0.1372  0.7051  0.8438
27282SOL     OW83999   7.496   1.374   7.208 -0.3319  0.1952 -0.1063
27282SOL    HW184000   7.445   1.331   7.277 -0.9315  1.0875  0.0242
27282SOL    HW284001   7.553   1.435   7.254 -0.0573  0.1149 -0.3378
27283SOL     OW84002   2.368   4.842   2.198  0.0433 -0.3563  0.2773
27283SOL    HW184003   2.421   4.776   2.154 -0.2485  0.4581 -1.3693
27283SOL    HW284004   2.428   4.914   2.216 -0.3212  0.2983 -1.0019
27284SOL     OW84005   3.221   8.458   0.990 -0.3895  0.4728  0.1200
27284SOL    HW184006   3.254   8.455   0.900  1.5610 -0.2837  0.7966
27284SOL    HW284007   3.150   8.393   0.991 -0.6838  0.7499 -0.9352
27285SOL     OW84008   2.770   0.705   1.054 -0.1708  0.1376  0.2410
27285SOL    HW184009   2.822   0.784   1.067 -0.4088  0.4910 -0.8368
27285SOL    HW284010   2.790   0.650   1.130  0.5083  0.9495  0.6646
27286SOL     OW84011   1.417   5.498   6.720 -0.6149  0.0208  0.3998
27286SOL    HW184012   1.393   5.580   6.762 -0.0722 -1.1495  3.2167
27286SOL    HW284013   1.391   5.430   6.781 -0.1952 -1.8964 -1.4067
27287SOL     OW84014   4.502   6.185   2.989 -0.2370  0.0963 -0.3792
27287SOL    HW184015   4.480   6.231   2.909 -0.1541  2.4321  0.8582
27287SOL    HW284016   4.581   6.135   2.967 -1.4503 -1.1043 -2.3051
27288SOL     OW84017   5.186   7.025   8.716 -0.4193 -0.7204 -0.0749
27288SOL    HW184018   5.218   7.098   8.665 -2.1854  0.7794  0.8487
27288SOL    HW284019   5.115   6.987   8.663  0.5239 -1.8599 -0.5791
27289SOL     OW84020   1.395   6.879   7.110  0.0100 -0.1275 -0.1199
27289SOL    HW184021   1.361   6.801   7.155 -1.3687 -0.1962 -1.1921
27289SOL    HW284022   1.376   6.951   7.170 -1.4493 -0.2656 -0.3774
27290SOL     OW84023   9.049   7.430   3.370 -0.2144 -0.4182  0.4236
27290SOL    HW184024   9.014   7.438   3.282 -0.7758  0.9397  0.7503
27290SOL    HW284025   9.005   7.498   3.420  1.9502  0.5305  1.1637
27291SOL     OW84026   0.002   5.870   7.941 -0.0254  0.0219 -0.5374
27291SOL    HW184027  -0.043   5.803   7.991 -0.0334  1.6474  1.7832
27291SOL    HW284028  -0.061   5.897   7.874 -0.1912 -1.8702 -1.1858
27292SOL     OW84029   8.531   9.516   5.235 -0.6096  0.6971  0.1684
27292SOL    HW184030   8.533   9.558   5.149 -0.2160  0.4577  0.0561
27292SOL    HW284031   8.524   9.422   5.216 -1.9627  0.7244  0.4249
27293SOL     OW84032   5.137   0.420   8.068 -0.1327 -0.4694 -0.2766
27293SOL    HW184033   5.048   0.401   8.037  0.0330 -1.5375 -0.1448
27293SOL    HW284034   5.124   0.460   8.154 -0.5301  0.9600 -0.9722
27294SOL     OW84035   5.296   3.290   7.311  0.0138 -0.3430 -0.8483
27294SOL    HW184036   5.263   3.303   7.222  0.7487  0.1186 -1.0665
27294SOL    HW284037   5.242   3.347   7.365 -0.1335 -0.2660 -1.0730
27295SOL     OW84038   2.998   2.582   6.497  0.1248 -0.6552 -0.0276
27295SOL    HW184039   3.088   2.583   6.464  0.1757 -0.1257  0.1102
27295SOL    HW284040   2.964   2.669   6.474  0.1497 -0.2896  1.2657
27296SOL     OW84041   7.556   5.995   9.413 -0.0877  0.1217  0.0073
27296SOL    HW184042   7.581   5.910   9.376 -0.4300 -0.3162  0.7473
27296SOL    HW284043   7.460   5.990   9.421  0.0083  0.0517  1.2835
27297SOL     OW84044   6.617   2.039   7.295 -0.4219  0.7257  1.1627
27297SOL    HW184045   6.701   2.072   7.326  1.6367 -1.5328 -1.4520
27297SOL    HW284046   6.602   1.959   7.346 -0.7114  0.8275  1.2395
27298SOL     OW84047   0.679   2.938   8.466 -0.0142 -0.3721 -0.2817
27298SOL    HW184048   0.758   2.981   8.433  0.1247 -0.5627 -0.2013
27298SOL    HW284049   0.663   2.867   8.404 -2.3301  1.9192 -2.5635
27299SOL     OW84050   7.075   5.132   8.634  0.3631 -0.0911 -0.1615
27299SOL    HW184051   7.073   5.040   8.606 -0.4228  0.0403 -0.5562
27299SOL    HW284052   6.983   5.159   8.633  0.3632  0.1635  1.7398
27300SOL     OW84053   3.835   7.140   3.313 -0.2204 -0.3196  0.2657
27300SOL    HW184054   3.765   7.205   3.324  0.3017  0.0615  1.5480
27300SOL    HW284055   3.879   7.139   3.397 -0.0973 -2.2344  0.2033
27301SOL     OW84056   7.679   1.466   4.259  0.6212  0.3757 -0.2593
27301SOL    HW184057   7.683   1.561   4.261  1.1020  0.3623 -0.5583
27301SOL    HW284058   7.639   1.445   4.174  2.5885  0.2603 -1.2087
27302SOL     OW84059   0.236   4.401   1.767  0.0471 -0.1034 -0.3785
27302SOL    HW184060   0.239   4.492   1.737 -2.1221  0.0449 -0.2959
27302SOL    HW284061   0.218   4.350   1.689  0.6861 -0.4173 -0.3278
27303SOL     OW84062   6.183   1.667   7.926 -0.5722 -0.8634 -0.5327
27303SOL    HW184063   6.251   1.674   7.994  0.2394 -0.6432 -1.3442
27303SOL    HW284064   6.211   1.593   7.872 -1.1941 -1.0112 -0.6599
27304SOL     OW84065   4.099   3.785   0.401  0.4239 -0.1038  0.1838
27304SOL    HW184066   4.079   3.692   0.390  1.2372 -0.3608  0.7701
27304SOL    HW284067   4.016   3.830   0.386 -0.4322 -1.0772  1.7954
27305SOL     OW84068   9.331   7.772   7.575  0.0827 -0.2143 -0.0016
27305SOL    HW184069   9.407   7.714   7.588  0.1742  0.2707  1.8878
27305SOL    HW284070   9.262   7.734   7.630 -0.5289  0.2798 -0.4114
27306SOL     OW84071   6.421   7.112   6.045 -0.8956  0.1661 -0.5088
27306SOL    HW184072   6.435   7.163   5.966 -2.5839 -1.3619 -1.8924
27306SOL    HW284073   6.442   7.022   6.021  0.2719 -0.1123  1.3312
27307SOL     OW84074   7.647   2.256   1.539 -0.3445  0.1077  0.1109
27307SOL    HW184075   7.626   2.344   1.506 -1.7061 -0.2073  0.0799
27307SOL    HW284076   7.659   2.269   1.633 -1.9836  0.1288  0.3512
27308SOL     OW84077   2.904   6.548   7.699 -0.2878 -0.3053  0.5929
27308SOL    HW184078   2.953   6.627   7.679  1.0858 -1.1266  0.5723
27308SOL    HW284079   2.858   6.526   7.618  0.1054 -0.0677  0.3054
27309SOL     OW84080   4.947   4.773   3.748  0.2741 -0.0758 -0.3393
27309SOL    HW184081   4.911   4.771   3.836 -0.1761  0.9701 -0.4834
27309SOL    HW284082   5.029   4.822   3.757 -0.1748  0.7494 -0.6262
27310SOL     OW84083   3.484   5.923   1.951  1.3188 -0.5844  0.1744
27310SOL    HW184084   3.541   5.890   1.881  1.2410  0.5289 -0.4203
27310SOL    HW284085   3.396   5.895   1.925  0.7138  2.9504 -2.2004
27311SOL     OW84086   0.358   4.080   5.201  0.1593  0.1975  0.1202
27311SOL    HW184087   0.275   4.106   5.162  1.1716  0.2438 -2.1879
27311SOL    HW284088   0.421   4.086   5.129  1.7068 -2.1570  1.1573
27312SOL     OW84089   0.264   6.380   4.065 -0.2595 -0.1361  0.2395
27312SOL    HW184090   0.351   6.354   4.034 -0.6808 -1.7530  0.2959
27312SOL    HW284091   0.204   6.337   4.005 -1.0445 -1.0324  1.6229
27313SOL     OW84092   1.886   4.277   8.335 -0.0971  0.4292  0.5165
27313SOL    HW184093   1.820   4.208   8.345 -1.1615  1.3211 -0.0021
27313SOL    HW284094   1.930   4.281   8.419  1.5874 -2.4016 -0.0941
27314SOL     OW84095   5.978   2.815   3.684  0.5349  0.0551 -0.2539
27314SOL    HW184096   6.059   2.788   3.729 -0.0274 -0.2203  0.6069
27314SOL    HW284097   5.908   2.775   3.735 -0.2746  2.0847  0.3189
27315SOL     OW84098   9.457   8.872   1.032  0.0769 -0.2438 -0.1812
27315SOL    HW184099   9.516   8.816   1.082 -0.7314 -0.6122  0.3813
27315SOL    HW284100   9.373   8.866   1.078 -0.2049  0.8763 -0.5191
27316SOL     OW84101   2.665   5.336   2.423 -0.3300 -0.2130 -0.5983
27316SOL    HW184102   2.657   5.392   2.346  4.0641 -0.5258 -1.5251
27316SOL    HW284103   2.717   5.386   2.484 -0.4453 -1.4772  0.5928
27317SOL     OW84104   2.227   4.559   7.923 -0.5646 -0.8191  0.5005
27317SOL    HW184105   2.199   4.548   7.831 -0.6491  0.5015  0.3488
27317SOL    HW284106   2.288   4.633   7.921 -1.3052 -0.1470  1.6460
27318SOL     OW84107   3.285   0.309   7.482  0.6028 -0.0868 -0.3993
27318SOL    HW184108   3.257   0.280   7.395  1.2472  0.4667 -0.8038
27318SOL    HW284109   3.295   0.229   7.532 -0.9780 -0.3446 -0.4517
27319SOL     OW84110   7.818   1.711   8.209 -0.1291  0.0173 -0.5159
27319SOL    HW184111   7.830   1.673   8.122 -0.8614  1.8705 -1.4792
27319SOL    HW284112   7.890   1.674   8.262  2.3663  1.3508 -2.7651
27320SOL     OW84113   2.814   2.282   9.600 -0.2529 -0.1053 -0.4188
27320SOL    HW184114   2.817   2.200   9.550 -3.8249  0.9613 -2.7672
27320SOL    HW284115   2.781   2.256   9.686  1.5076 -1.4082 -0.0746
27321SOL     OW84116   7.058   8.843   1.121  0.3726 -0.2138  0.6398
27321SOL    HW184117   7.024   8.917   1.071  2.7276  0.7225  0.2922
27321SOL    HW284118   7.083   8.779   1.055  0.7949 -0.1939  0.7781
27322SOL     OW84119   8.171   3.763   2.495  0.7414  0.4201 -0.3657
27322SOL    HW184120   8.170   3.853   2.528 -3.3959  0.0387  1.2099
27322SOL    HW284121   8.195   3.709   2.571  3.1254  0.0482 -1.2789
27323SOL     OW84122   5.910   4.989   4.018 -0.0611 -0.3136  0.4692
27323SOL    HW184123   5.874   4.906   3.985  0.3235  0.1597 -1.2287
27323SOL    HW284124   5.910   5.047   3.942 -0.0619  1.1725  1.5682
27324SOL     OW84125   4.796   4.545   2.867  0.1890  0.2366 -0.2409
27324SOL    HW184126   4.888   4.528   2.887  0.2972 -0.2794 -1.1353
27324SOL    HW284127   4.771   4.476   2.806 -0.3938  1.1744 -1.1022
27325SOL     OW84128   7.693   2.994   8.521 -0.1915 -0.1903 -0.4932
27325SOL    HW184129   7.737   3.078   8.505  0.7922 -0.4865  0.5382
27325SOL    HW284130   7.637   3.012   8.597  0.3980 -0.5885  0.0410
27326SOL     OW84131   7.404   8.763   0.854 -0.1742  0.3073 -0.5240
27326SOL    HW184132   7.372   8.853   0.861 -1.3578 -0.1815  1.1798
27326SOL    HW284133   7.475   8.767   0.791 -0.6237  2.3170 -0.9642
27327SOL     OW84134   0.276   9.325   5.181 -0.0183  0.4750  0.0660
27327SOL    HW184135   0.204   9.277   5.140 -2.0150  2.1758  1.4098
27327SOL    HW284136   0.283   9.286   5.268  1.3746 -0.3048 -0.3672
27328SOL     OW84137   6.065   5.736   4.849 -0.0821  0.1908  0.6144
27328SOL    HW184138   6.075   5.672   4.779  2.4319  0.6069  0.4972
27328SOL    HW284139   6.026   5.687   4.921  0.3432 -1.0758  0.0105
27329SOL     OW84140   5.645   3.025   4.498  0.0870  0.4968  0.1646
27329SOL    HW184141   5.684   3.098   4.450  2.4787 -0.0695  1.1180
27329SOL    HW284142   5.645   2.952   4.436  0.1919  0.5972  0.0483
27330SOL     OW84143   1.439   7.576   5.311  0.0266 -0.4780 -0.4197
27330SOL    HW184144   1.380   7.516   5.357 -1.7189  0.9954 -0.6150
27330SOL    HW284145   1.439   7.655   5.365 -0.4197  0.5473 -1.8703
27331SOL     OW84146   5.368   8.008   0.200  0.0007 -0.0409 -0.1449
27331SOL    HW184147   5.399   7.920   0.180 -0.3419 -0.0716 -0.5720
27331SOL    HW284148   5.447   8.063   0.199  0.3600 -0.4970  1.1218
27332SOL     OW84149   2.471   7.134   8.838 -0.7783  0.6665 -0.0526
27332SOL    HW184150   2.560   7.171   8.838 -0.4896  0.0789  1.9026
27332SOL    HW284151   2.431   7.168   8.758  1.0749  1.2563 -0.7872
27333SOL     OW84152   4.197   4.389   3.411  0.5899 -0.2066 -0.1301
27333SOL    HW184153   4.139   4.462   3.430  0.7288 -0.7339  2.7402
27333SOL    HW284154   4.146   4.333   3.352 -0.7936  0.5872  0.2670
27334SOL     OW84155   2.104   1.143   3.102 -0.6391 -0.3783  0.4374
27334SOL    HW184156   2.084   1.053   3.128 -2.0137 -0.5191 -0.9463
27334SOL    HW284157   2.036   1.195   3.145 -1.1461 -0.2794 -0.4565
27335SOL     OW84158   3.257   5.682   9.106 -0.2215 -0.1582 -0.6517
27335SOL    HW184159   3.167   5.696   9.134 -0.5106  1.6557 -2.3244
27335SOL    HW284160   3.274   5.751   9.042  2.2268 -0.7136 -0.6967
27336SOL     OW84161   3.200   2.511   1.627  0.1174  0.0505  0.9307
27336SOL    HW184162   3.118   2.561   1.633 -1.1272 -1.8528  0.8520
27336SOL    HW284163   3.187   2.438   1.687  0.8014 -1.5308 -0.7397
27337SOL     OW84164   8.105   1.371   4.917 -0.2511  0.6534  0.4240
27337SOL    HW184165   8.174   1.368   4.983 -0.0249  0.0085  0.1692
27337SOL    HW284166   8.150   1.395   4.836 -0.5366  1.5003  0.4986
27338SOL     OW84167   0.163   7.374   2.037  0.4091  0.2689  0.3528
27338SOL    HW184168   0.189   7.352   2.126  1.1709  0.5625  0.2110
27338SOL    HW284169   0.243   7.408   1.996  0.5209 -1.4062 -0.9402
27339SOL     OW84170   0.824   9.593   2.079 -0.5022  0.1147  0.2950
27339SOL    HW184171   0.832   9.547   1.996 -0.6022 -0.7964  0.7808
27339SOL    HW284172   0.891   9.554   2.135 -0.4413  0.7142  0.6486
27340SOL     OW84173   5.315   5.869   5.441  0.4707  0.0365  0.2520
27340SOL    HW184174   5.357   5.786   5.421  1.9794  0.8219  0.0235
27340SOL    HW284175   5.387   5.927   5.468  0.1319  2.4322 -3.2430
27341SOL     OW84176   4.591   3.031   1.227  0.6508  0.1293 -0.1238
27341SOL    HW184177   4.558   3.118   1.205  0.5645  0.3775  0.9040
27341SOL    HW284178   4.678   3.047   1.262  1.1261 -0.3337 -1.0666
27342SOL     OW84179   5.839   1.072   4.682  0.2571 -0.2555 -0.0742
27342SOL    HW184180   5.828   1.108   4.770  2.0283  0.3613 -0.0634
27342SOL    HW284181   5.818   1.143   4.623 -2.6898 -1.1726 -0.2611
27343SOL     OW84182   9.320   3.268   9.122 -0.1200 -0.3156 -0.1021
27343SOL    HW184183   9.343   3.357   9.094 -2.2301  0.1234 -0.6965
27343SOL    HW284184   9.238   3.280   9.170  0.5728 -1.7461  1.5304
27344SOL     OW84185   4.989   8.032   0.581 -0.1163 -0.0291 -0.3023
27344SOL    HW184186   5.065   8.000   0.532 -0.2720 -1.6125  0.4118
27344SOL    HW284187   4.932   8.069   0.513  1.2963  1.2590 -0.8330
27345SOL     OW84188   4.286   0.604   2.010 -0.0221 -0.2945  0.8350
27345SOL    HW184189   4.197   0.628   1.985 -0.1676 -2.3678 -0.8943
27345SOL    HW284190   4.342   0.656   1.953 -0.1809 -0.4815  0.5099
27346SOL     OW84191   3.972   2.578   9.497 -0.7004 -0.3244  0.4012
27346SOL    HW184192   3.997   2.644   9.562 -1.7490 -0.1030  0.5871
27346SOL    HW284193   3.999   2.495   9.536 -0.0701 -0.0770  0.5059
27347SOL     OW84194   7.740   9.614   4.122  0.1279 -0.1936  0.0532
27347SOL    HW184195   7.701   9.629   4.208  1.0219 -1.3263  0.6859
27347SOL    HW284196   7.753   9.702   4.086 -0.3540  0.2938  1.0287
27348SOL     OW84197   4.136   7.463   8.231 -0.3598  0.4542 -0.1715
27348SOL    HW184198   4.141   7.466   8.326 -0.8211  0.4239 -0.1411
27348SOL    HW284199   4.177   7.380   8.207 -1.2219 -0.0621  0.0871
27349SOL     OW84200   8.640   1.591   5.805 -0.4359  0.2912 -0.0805
27349SOL    HW184201   8.714   1.565   5.751 -0.2703  0.3756  0.1083
27349SOL    HW284202   8.569   1.533   5.777 -0.4314  0.5235 -0.5972
27350SOL     OW84203   1.353   4.304   8.717  0.2955 -0.0105  0.4112
27350SOL    HW184204   1.391   4.371   8.660  0.4069  0.7752  1.3880
27350SOL    HW284205   1.407   4.306   8.796 -0.6778 -0.1233  1.1003
27351SOL     OW84206   6.215   4.850   2.903  0.0678 -0.1158 -0.0815
27351SOL    HW184207   6.270   4.921   2.868 -0.5808  0.1520 -0.5857
27351SOL    HW284208   6.215   4.784   2.834  0.9384 -0.7730  0.5224
27352SOL     OW84209   9.390   2.675   8.022  0.1408 -0.0323 -0.0336
27352SOL    HW184210   9.378   2.616   7.948 -1.1601  0.2167 -0.0574
27352SOL    HW284211   9.340   2.753   7.998 -0.2883  0.0564  1.0970
27353SOL     OW84212   2.806   4.939   8.502  0.3436  0.2683 -0.2301
27353SOL    HW184213   2.813   5.002   8.574 -3.5989  0.5322  0.1274
27353SOL    HW284214   2.836   4.987   8.425  2.7830  0.6155  0.8455
27354SOL     OW84215   9.400   4.666   3.131 -0.2830 -0.1037  0.5130
27354SOL    HW184216   9.353   4.609   3.191 -0.8465  1.8414  2.0121
27354SOL    HW284217   9.492   4.640   3.139 -0.6188 -1.3005  0.5569
27355SOL     OW84218   8.184   3.986   6.765  0.4997 -0.2149  0.0379
27355SOL    HW184219   8.268   4.030   6.778  0.5843 -0.2644 -0.3252
27355SOL    HW284220   8.207   3.894   6.757  0.5102 -0.1367 -0.9560
27356SOL     OW84221   2.795   7.643   2.419 -0.2828 -0.3765  0.2486
27356SOL    HW184222   2.861   7.629   2.350 -0.3347  0.3276  0.0498
27356SOL    HW284223   2.715   7.607   2.383 -0.2408 -0.2827  0.0573
27357SOL     OW84224   2.694   8.317   7.229  0.1649 -0.0647 -0.7969
27357SOL    HW184225   2.615   8.274   7.261  0.4071 -1.7453 -2.3034
27357SOL    HW284226   2.680   8.326   7.135  1.1212  1.0448 -0.8520
27358SOL     OW84227   8.092   8.515   7.188  0.2438  0.2225  0.3318
27358SOL    HW184228   8.014   8.549   7.144  0.6515  1.2126  0.3493
27358SOL    HW284229   8.070   8.424   7.209 -1.0607  0.6084  0.7064
27359SOL     OW84230   1.045   4.728   9.411  0.4705 -0.1286  0.3589
27359SOL    HW184231   1.048   4.803   9.471  0.0354  0.1111  0.0790
27359SOL    HW284232   1.133   4.726   9.372  0.9528 -0.6359  1.4205
27360SOL     OW84233   9.479   8.678   3.485 -0.2122 -0.1639  0.1751
27360SOL    HW184234   9.493   8.599   3.433 -0.1432 -0.0096 -0.0387
27360SOL    HW284235   9.515   8.656   3.571  0.7298 -0.0056 -0.1791
27361SOL     OW84236   1.419   5.095   9.397 -0.1957 -0.0535 -0.2603
27361SOL    HW184237   1.443   5.017   9.446 -2.1428 -0.1730  0.5817
27361SOL    HW284238   1.331   5.078   9.364  0.7255  0.3347 -3.2356
27362SOL     OW84239   8.176   8.608   5.666 -0.0240 -0.1961  0.3009
27362SOL    HW184240   8.122   8.538   5.703 -0.0584 -0.2234  0.1972
27362SOL    HW284241   8.251   8.614   5.725 -1.4688  1.7467  2.1168
27363SOL     OW84242   2.491   6.640   5.999 -0.2547 -0.4281  0.4127
27363SOL    HW184243   2.577   6.625   5.960 -0.0119 -0.7617  1.0536
27363SOL    HW284244   2.503   6.617   6.092 -0.2607  2.2657  1.1628
27364SOL     OW84245   3.818   3.146   0.707 -0.3996 -0.2106  0.7746
27364SOL    HW184246   3.817   3.242   0.714  1.8137 -0.0346 -0.3601
27364SOL    HW284247   3.849   3.116   0.793  0.8217  0.2424  0.5109
27365SOL     OW84248   1.676   3.513   6.230  0.1859 -0.4255  0.1300
27365SOL    HW184249   1.665   3.598   6.188  1.5020 -0.6647 -0.7565
27365SOL    HW284250   1.655   3.449   6.162 -1.6466 -0.8408  1.0359
27366SOL     OW84251   2.077   2.465   6.006  0.2823  0.2696 -0.9101
27366SOL    HW184252   2.043   2.418   6.083  1.7189  0.0812 -0.3606
27366SOL    HW284253   1.999   2.502   5.964 -0.9523 -2.5514 -1.3563
27367SOL     OW84254   3.482   2.021   2.900 -0.3460  0.3305  0.1650
27367SOL    HW184255   3.566   2.064   2.911  1.0031 -2.1158  0.1497
27367SOL    HW284256   3.427   2.057   2.969  0.4107  2.5770 -0.3355
27368SOL     OW84257   7.356   1.044   0.855  0.2955  0.1487 -0.0835
27368SOL    HW184258   7.378   0.962   0.812 -0.1248  0.0901 -0.1949
27368SOL    HW284259   7.326   1.101   0.785 -3.7619 -1.0480  0.3984
27369SOL     OW84260   2.827   4.123   8.258 -0.0107 -0.2197 -0.0398
27369SOL    HW184261   2.763   4.120   8.187 -1.2847 -1.5556  1.0996
27369SOL    HW284262   2.789   4.182   8.323  0.2686 -0.4227  0.3126
27370SOL     OW84263   1.430   2.807   0.170  0.6189 -0.1344 -0.3436
27370SOL    HW184264   1.406   2.757   0.091  0.5811 -1.1323  0.2748
27370SOL    HW284265   1.510   2.765   0.200  0.6023  0.2099  0.1781
27371SOL     OW84266   7.265   7.964   3.564 -0.3120 -0.1076  0.2166
27371SOL    HW184267   7.196   7.904   3.535  0.4867 -0.8803 -0.1376
27371SOL    HW284268   7.307   7.918   3.638 -0.5820  0.6396  0.8439
27372SOL     OW84269   2.112   5.092   2.777 -0.1252  0.2152  0.8391
27372SOL    HW184270   2.039   5.031   2.764  0.0435  0.0268  0.7671
27372SOL    HW284271   2.111   5.111   2.870  0.0432 -0.1800  0.9238
27373SOL     OW84272   2.852   5.344   3.335  0.2560 -0.1287 -0.6494
27373SOL    HW184273   2.850   5.437   3.355  0.2063 -0.0842 -0.8665
27373SOL    HW284274   2.793   5.334   3.260 -1.9646 -0.7158  1.0274
27374SOL     OW84275   0.686   8.765   5.994  0.4364  0.2119 -0.3529
27374SOL    HW184276   0.674   8.750   5.900  1.1397 -1.1579 -0.2445
27374SOL    HW284277   0.753   8.834   5.998  1.4807 -0.7386 -0.8732
27375SOL     OW84278   0.465   4.606   9.496 -0.2832  1.0935 -0.6835
27375SOL    HW184279   0.511   4.630   9.576 -0.7728 -1.7510  0.5557
27375SOL    HW284280   0.530   4.560   9.443 -1.1306 -1.4742  0.3580
27376SOL     OW84281   8.911   1.461   4.798  0.2411 -0.3134  0.0175
27376SOL    HW184282   9.006   1.460   4.787  0.1071  0.6039 -1.5423
27376SOL    HW284283   8.893   1.538   4.851  0.3527 -0.3492  0.1067
27377SOL     OW84284   4.608   1.914   0.510 -0.0429  0.1985  0.6793
27377SOL    HW184285   4.686   1.957   0.545  0.8937 -1.3193  0.5635
27377SOL    HW284286   4.576   1.973   0.442  1.8849  0.2135 -0.2924
27378SOL     OW84287   2.532   7.021   8.303  0.0303  0.1655  0.4805
27378SOL    HW184288   2.589   6.947   8.282 -0.1286  0.0435  0.4752
27378SOL    HW284289   2.454   7.007   8.249 -0.8151 -0.6880  1.8551
27379SOL     OW84290   9.453   5.893   9.527  0.4256 -0.2276 -0.0611
27379SOL    HW184291   9.496   5.819   9.483  0.6150 -1.6072  2.2534
27379SOL    HW284292   9.512   5.916   9.598  0.0888  1.8508 -0.3873
27380SOL     OW84293   3.011   8.443   4.381 -0.1499 -0.4868  0.4682
27380SOL    HW184294   3.001   8.348   4.385 -2.0248 -0.3120  0.6248
27380SOL    HW284295   3.076   8.463   4.448  0.2596 -1.6385  0.4453
27381SOL     OW84296   8.554   1.536   2.518 -0.2414 -0.0628  0.2450
27381SOL    HW184297   8.644   1.566   2.531 -0.3146  0.2576  0.0243
27381SOL    HW284298   8.504   1.579   2.587 -0.4692  0.9069 -0.4989
27382SOL     OW84299   6.620   8.568   5.653 -0.2471  0.2555 -0.2961
27382SOL    HW184300   6.672   8.511   5.597 -1.7324 -1.2087 -0.2511
27382SOL    HW284301   6.534   8.526   5.657 -0.8371  1.5185  1.2556
27383SOL     OW84302   3.920   5.325   3.203  0.3593 -0.1151 -0.2242
27383SOL    HW184303   3.941   5.232   3.205  0.0644 -0.4553 -4.5314
27383SOL    HW284304   3.825   5.328   3.211  0.2532 -0.3284 -1.2786
27384SOL     OW84305   4.783   0.305   3.417  0.6151 -1.0594 -0.7148
27384SOL    HW184306   4.856   0.292   3.356  0.6379  0.9097 -1.1671
27384SOL    HW284307   4.824   0.314   3.503  0.8190 -1.0074 -0.8178
27385SOL     OW84308   4.634   9.266   8.439 -0.9020 -0.2496  0.3273
27385SOL    HW184309   4.645   9.354   8.476  0.3538 -0.4929  0.5826
27385SOL    HW284310   4.544   9.264   8.409 -0.5042  1.7305 -1.2368
27386SOL     OW84311   7.043   5.252   5.969  0.1458 -0.6924 -0.3037
27386SOL    HW184312   7.115   5.281   5.913 -0.9386 -0.6338 -1.7124
27386SOL    HW284313   7.014   5.169   5.931  0.0419 -1.1681  0.7846
27387SOL     OW84314   0.041   1.492   6.078  0.0140  0.5088 -0.1042
27387SOL    HW184315   0.060   1.439   6.156  0.1012 -0.3005 -0.6579
27387SOL    HW284316   0.068   1.580   6.102 -0.0563  0.2931  0.8204
27388SOL     OW84317   6.249   2.532   2.788  0.2949 -0.1718  0.6372
27388SOL    HW184318   6.317   2.505   2.849 -0.6722 -0.5933  1.5554
27388SOL    HW284319   6.297   2.561   2.710  1.4613 -2.0416  0.6008
27389SOL     OW84320   3.925   5.781   3.891  0.3629 -0.5059 -0.0028
27389SOL    HW184321   3.892   5.870   3.881 -0.8206 -0.6324  2.3479
27389SOL    HW284322   4.020   5.792   3.902  0.5408  0.2316 -1.8530
27390SOL     OW84323   6.989   6.183   4.853 -0.0509  0.8206 -0.2543
27390SOL    HW184324   7.049   6.187   4.927  0.2259  0.4631 -0.4564
27390SOL    HW284325   7.033   6.233   4.784 -0.8520  2.2116  0.1841
27391SOL     OW84326   7.982   9.558   6.895  0.1146  0.3821 -0.6061
27391SOL    HW184327   8.070   9.551   6.858  0.3577  1.5621 -0.3009
27391SOL    HW284328   7.926   9.514   6.832  0.9713 -0.7792 -0.5926
27392SOL     OW84329   8.212   7.996   8.915  0.3253 -0.0442  0.5779
27392SOL    HW184330   8.183   8.039   8.995  0.2544  0.8418  0.0939
27392SOL    HW284331   8.257   7.917   8.944  0.1199  0.1605  1.4734
27393SOL     OW84332   7.516   0.268   9.160  0.1526 -0.1407 -0.5618
27393SOL    HW184333   7.422   0.283   9.149  0.0819  1.1743  1.2770
27393SOL    HW284334   7.536   0.197   9.099 -2.1925 -1.0634 -0.3871
27394SOL     OW84335   4.781   3.508   1.832 -0.0230  0.3899 -0.4929
27394SOL    HW184336   4.754   3.538   1.919  0.0574 -1.0147  0.0530
27394SOL    HW284337   4.706   3.526   1.775 -0.3463  0.6923  0.0220
27395SOL     OW84338   8.976   4.456   0.531 -0.8303 -0.2788 -0.0481
27395SOL    HW184339   9.026   4.535   0.509 -2.5517  0.5739 -1.1907
27395SOL    HW284340   8.946   4.471   0.620  0.0183 -0.3154  0.2554
27396SOL     OW84341   2.653   1.438   1.487  0.0036 -0.2865  0.2750
27396SOL    HW184342   2.745   1.449   1.511  0.3304  2.6471 -1.7369
27396SOL    HW284343   2.648   1.471   1.398 -2.6161 -2.6919 -0.6129
27397SOL     OW84344   7.112   7.174   9.418  0.2657 -0.1970 -0.0277
27397SOL    HW184345   7.197   7.186   9.459 -0.5833  0.8472  1.5144
27397SOL    HW284346   7.084   7.087   9.445 -0.8030  0.9068  2.7359
27398SOL     OW84347   4.408   0.735   0.905 -0.1510  0.3685 -0.0571
27398SOL    HW184348   4.364   0.818   0.927  0.1738  0.2603  1.0717
27398SOL    HW284349   4.385   0.677   0.977 -0.5529 -0.6100 -0.9525
27399SOL     OW84350   8.531   8.749   5.509 -0.2403  0.3107 -0.1313
27399SOL    HW184351   8.617   8.765   5.469 -0.7026 -0.8981 -1.6991
27399SOL    HW284352   8.472   8.741   5.435 -1.5477  0.1600  0.9009
27400SOL     OW84353   5.917   5.894   1.151  0.0676  0.2061 -1.0380
27400SOL    HW184354   5.996   5.894   1.205 -1.4906  0.3735  1.3795
27400SOL    HW284355   5.891   5.986   1.146 -1.1254 -0.0435  0.0601
27401SOL     OW84356   5.878   3.558   3.647  0.7964  0.2163  0.4382
27401SOL    HW184357   5.903   3.572   3.556 -0.8839 -1.5913 -0.3584
27401SOL    HW284358   5.888   3.463   3.660  0.8849  0.4273  2.1143
27402SOL     OW84359   0.134   2.669   8.978  0.1696 -0.0222 -0.2258
27402SOL    HW184360   0.213   2.705   8.938 -1.3711  1.4155 -2.1900
27402SOL    HW284361   0.076   2.745   8.989 -1.0325 -1.0606  0.9608
27403SOL     OW84362   0.972   7.577   0.864 -0.0727 -0.0495  0.3039
27403SOL    HW184363   0.945   7.596   0.774 -0.3358 -1.1252  0.1416
27403SOL    HW284364   1.042   7.513   0.855 -0.7780 -0.9325  0.8824
27404SOL     OW84365   4.979   6.812   4.853  0.4390 -0.0390 -0.6878
27404SOL    HW184366   4.901   6.768   4.888 -0.4743  1.0313 -1.2924
27404SOL    HW284367   5.014   6.860   4.928 -0.3218  0.6098 -0.7356
27405SOL     OW84368   7.382   3.301   5.574 -0.4458  0.1845 -0.7806
27405SOL    HW184369   7.324   3.246   5.522 -1.3370  0.9045 -0.5709
27405SOL    HW284370   7.420   3.363   5.511 -2.4212  1.8218 -0.4591
27406SOL     OW84371   3.613   8.583   5.522  0.1394  0.3637 -0.6765
27406SOL    HW184372   3.549   8.526   5.479 -1.8697  2.9124 -1.3362
27406SOL    HW284373   3.604   8.667   5.477  3.2903  1.1399 -0.0743
27407SOL     OW84374   7.895   7.275   1.902 -0.0983 -0.4819 -0.5160
27407SOL    HW184375   7.909   7.364   1.868  0.2366 -0.4746 -0.3606
27407SOL    HW284376   7.983   7.238   1.908 -0.2292 -0.7853 -0.4692
27408SOL     OW84377   0.531   6.534   2.052  0.1891  0.1224  0.1162
27408SOL    HW184378   0.559   6.446   2.075 -2.0042 -0.4344  0.9269
27408SOL    HW284379   0.566   6.548   1.964  2.2316 -0.7428  0.7190
27409SOL     OW84380   6.406   4.556   5.851  0.0397  1.3263 -0.1561
27409SOL    HW184381   6.471   4.537   5.784 -0.1883 -1.9743  0.3825
27409SOL    HW284382   6.456   4.597   5.922  1.1276  0.8333 -0.6141
27410SOL     OW84383   0.399   7.624   7.528 -0.1627  0.5758 -0.2011
27410SOL    HW184384   0.379   7.542   7.572  1.0640  0.0516 -0.5904
27410SOL    HW284385   0.476   7.605   7.475 -0.2805  1.7910 -0.8487
27411SOL     OW84386   7.758   2.133   4.577  0.0721 -0.0652 -0.0664
27411SOL    HW184387   7.694   2.166   4.640 -0.4286  1.4678 -1.2961
27411SOL    HW284388   7.819   2.082   4.629 -1.1534 -0.1032  1.4159
27412SOL     OW84389   4.824   3.569   7.521  0.0439 -0.0124  0.3639
27412SOL    HW184390   4.835   3.663   7.506  0.4792 -0.2100 -0.6380
27412SOL    HW284391   4.827   3.559   7.616  2.6467  0.6888  0.4204
27413SOL     OW84392   9.537   6.533   3.914 -0.2390 -0.8868  0.6637
27413SOL    HW184393   9.463   6.488   3.956  0.9574 -2.6711  0.9801
27413SOL    HW284394   9.587   6.463   3.871  0.7346  0.3970 -0.4036
27414SOL     OW84395   6.360   5.868   9.283  0.4036 -0.0964 -0.9301
27414SOL    HW184396   6.347   5.953   9.241 -2.8704 -0.6755 -1.3900
27414SOL    HW284397   6.442   5.877   9.332 -0.2623  3.6370 -0.2177
27415SOL     OW84398   6.474   1.155   0.431 -0.3845  0.1355  0.7683
27415SOL    HW184399   6.453   1.086   0.495  0.8955  0.6392  1.8029
27415SOL    HW284400   6.403   1.218   0.439 -1.2457 -0.7550  0.2669
27416SOL     OW84401   6.952   8.710   0.045 -0.0755 -0.4111 -0.2026
27416SOL    HW184402   6.944   8.727   0.139 -0.0407 -1.3890 -0.0080
27416SOL    HW284403   6.866   8.734   0.009  0.2729  1.0464 -0.1199
27417SOL     OW84404   7.233   8.953   8.725  0.4815 -0.5261  0.1366
27417SOL    HW184405   7.316   8.924   8.687 -0.2952 -0.5143 -1.6759
27417SOL    HW284406   7.239   9.049   8.725 -0.3636 -0.4044 -2.1624
27418SOL     OW84407   4.669   9.588   3.164  0.0737  0.1040 -0.3591
27418SOL    HW184408   4.707   9.581   3.251  0.0545 -1.4834 -0.4497
27418SOL    HW284409   4.576   9.571   3.177  0.0269  0.1124 -0.6641
27419SOL     OW84410   1.456   6.862   4.027  0.3039  0.6261  0.1265
27419SOL    HW184411   1.546   6.892   4.036 -0.6437  3.3103  1.8907
27419SOL    HW284412   1.412   6.928   3.974 -1.0871  0.5114  1.0683
27420SOL     OW84413   1.015   0.764   8.037  0.0821 -0.0309 -0.2124
27420SOL    HW184414   0.997   0.842   8.089 -1.2595  0.3033 -1.1346
27420SOL    HW284415   1.001   0.691   8.099 -1.7987  0.3416 -0.1280
27421SOL     OW84416   0.115   2.761   8.234  0.3745 -0.2582 -0.7297
27421SOL    HW184417   0.091   2.785   8.144  1.2427  0.1805 -0.8496
27421SOL    HW284418   0.055   2.812   8.289  1.4254  1.3587 -1.0125
27422SOL     OW84419   1.378   2.405   8.047  0.4136  0.6538  0.0814
27422SOL    HW184420   1.429   2.345   7.993 -0.9317 -1.1850  0.7499
27422SOL    HW284421   1.414   2.396   8.135 -1.8024 -1.7394  0.8619
27423SOL     OW84422   7.086   2.618   3.296  0.0390 -0.5297  0.3257
27423SOL    HW184423   7.103   2.711   3.313  0.4262 -0.7614  1.2547
27423SOL    HW284424   7.159   2.590   3.241 -1.0140  0.1290 -1.4962
27424SOL     OW84425   2.584   1.265   7.131  0.3208  0.0465 -0.1515
27424SOL    HW184426   2.608   1.213   7.208 -1.9158 -0.9829 -0.0786
27424SOL    HW284427   2.632   1.224   7.059  2.0749  0.7325  0.5700
27425SOL     OW84428   4.436   1.774   6.439  0.3887 -0.3492  0.0594
27425SOL    HW184429   4.348   1.799   6.409 -0.1226  0.5144  2.1187
27425SOL    HW284430   4.484   1.857   6.445  1.3872 -0.8225 -1.1002
27426SOL     OW84431   6.261   8.839   9.031  0.1200 -0.1604  0.3456
27426SOL    HW184432   6.198   8.769   9.047  0.2468 -0.2817  0.3178
27426SOL    HW284433   6.292   8.864   9.118  1.1727 -1.1584  0.2784
27427SOL     OW84434   6.559   0.240   6.218  0.3552  0.2654  0.2826
27427SOL    HW184435   6.502   0.164   6.211 -0.5334  0.8785  0.6170
27427SOL    HW284436   6.615   0.236   6.141  1.1959 -1.4065  0.9271
27428SOL     OW84437   5.687   1.504   0.768 -0.0429  0.1330  0.3107
27428SOL    HW184438   5.656   1.469   0.685  0.9433  0.4908 -0.2189
27428SOL    HW284439   5.733   1.585   0.745  1.3290 -0.3975  1.0500
27429SOL     OW84440   6.730   5.276   8.216 -0.3575 -0.0937 -0.3515
27429SOL    HW184441   6.800   5.335   8.187 -1.2380  1.0367 -0.2487
27429SOL    HW284442   6.675   5.266   8.139 -1.2551  0.7840  0.1487
27430SOL     OW84443   6.903   7.010   5.243  0.1358 -0.1975 -0.2069
27430SOL    HW184444   6.987   6.983   5.207  0.0691 -0.1268 -0.4121
27430SOL    HW284445   6.885   6.945   5.312  0.8999  0.4420  0.6099
27431SOL     OW84446   2.745   1.078   9.499  0.9560 -0.7159  0.4065
27431SOL    HW184447   2.775   1.146   9.438 -1.5479  0.6278  0.5498
27431SOL    HW284448   2.758   0.996   9.451  0.6490  0.1618 -1.2627
27432SOL     OW84449   6.543   5.515   1.297 -0.5592 -0.2533  0.2492
27432SOL    HW184450   6.584   5.435   1.331  0.1878  0.5269  1.2378
27432SOL    HW284451   6.450   5.504   1.317 -0.4493 -0.8462  0.4609
27433SOL     OW84452   3.052   1.939   7.017  0.6307 -0.4519  0.4605
27433SOL    HW184453   3.086   1.850   7.024 -1.0034 -1.1031  0.3485
27433SOL    HW284454   2.982   1.934   6.952  1.1036  1.1106 -0.2285
27434SOL     OW84455   3.951   5.855   6.846  0.3372 -0.4053 -0.3689
27434SOL    HW184456   3.949   5.807   6.929 -2.0439  1.3644  0.6821
27434SOL    HW284457   3.979   5.943   6.869 -1.5662  0.4774 -1.1853
27435SOL     OW84458   1.192   8.325   6.519 -0.1300  0.1451 -0.4282
27435SOL    HW184459   1.108   8.368   6.503 -0.0972 -0.2902 -1.9485
27435SOL    HW284460   1.182   8.237   6.481  0.2027 -0.8035  1.5437
27436SOL     OW84461   1.166   3.658   2.352 -0.4155 -0.1579  0.4307
27436SOL    HW184462   1.120   3.606   2.286 -0.4896 -0.1893  0.5075
27436SOL    HW284463   1.166   3.747   2.316  0.7105 -0.4068 -0.2380
27437SOL     OW84464   7.798   5.191   2.113 -0.2982 -0.4457  0.5149
27437SOL    HW184465   7.813   5.161   2.203 -1.8517 -1.1599  0.5740
27437SOL    HW284466   7.878   5.166   2.066 -0.4219 -2.3015  1.1826
27438SOL     OW84467   5.975   8.695   4.658 -0.3635 -0.3776 -0.1522
27438SOL    HW184468   5.891   8.715   4.699 -0.2123  0.2907 -0.1552
27438SOL    HW284469   5.984   8.600   4.666 -1.2093 -0.4795 -0.3314
27439SOL     OW84470   1.241   3.868   8.038  0.7972 -0.3335 -0.0905
27439SOL    HW184471   1.305   3.830   7.978  0.7849  0.2899 -0.5056
27439SOL    HW284472   1.288   3.877   8.121 -0.0789 -4.2904  1.0790
27440SOL     OW84473   3.985   8.669   5.967 -0.4156 -0.2481 -0.4483
27440SOL    HW184474   3.905   8.713   5.938 -0.0214 -0.1589 -1.4501
27440SOL    HW284475   4.033   8.651   5.886 -0.3540 -2.1215 -0.0260
27441SOL     OW84476   3.844   1.358   8.832  0.0491 -0.5749 -0.1258
27441SOL    HW184477   3.907   1.430   8.837  0.8989 -1.2485 -0.9458
27441SOL    HW284478   3.811   1.361   8.742 -1.2872 -0.0839  0.3575
27442SOL     OW84479   7.951   3.455   6.457 -0.0956 -0.2991 -0.1766
27442SOL    HW184480   8.021   3.439   6.394  1.4164  2.6902  0.5594
27442SOL    HW284481   7.967   3.391   6.527  1.9907  0.3516  0.0099
27443SOL     OW84482   2.992   9.544   6.267 -0.1502  0.1336 -0.1157
27443SOL    HW184483   3.059   9.603   6.301 -1.6467  1.1788  1.1947
27443SOL    HW284484   2.985   9.475   6.333  1.1335 -1.2167 -1.3255
27444SOL     OW84485   4.742   7.474   0.500 -0.0092  0.9356  0.0719
27444SOL    HW184486   4.691   7.394   0.490  0.2892  0.7621 -0.0487
27444SOL    HW284487   4.769   7.475   0.592  2.3558 -0.5346 -0.5237
27445SOL     OW84488   1.243   5.875   0.413 -0.1096  0.0246  0.3968
27445SOL    HW184489   1.188   5.908   0.342  0.4775 -0.5587 -0.3454
27445SOL    HW284490   1.320   5.932   0.411 -0.4742  0.5561  1.1405
27446SOL     OW84491   1.775   1.712   7.730  0.2122 -0.1256  0.2148
27446SOL    HW184492   1.765   1.803   7.701  0.3512 -0.6706 -1.7259
27446SOL    HW284493   1.686   1.678   7.733  0.3067 -0.8240 -2.4341
27447SOL     OW84494   2.252   5.535   4.636 -0.5175  0.5012  0.3540
27447SOL    HW184495   2.321   5.595   4.662  0.6622 -0.5121 -0.3374
27447SOL    HW284496   2.286   5.492   4.558 -1.1455 -1.3812  1.0712
27448SOL     OW84497   8.180   7.569   0.571 -0.1043  0.3240  0.4844
27448SOL    HW184498   8.234   7.586   0.649  0.0184 -1.4462  0.8143
27448SOL    HW284499   8.236   7.596   0.498  0.7327 -0.2592  0.8945
27449SOL     OW84500   2.918   2.504   5.180 -0.0411  0.2796 -0.0097
27449SOL    HW184501   2.963   2.571   5.127  1.5479 -0.4860  0.2910
27449SOL    HW284502   2.935   2.422   5.133  1.7884 -0.4797  1.8199
27450SOL     OW84503   3.639   5.689   4.840  0.5258  0.3296 -0.0959
27450SOL    HW184504   3.636   5.651   4.927 -1.1113 -1.3386 -0.8257
27450SOL    HW284505   3.720   5.656   4.802  0.6010  0.0173  0.3346
27451SOL     OW84506   7.797   4.750   8.836 -0.1093 -0.0787 -0.3091
27451SOL    HW184507   7.823   4.833   8.877  3.0449 -0.9076 -0.3780
27451SOL    HW284508   7.739   4.709   8.900  1.7735  0.3044  1.7871
27452SOL     OW84509   2.232   5.880   3.249  0.2404  0.4868 -0.2839
27452SOL    HW184510   2.318   5.872   3.289 -0.6278  0.0332  1.6552
27452SOL    HW284511   2.221   5.799   3.199 -0.6634 -1.6179  2.9956
27453SOL     OW84512   6.675   5.814   0.111 -0.1821 -0.3418 -0.2307
27453SOL    HW184513   6.658   5.800   0.205 -0.3964  0.6526 -0.1011
27453SOL    HW284514   6.588   5.831   0.074  0.0957  1.1532 -0.2474
27454SOL     OW84515   7.276   3.753   8.102  0.0854  0.4342 -0.4080
27454SOL    HW184516   7.256   3.815   8.031 -0.1708  1.2763  0.3795
27454SOL    HW284517   7.365   3.725   8.084  0.0494  0.6930 -1.0301
27455SOL     OW84518   1.243   5.760   7.583 -0.0203  0.3283  0.0025
27455SOL    HW184519   1.250   5.855   7.591  1.8825  0.1026  1.7169
27455SOL    HW284520   1.309   5.726   7.643 -2.5552 -2.1338  1.6525
27456SOL     OW84521   3.982   0.670   1.658 -0.2623  0.6273  0.5884
27456SOL    HW184522   4.064   0.718   1.665 -0.1553  0.2294  2.4840
27456SOL    HW284523   3.999   0.606   1.588  0.8732  0.8748  0.6073
27457SOL     OW84524   2.628   3.503   1.373  0.3020  0.3344  0.0754
27457SOL    HW184525   2.566   3.574   1.359  1.2009  1.1228  0.0187
27457SOL    HW284526   2.706   3.529   1.324  0.3967 -1.0307 -0.5368
27458SOL     OW84527   1.819   2.181   3.139  0.1458  1.2368  0.3691
27458SOL    HW184528   1.773   2.241   3.080 -2.2976 -1.1996 -0.4335
27458SOL    HW284529   1.782   2.200   3.226 -1.2852  0.3811 -0.0188
27459SOL     OW84530   9.157   5.762   2.333 -0.3246  0.4013 -0.4755
27459SOL    HW184531   9.218   5.787   2.402 -0.3955  1.2411 -0.7118
27459SOL    HW284532   9.211   5.753   2.255 -0.5108  1.2824 -0.7154
27460SOL     OW84533   0.065   9.201   8.720 -0.3354 -0.0511  0.3701
27460SOL    HW184534  -0.022   9.167   8.698 -0.1693 -1.2949  1.4932
27460SOL    HW284535   0.078   9.178   8.812  1.8489 -1.4436 -0.1975
27461SOL     OW84536   3.397   9.609   4.313  0.1330  0.2281 -0.7342
27461SOL    HW184537   3.343   9.532   4.331  1.7108 -0.8137 -0.2404
27461SOL    HW284538   3.479   9.573   4.279  0.4380  1.7729 -1.7088
27462SOL     OW84539   2.475   7.433   6.526 -0.2031 -0.2333 -0.6686
27462SOL    HW184540   2.436   7.503   6.579  1.5212  1.0782 -1.0684
27462SOL    HW284541   2.527   7.382   6.588 -0.9334 -0.8063 -0.5033
27463SOL     OW84542   8.004   7.091   5.919 -0.4537 -0.1536  0.9474
27463SOL    HW184543   8.057   7.124   5.846 -2.3423  0.8163 -0.0611
27463SOL    HW284544   8.024   7.150   5.992 -0.2273  0.2688  0.5500
27464SOL     OW84545   0.910   4.746   8.752 -0.1333  0.7629  0.3830
27464SOL    HW184546   0.943   4.664   8.788  0.2264  0.5532 -0.4107
27464SOL    HW284547   0.821   4.754   8.787 -0.1000  0.1426  0.6215
27465SOL     OW84548   2.919   7.350   9.477  0.0176 -0.5108  0.1089
27465SOL    HW184549   2.917   7.435   9.520  0.2263 -0.5156  0.1315
27465SOL    HW284550   2.996   7.354   9.420 -1.1492  0.0956 -1.5108
27466SOL     OW84551   7.919   6.013   8.345  0.5775  0.0244  0.1858
27466SOL    HW184552   7.951   6.095   8.310  1.4630  0.0743  1.0729
27466SOL    HW284553   7.938   6.017   8.439  0.3831 -1.0714  0.2965
27467SOL     OW84554   4.434   1.124   2.916 -0.2243  0.4014  0.2697
27467SOL    HW184555   4.414   1.048   2.970  1.1072  0.8271  1.4185
27467SOL    HW284556   4.423   1.094   2.826 -1.1309 -0.7164  0.7403
27468SOL     OW84557   7.861   3.559   9.571 -0.0785 -0.2581 -0.5059
27468SOL    HW184558   7.815   3.479   9.547 -0.2643 -0.8681  1.6610
27468SOL    HW284559   7.798   3.609   9.624  0.6531  0.4178 -0.2453
27469SOL     OW84560   6.375   3.426   3.991  0.2538  0.1503  0.0773
27469SOL    HW184561   6.367   3.354   3.929 -0.0802  0.0531  0.2306
27469SOL    HW284562   6.315   3.493   3.959 -1.6543 -0.7727  1.4957
27470SOL     OW84563   1.427   4.206   3.060  0.0227 -0.5521 -0.2476
27470SOL    HW184564   1.376   4.140   3.013 -0.3336 -0.0190 -0.6075
27470SOL    HW284565   1.511   4.164   3.075  0.4322 -0.4515 -2.0638
27471SOL     OW84566   0.164   0.689   2.602  0.1656 -0.2185 -0.5200
27471SOL    HW184567   0.117   0.617   2.645 -1.3687  1.9123  1.6403
27471SOL    HW284568   0.256   0.669   2.616 -0.2015 -0.0353  3.4408
27472SOL     OW84569   1.443   7.998   3.386  0.1594 -0.3667  0.0311
27472SOL    HW184570   1.372   7.934   3.396 -1.3991  1.2116 -0.3043
27472SOL    HW284571   1.439   8.052   3.465  1.8396 -0.9952  0.5879
27473SOL     OW84572   2.994   1.834   3.012  0.7949 -0.2064  0.3090
27473SOL    HW184573   3.086   1.847   3.034  0.7564  1.1927 -0.2290
27473SOL    HW284574   2.962   1.922   2.992 -0.5170 -0.7454 -0.0570
27474SOL     OW84575   5.804   2.245   7.417  0.3209  0.0560  0.3999
27474SOL    HW184576   5.724   2.280   7.378  0.1422  0.8051  1.4029
27474SOL    HW284577   5.830   2.173   7.359 -0.7486  0.1853 -0.2552
27475SOL     OW84578   7.391   2.945   1.111 -0.1148 -0.0144  0.2579
27475SOL    HW184579   7.337   2.990   1.176 -1.3530 -0.0699 -0.6991
27475SOL    HW284580   7.462   3.007   1.092  0.2539  0.0067  1.6174
27476SOL     OW84581   6.615   7.823   0.301 -0.0928  0.0337  0.1457
27476SOL    HW184582   6.533   7.872   0.295  0.5895  1.2878  0.5368
27476SOL    HW284583   6.680   7.881   0.262  0.7908 -0.4646  0.8272
27477SOL     OW84584   5.742   1.777   0.674 -0.0082 -0.0341  0.1458
27477SOL    HW184585   5.809   1.827   0.627 -0.7219 -1.1643 -2.2488
27477SOL    HW284586   5.737   1.819   0.760  0.3631  3.1418 -1.2365
27478SOL     OW84587   1.828   6.957   5.128 -0.4392 -0.3502  0.0926
27478SOL    HW184588   1.825   6.927   5.218  2.3762  1.9195  1.1190
27478SOL    HW284589   1.767   7.030   5.124 -0.9627 -0.7860 -0.0293
27479SOL     OW84590   0.097   3.844   1.506 -0.0983 -0.3731  0.6405
27479SOL    HW184591   0.016   3.796   1.516 -0.2668  0.0315  1.2689
27479SOL    HW284592   0.119   3.836   1.413 -1.7551  0.9272  0.0827
27480SOL     OW84593   4.032   2.422   3.994 -0.0732 -0.3549 -0.0906
27480SOL    HW184594   4.019   2.499   3.938  0.5876  0.2013  0.5100
27480SOL    HW284595   4.120   2.432   4.029  0.3412 -1.8291 -0.6611
27481SOL     OW84596   2.934   8.252   3.658  0.5677 -0.1688  0.3318
27481SOL    HW184597   2.974   8.286   3.737  0.1461 -3.0763  1.9193
27481SOL    HW284598   2.994   8.185   3.626 -0.5319 -0.9265 -0.2447
27482SOL     OW84599   6.266   3.757   4.850 -0.3460 -0.1975  0.5544
27482SOL    HW184600   6.301   3.837   4.890 -0.9402  0.0785  0.5370
27482SOL    HW284601   6.280   3.770   4.756 -1.1394  0.2341  0.4918
27483SOL     OW84602   3.302   8.806   2.911 -0.2787  0.0709 -0.3168
27483SOL    HW184603   3.269   8.827   2.998  0.1900  2.1655 -0.6026
27483SOL    HW284604   3.395   8.830   2.914  0.1988 -1.5815 -0.8539
27484SOL     OW84605   2.582   1.312   2.533  0.1873  0.3099 -0.4823
27484SOL    HW184606   2.666   1.267   2.544  0.0819 -0.6131 -2.8844
27484SOL    HW284607   2.517   1.247   2.557  0.1229  0.8125  0.7467
27485SOL     OW84608   4.258   3.939   0.733  0.1121 -0.0699  0.4860
27485SOL    HW184609   4.333   3.953   0.675 -0.5875  1.5974 -0.0639
27485SOL    HW284610   4.242   4.024   0.772 -0.4832 -0.7947  1.8664
27486SOL     OW84611   5.376   2.791   6.061  0.3542 -0.1734 -0.2593
27486SOL    HW184612   5.313   2.729   6.024 -0.5223  1.4092 -1.5397
27486SOL    HW284613   5.353   2.875   6.021  1.1587  1.0983  1.8283
27487SOL     OW84614   9.463   4.388   7.069  0.0028  1.0956 -0.1942
27487SOL    HW184615   9.394   4.369   7.005  0.7278 -2.2477 -0.1728
27487SOL    HW284616   9.545   4.377   7.021  0.5483 -0.7169  1.0314
27488SOL     OW84617   7.773   5.068   8.136  0.1323 -0.0326 -0.4559
27488SOL    HW184618   7.813   5.151   8.163  1.2540  0.0061 -2.0565
27488SOL    HW284619   7.780   5.012   8.214  2.1734  0.4072 -0.2570
27489SOL     OW84620   0.510   8.690   7.973 -0.2945  0.0583  0.7149
27489SOL    HW184621   0.482   8.768   7.923 -0.3182  0.5310  1.4460
27489SOL    HW284622   0.448   8.622   7.947  0.5316 -0.1178 -0.9588
27490SOL     OW84623   1.675   2.115   9.518  0.4079  0.4045  0.5244
27490SOL    HW184624   1.625   2.195   9.533  0.3166  1.2400 -3.3888
27490SOL    HW284625   1.766   2.141   9.534  0.2634  0.9407  0.4982
27491SOL     OW84626   8.885   6.579   5.649 -0.1157 -0.4605  0.1278
27491SOL    HW184627   8.826   6.523   5.598 -2.6197  2.4523 -0.4985
27491SOL    HW284628   8.968   6.575   5.603 -1.0505 -1.3643 -1.5897
27492SOL     OW84629   4.467   2.676   5.506  0.0529 -0.1949  0.4654
27492SOL    HW184630   4.491   2.708   5.419 -1.4395  0.1335  0.1515
27492SOL    HW284631   4.537   2.614   5.528 -0.8170 -2.2747 -2.0689
27493SOL     OW84632   1.814   5.544   1.009  0.6365 -0.6555 -0.5092
27493SOL    HW184633   1.783   5.613   0.951  2.5834 -1.1363 -2.2320
27493SOL    HW284634   1.781   5.463   0.971  2.4859 -1.0311 -1.4263
27494SOL     OW84635   1.205   4.054   9.008 -0.0241 -0.1419  0.2868
27494SOL    HW184636   1.152   4.110   9.065 -1.0809  0.0760 -0.8629
27494SOL    HW284637   1.179   4.079   8.920  0.5825 -1.4111 -0.2704
27495SOL     OW84638   6.528   5.566   0.232  0.0182  0.4857 -0.0479
27495SOL    HW184639   6.555   5.495   0.290  0.4622 -1.5287 -2.5641
27495SOL    HW284640   6.609   5.607   0.203  0.0744 -0.8144 -1.8968
27496SOL     OW84641   2.362   4.602   1.483  0.0687  0.2578 -0.3217
27496SOL    HW184642   2.292   4.561   1.534 -0.1729  2.0813  0.9309
27496SOL    HW284643   2.420   4.530   1.460 -0.7967 -0.9129  0.9560
27497SOL     OW84644   1.349   4.400   1.959 -0.1189  0.0706 -0.1798
27497SOL    HW184645   1.331   4.351   1.878 -1.4163  0.6320 -0.2600
27497SOL    HW284646   1.287   4.365   2.023 -0.1273  0.6590  0.1430
27498SOL     OW84647   2.544   6.637   8.375  0.1407  0.3481  0.2705
27498SOL    HW184648   2.490   6.689   8.316  0.8412  0.2735 -0.4528
27498SOL    HW284649   2.633   6.668   8.360  0.4711 -0.4957  0.4213
27499SOL     OW84650   3.512   0.815   3.130  0.2699 -0.4361 -0.1937
27499SOL    HW184651   3.432   0.863   3.153 -0.9630 -1.4971 -2.0349
27499SOL    HW284652   3.524   0.834   3.036 -0.7488 -4.2603 -1.2502
27500SOL     OW84653   9.596   5.860   5.426  0.0950  0.7277 -0.0685
27500SOL    HW184654   9.558   5.792   5.370 -0.0328  0.0191  0.8454
27500SOL    HW284655   9.524   5.887   5.483  0.3408  1.0967  0.0704
27501SOL     OW84656   9.058   7.236   0.218 -0.0421  0.0725 -0.3933
27501SOL    HW184657   9.041   7.141   0.222  0.5827 -0.2176 -2.7492
27501SOL    HW284658   9.110   7.247   0.138  0.9116  2.2906  0.4591
27502SOL     OW84659   7.784   6.328   7.425 -0.3721 -0.1839 -0.1026
27502SOL    HW184660   7.694   6.326   7.392 -0.8097  3.8469  0.2721
27502SOL    HW284661   7.777   6.369   7.512  1.8771  1.9562 -0.7976
27503SOL     OW84662   2.978   6.526   9.427 -0.1958 -0.3225 -0.6380
27503SOL    HW184663   2.958   6.516   9.333 -0.7844  0.9946 -0.6789
27503SOL    HW284664   3.046   6.592   9.430 -1.7111  1.2765 -0.0479
27504SOL     OW84665   0.537   8.996   1.161  0.0442  0.3417 -0.1572
27504SOL    HW184666   0.607   8.936   1.137 -1.7309 -1.0251 -2.3092
27504SOL    HW284667   0.493   9.017   1.078 -2.2677  0.8765  1.1148
27505SOL     OW84668   1.408   9.240   6.575  0.4008 -0.2876  0.2101
27505SOL    HW184669   1.438   9.150   6.588  1.3839 -0.0359 -0.2047
27505SOL    HW284670   1.478   9.294   6.612  0.9894  0.3333 -1.6684
27506SOL     OW84671   6.321   1.426   7.174 -0.3105  0.2291 -0.3047
27506SOL    HW184672   6.388   1.467   7.120 -0.7415 -0.0972 -1.1092
27506SOL    HW284673   6.275   1.499   7.215  0.6818  0.4545  0.4677
27507SOL     OW84674   1.711   9.557   0.685 -0.8244 -0.1171  0.4205
27507SOL    HW184675   1.627   9.540   0.727 -0.5322 -0.2395  0.9596
27507SOL    HW284676   1.775   9.548   0.755 -0.4589  1.0474  0.2614
27508SOL     OW84677   9.466   6.974   6.009 -0.3125  0.1300 -0.1667
27508SOL    HW184678   9.560   6.990   6.015 -0.2830  0.1437 -0.5769
27508SOL    HW284679   9.450   6.901   6.069 -0.0514  0.1749 -0.0409
27509SOL     OW84680   8.411   0.380   2.116 -0.2783 -0.4135  0.4859
27509SOL    HW184681   8.490   0.338   2.083 -1.3309 -1.3782 -0.8943
27509SOL    HW284682   8.391   0.334   2.197  1.4964  0.9890  1.8109
27510SOL     OW84683   6.042   8.459   0.892 -0.3707  0.4863  0.6540
27510SOL    HW184684   5.985   8.536   0.886 -0.0983  0.6729  0.4635
27510SOL    HW284685   6.121   8.483   0.844 -0.6949 -0.2835 -0.3103
27511SOL     OW84686   6.680   2.144   1.373 -1.2744  0.3373  0.0750
27511SOL    HW184687   6.745   2.076   1.389 -0.3622  0.6438 -2.0018
27511SOL    HW284688   6.630   2.149   1.455 -0.1948 -1.5189  0.9153
27512SOL     OW84689   1.817   1.108   9.290 -0.4719 -0.4341  0.5189
27512SOL    HW184690   1.905   1.143   9.288 -0.9867  0.8735 -0.6190
27512SOL    HW284691   1.763   1.179   9.326 -1.1594 -0.9714  0.5850
27513SOL     OW84692   2.387   5.250   8.879 -0.4883 -0.6458 -0.1149
27513SOL    HW184693   2.461   5.211   8.924  1.3522  0.7960 -1.7401
27513SOL    HW284694   2.349   5.178   8.828 -1.0698 -1.6890  1.7009
27514SOL     OW84695   6.791   7.648   7.175  0.3559 -0.1298  0.0532
27514SOL    HW184696   6.739   7.578   7.136 -0.8773  0.2106  1.0278
27514SOL    HW284697   6.835   7.608   7.249  0.4306 -0.1074  0.0209
27515SOL     OW84698   8.015   5.805   2.009  0.4846  0.4899  0.2980
27515SOL    HW184699   7.940   5.860   1.991  0.3017  0.2024  0.1659
27515SOL    HW284700   8.082   5.834   1.947  0.0370 -0.1339 -0.4979
27516SOL     OW84701   5.493   3.392   0.767 -0.1298 -0.0787 -0.2622
27516SOL    HW184702   5.434   3.382   0.692 -2.2681 -2.3068  1.5388
27516SOL    HW284703   5.572   3.345   0.741 -0.7545 -0.6526 -1.1981
27517SOL     OW84704   1.627   8.028   6.541 -0.0627 -0.1989  0.6469
27517SOL    HW184705   1.693   8.087   6.578 -0.5437 -0.0226  1.2449
27517SOL    HW284706   1.677   7.965   6.490  0.4838  0.5505  0.2439
27518SOL     OW84707   5.744   9.611   1.985 -0.2415 -0.2374 -0.1764
27518SOL    HW184708   5.821   9.627   2.039  0.4987 -0.7429 -1.0438
27518SOL    HW284709   5.746   9.679   1.918 -1.7399  1.0355  0.9945
27519SOL     OW84710   8.021   1.569   7.798  0.2599 -0.0616  0.1881
27519SOL    HW184711   7.944   1.522   7.830 -0.4297  0.7283 -0.2913
27519SOL    HW284712   8.092   1.540   7.856 -0.4910 -0.4303  0.9417
27520SOL     OW84713   6.717   8.099   5.923 -0.9872  0.2988 -0.5658
27520SOL    HW184714   6.712   8.023   5.865  1.8306  0.1357 -0.7547
27520SOL    HW284715   6.716   8.062   6.012 -0.4511  0.0981 -0.6399
27521SOL     OW84716   3.825   8.138   8.739 -0.5215  0.6058  0.0293
27521SOL    HW184717   3.829   8.050   8.702  1.6868 -0.7177  2.9545
27521SOL    HW284718   3.733   8.163   8.733 -1.2437 -1.9950 -0.7157
27522SOL     OW84719   8.529   7.570   3.670  0.3096  0.6403  0.2595
27522SOL    HW184720   8.537   7.508   3.742 -1.6099  1.9905  1.7270
27522SOL    HW284721   8.561   7.652   3.706  0.4488  1.0806 -0.8390
27523SOL     OW84722   3.610   5.192   2.563 -0.3511  0.0717 -0.3521
27523SOL    HW184723   3.705   5.201   2.571 -0.4248 -0.2010  1.5058
27523SOL    HW284724   3.597   5.103   2.530  0.0414 -0.0273 -0.2475
27524SOL     OW84725   3.117   7.756   6.875  0.1566  0.7079 -0.0403
27524SOL    HW184726   3.172   7.732   6.949 -0.4442 -2.5850 -0.5239
27524SOL    HW284727   3.029   7.727   6.900 -0.9635  3.5569 -0.3294
27525SOL     OW84728   5.684   0.954   7.560  0.1763 -0.0392 -0.1167
27525SOL    HW184729   5.699   0.859   7.565  0.9997  0.1138  0.4635
27525SOL    HW284730   5.708   0.977   7.471 -1.3304 -0.5832 -0.6952
27526SOL     OW84731   1.683   4.156   3.817  0.3415 -0.4351  0.2018
27526SOL    HW184732   1.775   4.161   3.792  0.0866  1.4209 -0.4701
27526SOL    HW284733   1.661   4.243   3.849 -0.5216 -1.5402  2.9273
27527SOL     OW84734   2.403   2.800   3.316 -0.0313 -0.5708 -0.1275
27527SOL    HW184735   2.343   2.829   3.248 -1.5243  0.5257  1.5511
27527SOL    HW284736   2.378   2.710   3.334 -0.3048 -0.5361 -0.3252
27528SOL     OW84737   0.904   7.656   1.848  0.0395 -0.2043  0.1177
27528SOL    HW184738   0.900   7.750   1.829 -3.2401 -0.1665  0.4589
27528SOL    HW284739   0.930   7.616   1.766  0.3173  0.9082 -0.3586
27529SOL     OW84740   2.196   5.128   2.358  0.8803 -0.7449  0.3238
27529SOL    HW184741   2.167   5.059   2.418  1.4506 -0.8335  0.5046
27529SOL    HW284742   2.236   5.081   2.285  1.4197 -0.6016  0.5257
27530SOL     OW84743   8.167   5.321   0.095  0.8147 -0.2062  0.5623
27530SOL    HW184744   8.127   5.263   0.161 -0.3914  0.1781  0.1912
27530SOL    HW284745   8.109   5.314   0.019  1.2159  0.7154  0.1635
27531SOL     OW84746   1.471   0.321   4.209 -0.1587 -0.8052 -0.0813
27531SOL    HW184747   1.541   0.315   4.144  0.0306 -0.3047  0.0696
27531SOL    HW284748   1.501   0.389   4.270 -0.0553 -1.6819  0.8652
27532SOL     OW84749   7.981   4.804   6.914 -0.0737 -0.3373 -0.3773
27532SOL    HW184750   8.005   4.714   6.893  0.8575  0.1111 -1.2982
27532SOL    HW284751   7.942   4.798   7.002 -3.0617 -2.0959 -1.6727
27533SOL     OW84752   8.918   1.357   0.286  0.0327 -0.7139  0.0715
27533SOL    HW184753   8.884   1.295   0.221 -0.1826  1.3057 -1.8284
27533SOL    HW284754   8.988   1.404   0.241  0.8239 -0.1646  1.7779
27534SOL     OW84755   8.143   1.704   1.298 -0.4109  0.4850  0.5465
27534SOL    HW184756   8.237   1.722   1.291 -0.4701  1.2874  1.6350
27534SOL    HW284757   8.125   1.643   1.226  1.0795 -0.2469  0.7594
27535SOL     OW84758   5.732   0.570   3.219 -0.1256  0.2008 -0.1939
27535SOL    HW184759   5.650   0.550   3.264 -0.6011 -0.7283 -1.4335
27535SOL    HW284760   5.772   0.484   3.203  0.0993  0.5206 -1.4007
27536SOL     OW84761   3.544   4.774   1.267  0.2375  0.2977 -0.2176
27536SOL    HW184762   3.585   4.793   1.352  1.7058 -1.9417 -0.3397
27536SOL    HW284763   3.617   4.758   1.208 -0.7883  0.1568 -1.4908
27537SOL     OW84764   5.552   7.864   0.469 -0.1529 -0.5328  0.3127
27537SOL    HW184765   5.547   7.823   0.383  0.7018 -1.1866  0.5660
27537SOL    HW284766   5.633   7.915   0.467 -0.6680  0.2985  0.3698
27538SOL     OW84767   8.559   7.518   7.270  0.0479  0.5818  0.1558
27538SOL    HW184768   8.515   7.597   7.237  0.5953  1.1165  0.6958
27538SOL    HW284769   8.548   7.522   7.365  0.2944  0.1326  0.2067
27539SOL     OW84770   1.671   1.066   2.993 -0.0581 -0.3533  0.5045
27539SOL    HW184771   1.708   1.060   2.905 -1.2288  1.0357 -0.1278
27539SOL    HW284772   1.709   0.992   3.040 -0.1083 -1.6850 -1.4221
27540SOL     OW84773   9.210   2.247   1.468 -0.0611 -0.2736 -0.1933
27540SOL    HW184774   9.286   2.209   1.425 -0.2551  0.7724 -1.5700
27540SOL    HW284775   9.140   2.241   1.402 -1.3384 -1.6828  1.2167
27541SOL     OW84776   0.613   6.259   2.118  0.7423 -0.2361 -0.1317
27541SOL    HW184777   0.628   6.253   2.213 -2.1503  0.7001  0.4893
27541SOL    HW284778   0.673   6.195   2.080  1.5915 -1.0534  2.3764
27542SOL     OW84779   0.452   2.412   7.211 -0.2261 -0.1032 -0.1159
27542SOL    HW184780   0.483   2.437   7.124 -3.4822  2.4901 -0.7240
27542SOL    HW284781   0.383   2.348   7.194  1.3524 -2.1631  0.8755
27543SOL     OW84782   5.823   5.340   4.392 -0.6278 -0.3882 -0.0620
27543SOL    HW184783   5.839   5.335   4.298 -2.9411 -2.1317 -0.4615
27543SOL    HW284784   5.742   5.291   4.405 -1.0660  0.8668  2.6929
27544SOL     OW84785   6.265   5.255   7.714  0.2507  0.5323  0.0794
27544SOL    HW184786   6.181   5.302   7.715 -1.0118 -1.5349 -1.9147
27544SOL    HW284787   6.258   5.193   7.787 -0.8517 -0.9979 -1.2670
27545SOL     OW84788   5.118   5.343   1.044  0.0597  0.1379 -0.1515
27545SOL    HW184789   5.150   5.306   0.962  0.7890 -1.8739  0.9818
27545SOL    HW284790   5.061   5.276   1.081  0.3912  0.6418  1.3840
27546SOL     OW84791   2.159   3.611   9.011 -0.3789 -0.4669  0.4461
27546SOL    HW184792   2.151   3.521   8.978 -1.2407 -0.3349  0.2605
27546SOL    HW284793   2.101   3.662   8.955  2.1277  0.7350 -1.2268
27547SOL     OW84794   3.981   6.443   2.455  0.1395 -0.2093  0.6278
27547SOL    HW184795   3.971   6.391   2.375  1.8115 -1.4414  1.1686
27547SOL    HW284796   4.020   6.526   2.425 -1.5634  0.3813 -0.1004
27548SOL     OW84797   2.743   7.655   3.430 -0.1185 -0.0252  0.5271
27548SOL    HW184798   2.751   7.709   3.509  1.0801  0.3207  0.1976
27548SOL    HW284799   2.737   7.718   3.358  1.4525 -0.3000  0.1210
27549SOL     OW84800   1.905   8.127   9.069  0.4746 -0.2254 -0.0625
27549SOL    HW184801   1.921   8.216   9.040  1.2478 -0.3466 -0.0280
27549SOL    HW284802   1.885   8.135   9.162  3.9785 -0.3482  0.8541
27550SOL     OW84803   7.991   8.287   9.563  0.3561  0.2808  0.2723
27550SOL    HW184804   7.979   8.205   9.611 -1.5700  1.1558  1.3913
27550SOL    HW284805   7.903   8.318   9.545  1.0459  1.5910 -1.0817
27551SOL     OW84806   5.952   7.104   4.750 -0.2416 -0.3532  0.0181
27551SOL    HW184807   5.889   7.036   4.774  0.4661 -0.8239  0.5685
27551SOL    HW284808   6.034   7.076   4.789  0.0100  0.9639  0.4845
27552SOL     OW84809   0.358   4.458   7.067  0.0248 -0.2333  0.2484
27552SOL    HW184810   0.414   4.392   7.108  3.4297  3.3778  1.9847
27552SOL    HW284811   0.403   4.481   6.985  0.2005  1.4641  0.7857
27553SOL     OW84812   7.815   0.751   4.795  0.1506  0.0899  0.0850
27553SOL    HW184813   7.799   0.799   4.876 -0.9090  0.9512 -0.5954
27553SOL    HW284814   7.895   0.790   4.759  0.5774 -0.2384  0.6535
27554SOL     OW84815   1.975   3.151   2.231 -0.1375  0.1223  0.2263
27554SOL    HW184816   2.047   3.211   2.210 -0.1094 -0.0752 -0.2474
27554SOL    HW284817   1.924   3.198   2.297  1.3006 -0.3576  1.7663
27555SOL     OW84818   3.708   5.973   4.681 -0.1119  0.2038  0.4290
27555SOL    HW184819   3.720   5.878   4.684  1.1999  0.3343 -0.0280
27555SOL    HW284820   3.751   6.006   4.760 -1.4145  0.3509  1.0916
27556SOL     OW84821   2.910   5.410   6.464  0.1226  0.3857 -0.6935
27556SOL    HW184822   2.915   5.320   6.433  0.2036  0.1412  0.0130
27556SOL    HW284823   2.844   5.451   6.407  0.1799 -0.0747 -1.1040
27557SOL     OW84824   5.574   0.114   4.377  0.9470  0.0722 -0.2895
27557SOL    HW184825   5.489   0.135   4.416  1.1549 -0.5206  0.4858
27557SOL    HW284826   5.558   0.035   4.325  0.6205  0.9770 -1.6348
27558SOL     OW84827   6.349   2.808   2.978 -0.7120 -1.2091 -0.2307
27558SOL    HW184828   6.334   2.862   3.055 -1.1053 -1.2659 -0.2636
27558SOL    HW284829   6.294   2.731   2.992 -0.5667 -1.3505 -0.4342
27559SOL     OW84830   0.848   3.761   0.983  0.0864 -0.1359 -0.3363
27559SOL    HW184831   0.861   3.856   0.983  1.8476 -0.3046  1.2767
27559SOL    HW284832   0.913   3.728   0.921 -0.3036 -0.2971 -0.6555
27560SOL     OW84833   5.914   4.589   6.402  0.2211 -0.0193 -0.0844
27560SOL    HW184834   5.895   4.660   6.463  0.4627  0.4424 -0.5328
27560SOL    HW284835   5.997   4.615   6.361 -0.0562 -0.2002 -0.7749
27561SOL     OW84836   8.601   3.567   4.058  0.0454  0.4101  0.1032
27561SOL    HW184837   8.696   3.572   4.045 -0.0428  0.0368 -0.6901
27561SOL    HW284838   8.564   3.582   3.971 -0.6886  2.1065  0.6527
27562SOL     OW84839   1.426   1.691   3.277 -0.1831 -0.8981 -0.4875
27562SOL    HW184840   1.420   1.638   3.198  2.7965  0.3104 -1.6982
27562SOL    HW284841   1.352   1.664   3.331 -0.4944 -4.0761 -2.2900
27563SOL     OW84842   5.992   9.185   4.644 -0.1374 -0.6613 -0.1682
27563SOL    HW184843   6.063   9.249   4.649 -0.3716 -0.3920 -0.2939
27563SOL    HW284844   6.033   9.108   4.603  0.7107 -1.3861  1.9196
27564SOL     OW84845   6.648   5.121   8.653  0.3794  0.4545  0.0512
27564SOL    HW184846   6.559   5.156   8.661 -0.0193  0.5238 -3.3579
27564SOL    HW284847   6.704   5.198   8.647  0.1765  0.5099 -1.5615
27565SOL     OW84848   8.840   6.879   5.926  0.2343  0.0233  0.3278
27565SOL    HW184849   8.911   6.820   5.950  0.6880  0.3776 -0.1083
27565SOL    HW284850   8.765   6.822   5.908  0.9142 -0.4885 -0.9720
27566SOL     OW84851   0.861   7.846   8.168  0.2138 -0.5083 -0.1331
27566SOL    HW184852   0.908   7.786   8.226  1.1741  0.3211 -0.0236
27566SOL    HW284853   0.926   7.871   8.102 -1.0295 -1.9842 -2.0629
27567SOL     OW84854   4.593   1.800   3.531 -0.6822  0.3020 -0.3416
27567SOL    HW184855   4.665   1.863   3.534 -0.3142 -0.0113 -2.0230
27567SOL    HW284856   4.514   1.854   3.533 -0.4017  0.7125  0.0851
27568SOL     OW84857   8.608   1.986   4.723 -0.0578  0.0614 -0.3317
27568SOL    HW184858   8.520   1.953   4.742 -0.1373  0.6809  0.4581
27568SOL    HW284859   8.623   2.052   4.792  0.5848  0.7359 -1.1062
27569SOL     OW84860   0.543   4.385   6.535  0.3026 -0.1140  0.7474
27569SOL    HW184861   0.481   4.445   6.492  0.8513  0.5028  0.8009
27569SOL    HW284862   0.614   4.374   6.472  0.2514 -0.6447  0.7773
27570SOL     OW84863   3.571   0.788   7.070 -0.4746  0.2163 -0.1638
27570SOL    HW184864   3.546   0.743   6.990 -0.9393 -0.5202  0.3756
27570SOL    HW284865   3.544   0.729   7.140 -0.6048  1.0990  0.5553
27571SOL     OW84866   2.252   8.434   2.593  0.3453 -0.2755  0.4853
27571SOL    HW184867   2.161   8.403   2.587  0.5647 -1.0900  1.2005
27571SOL    HW284868   2.250   8.502   2.660 -0.1736  1.4794 -1.2195
27572SOL     OW84869   3.385   3.534   7.077  0.5284  0.1543 -0.0617
27572SOL    HW184870   3.378   3.454   7.129  0.5992 -0.3605 -0.8318
27572SOL    HW284871   3.302   3.539   7.031  0.4591  0.6220  0.1076
27573SOL     OW84872   6.473   4.183   5.120  0.0240 -0.3582 -0.2386
27573SOL    HW184873   6.450   4.095   5.091 -0.2648 -0.2503 -0.3299
27573SOL    HW284874   6.555   4.203   5.074  1.0974 -1.2979  1.1457
27574SOL     OW84875   1.728   2.035   3.623  0.3095 -0.3023  0.1873
27574SOL    HW184876   1.753   1.993   3.541 -1.3930  0.7329 -0.9338
27574SOL    HW284877   1.733   1.966   3.688  1.1153 -1.3034 -0.8865
27575SOL     OW84878   9.238   7.558   5.864  0.2243  0.3691  0.1331
27575SOL    HW184879   9.200   7.471   5.854  1.2417 -0.1506  0.7024
27575SOL    HW284880   9.215   7.585   5.953 -0.3250  0.8095 -0.1348
27576SOL     OW84881   1.902   4.496   6.780 -0.7010  0.7599  0.4359
27576SOL    HW184882   1.971   4.437   6.750 -0.5140  1.1712  0.0493
27576SOL    HW284883   1.838   4.438   6.823 -0.3570  0.3209  0.3601
27577SOL     OW84884   6.592   6.858   0.305 -0.0042  0.1206 -0.3042
27577SOL    HW184885   6.523   6.805   0.346 -0.1223 -0.7206 -1.5437
27577SOL    HW284886   6.625   6.804   0.234 -0.9291  2.1359 -2.3931
27578SOL     OW84887   7.592   0.934   7.324 -0.0912 -0.2116  0.3742
27578SOL    HW184888   7.594   0.926   7.229  0.5051 -1.3878  0.4664
27578SOL    HW284889   7.505   0.970   7.343 -0.8392 -1.4783 -0.5306
27579SOL     OW84890   2.570   5.206   7.003 -0.4233 -0.2804  0.0610
27579SOL    HW184891   2.552   5.155   6.923 -0.9296 -0.5847  0.3674
27579SOL    HW284892   2.609   5.287   6.971 -1.0424 -0.2095 -0.5221
27580SOL     OW84893   5.317   1.179   5.678 -0.2272 -0.3491 -0.1242
27580SOL    HW184894   5.373   1.121   5.627  0.6146 -0.2233  0.6396
27580SOL    HW284895   5.267   1.228   5.613 -0.2402 -1.2202 -0.7959
27581SOL     OW84896   7.752   5.612   8.698  0.2931 -0.3750  0.1756
27581SOL    HW184897   7.766   5.584   8.608  0.2217  1.9936 -0.6518
27581SOL    HW284898   7.839   5.606   8.739  0.7711  0.4420 -0.6748
27582SOL     OW84899   4.845   1.366   4.614 -0.2968  0.4412  0.1759
27582SOL    HW184900   4.753   1.364   4.587 -0.9128  2.0321  1.9762
27582SOL    HW284901   4.859   1.454   4.648  2.0116  0.3398 -0.3316
27583SOL     OW84902   5.095   1.753   2.700  0.2582 -0.1722  0.2717
27583SOL    HW184903   5.117   1.828   2.756  2.0107 -0.0298 -0.5354
27583SOL    HW284904   5.000   1.758   2.689 -0.0497  0.2498  2.5510
27584SOL     OW84905   5.458   3.297   9.632  0.2160  0.7834  0.6535
27584SOL    HW184906   5.546   3.260   9.623 -0.3318 -1.3025  2.6336
27584SOL    HW284907   5.412   3.268   9.554  0.6453 -0.2800  0.7719
27585SOL     OW84908   8.786   7.549   4.639 -0.4757  0.2642  0.2696
27585SOL    HW184909   8.723   7.618   4.619 -2.1826 -1.0222  0.9573
27585SOL    HW284910   8.870   7.593   4.642 -1.3679  2.0976 -0.4404
27586SOL     OW84911   5.379   9.068   2.819  0.1591  0.6564  0.0206
27586SOL    HW184912   5.403   8.983   2.857  1.4625  0.6244 -0.8124
27586SOL    HW284913   5.314   9.103   2.879  1.4266  0.1933  1.7557
27587SOL     OW84914   2.107   4.772   1.199 -0.0073  0.0188  0.1166
27587SOL    HW184915   2.072   4.772   1.111 -0.6563  2.6955  0.2835
27587SOL    HW284916   2.177   4.837   1.197 -1.4835  1.8153  2.0189
27588SOL     OW84917   2.042   8.429   3.136  0.0846  0.1543  0.9146
27588SOL    HW184918   2.062   8.446   3.228 -0.3043  0.5280  0.9315
27588SOL    HW284919   1.958   8.384   3.137 -0.5004  1.2207  0.6810
27589SOL     OW84920   7.385   9.035   4.494 -0.2171  0.2152 -0.4770
27589SOL    HW184921   7.347   9.077   4.572 -1.0657  0.1050 -0.8296
27589SOL    HW284922   7.360   8.943   4.502 -0.4593  0.2384 -0.9728
27590SOL     OW84923   6.932   5.828   1.824 -0.5763  0.2974 -0.4992
27590SOL    HW184924   6.978   5.793   1.748 -1.2109 -1.0847 -0.2646
27590SOL    HW284925   6.856   5.872   1.787 -1.6546 -1.5817 -0.6326
27591SOL     OW84926   3.047   3.036   0.003  0.6675  0.5314 -0.0399
27591SOL    HW184927   3.055   3.082   0.087 -1.1744  0.2196  0.3405
27591SOL    HW284928   3.127   3.059  -0.044  1.6747  0.8342  1.7373
27592SOL     OW84929   5.366   5.265   1.151 -0.0871  0.2655 -0.0094
27592SOL    HW184930   5.274   5.284   1.132 -0.1545  0.2092  0.2695
27592SOL    HW284931   5.371   5.170   1.155 -0.1058  0.2854  0.4445
27593SOL     OW84932   4.063   7.885   5.077  0.6877  0.0289  0.4259
27593SOL    HW184933   4.045   7.961   5.132  1.5580  0.6827 -0.1629
27593SOL    HW284934   4.149   7.855   5.106  1.1551  0.3819 -0.5720
27594SOL     OW84935   5.339   2.382   7.950 -0.0859 -0.3557 -0.0558
27594SOL    HW184936   5.377   2.450   8.005 -1.5338  1.6021 -1.3356
27594SOL    HW284937   5.409   2.318   7.939  2.0733  1.9255 -0.4013
27595SOL     OW84938   8.748   8.075   8.729  0.1422 -0.2735  0.2350
27595SOL    HW184939   8.716   8.024   8.655 -1.2639  0.4917  0.2859
27595SOL    HW284940   8.754   8.165   8.695 -2.4594  0.4820  1.5399
27596SOL     OW84941   7.652   6.239   1.382  0.3320  0.0512  0.1692
27596SOL    HW184942   7.594   6.171   1.348  0.9730  0.0196 -0.8869
27596SOL    HW284943   7.740   6.208   1.363  0.7614 -0.1733  2.2834
27597SOL     OW84944   6.101   9.428   5.750 -0.7917 -0.1928 -0.2772
27597SOL    HW184945   6.039   9.357   5.732 -1.6427  0.0394  1.5219
27597SOL    HW284946   6.061   9.505   5.709 -1.9533  0.0385  1.2049
27598SOL     OW84947   8.254   3.810   0.241  0.7623 -0.4911  0.2649
27598SOL    HW184948   8.178   3.866   0.258 -0.4595 -2.2694  1.0116
27598SOL    HW284949   8.263   3.811   0.146 -0.4937 -0.5970  0.1251
27599SOL     OW84950   2.655   2.297   4.543  0.1797  0.5082 -0.3338
27599SOL    HW184951   2.667   2.322   4.634 -0.2345 -0.5033  0.0124
27599SOL    HW284952   2.561   2.281   4.534  0.3159 -0.0953 -0.7490
27600SOL     OW84953   3.667   2.171   8.105 -0.1079 -0.3651  0.3246
27600SOL    HW184954   3.649   2.184   8.198 -0.1321  0.3142  0.2257
27600SOL    HW284955   3.694   2.079   8.099  0.0725 -0.3637  1.0255
27601SOL     OW84956   8.813   2.721   8.963 -0.2243 -0.3806  0.1787
27601SOL    HW184957   8.832   2.700   9.054 -0.5560  0.8174  0.5477
27601SOL    HW284958   8.890   2.769   8.933 -0.8966  0.8994  0.4306
27602SOL     OW84959   5.140   2.264   3.966  0.0785 -0.3342 -0.3093
27602SOL    HW184960   5.055   2.224   3.951  0.4967 -0.8069 -1.5594
27602SOL    HW284961   5.124   2.358   3.958 -0.0654 -0.4862 -2.1240
27603SOL     OW84962   2.138   4.310   8.235  0.3890 -0.2828  0.4255
27603SOL    HW184963   2.147   4.316   8.140  1.0106  1.7985  0.5693
27603SOL    HW284964   2.044   4.311   8.250  0.3006  0.2736 -0.1339
27604SOL     OW84965   4.161   3.650   9.598  0.1310 -0.1426  0.1039
27604SOL    HW184966   4.157   3.579   9.535  0.0521 -0.5061  0.5165
27604SOL    HW284967   4.229   3.625   9.660 -0.2691 -0.1198  0.5619
27605SOL     OW84968   7.640   2.954   3.563 -0.1831  0.1063  0.8525
27605SOL    HW184969   7.647   2.951   3.468  0.7947  0.0119  0.9124
27605SOL    HW284970   7.597   3.038   3.582  1.3485  1.0390  0.3863
27606SOL     OW84971   7.519   9.399   8.567 -0.5112  0.4392 -0.1811
27606SOL    HW184972   7.469   9.368   8.492 -1.2677 -0.7330  0.7726
27606SOL    HW284973   7.459   9.456   8.614 -0.3043  0.5496 -0.0472
27607SOL     OW84974   0.289   1.960   6.020  0.3872 -0.2639 -0.4124
27607SOL    HW184975   0.208   1.970   5.970 -1.9340 -0.5638  2.9949
27607SOL    HW284976   0.289   2.034   6.080  1.3399 -1.5768  1.2972
27608SOL     OW84977   9.533   7.065   7.005 -0.5465 -0.4133  0.1548
27608SOL    HW184978   9.533   7.041   7.097  1.4832 -0.1400  0.2804
27608SOL    HW284979   9.573   7.153   7.003  1.4498 -1.2685 -1.0944
27609SOL     OW84980   6.448   3.647   6.820 -0.2942 -0.3685 -0.2155
27609SOL    HW184981   6.459   3.619   6.729 -0.0236  1.1241 -0.6727
27609SOL    HW284982   6.360   3.618   6.844  0.5931 -3.2447  0.0160
27610SOL     OW84983   3.322   1.800   6.602  0.0770  0.2082  0.2019
27610SOL    HW184984   3.227   1.807   6.594 -0.0786 -0.5524  1.2171
27610SOL    HW284985   3.352   1.781   6.513 -0.7689 -0.1218 -0.0249
27611SOL     OW84986   4.002   4.590   9.213 -0.1564  0.0242 -0.1021
27611SOL    HW184987   3.989   4.640   9.294 -1.9186 -1.5029  0.6072
27611SOL    HW284988   3.914   4.577   9.178  0.2435 -2.4618 -0.3333
27612SOL     OW84989   0.753   1.947   4.101 -0.3604  0.2353  0.0614
27612SOL    HW184990   0.685   1.950   4.033 -0.5466 -0.0163  0.2313
27612SOL    HW284991   0.705   1.930   4.182 -0.1018  0.1417  0.1969
27613SOL     OW84992   4.214   3.137   4.814 -0.5191 -0.3265 -0.0329
27613SOL    HW184993   4.298   3.180   4.821  0.7064 -2.1640 -2.0522
27613SOL    HW284994   4.183   3.128   4.904  1.1033  0.9978  0.6911
27614SOL     OW84995   3.787   2.639   1.508 -0.3627 -0.0987  0.9198
27614SOL    HW184996   3.698   2.668   1.485 -0.8030 -1.8914  0.2182
27614SOL    HW284997   3.841   2.669   1.435 -0.7819 -0.8602  0.2796
27615SOL     OW84998   6.984   3.028   4.919 -0.2586 -0.1741 -0.0397
27615SOL    HW184999   7.007   3.121   4.926 -0.6096 -0.0414 -0.5229
27615SOL    HW285000   6.889   3.029   4.908 -0.0882 -0.4595 -1.9770
27616SOL     OW85001   0.062   9.185   5.091 -0.2546  0.4648 -0.5771
27616SOL    HW185002  -0.007   9.233   5.137  0.5255  0.6170  0.4643
27616SOL    HW285003   0.068   9.102   5.137  1.3927  1.1041  0.4613
27617SOL     OW85004   1.130   8.263   5.644  0.1278 -0.0233 -0.0902
27617SOL    HW185005   1.204   8.280   5.585 -0.2123  2.5221  0.1064
27617SOL    HW285006   1.170   8.246   5.729  0.5224  0.1038 -0.2493
27618SOL     OW85007   0.589   6.613   5.856 -0.0079  0.6095 -0.4560
27618SOL    HW185008   0.646   6.582   5.786  2.1834 -0.0943  1.5130
27618SOL    HW285009   0.540   6.536   5.883 -1.1609  0.9741 -1.4345
27619SOL     OW85010   9.179   9.021   3.030 -0.3968 -0.4187 -0.1272
27619SOL    HW185011   9.247   9.071   3.076 -0.7010  0.2403 -0.3757
27619SOL    HW285012   9.125   9.088   2.987 -2.0552 -0.8136  1.2174
27620SOL     OW85013   6.023   6.357   8.026 -0.1054 -0.7241  0.4781
27620SOL    HW185014   6.061   6.346   7.939 -3.0605 -0.6114 -0.9724
27620SOL    HW285015   6.005   6.268   8.056 -2.3415 -0.7713 -0.7297
27621SOL     OW85016   6.154   5.868   9.474  0.4523 -0.3329  0.1591
27621SOL    HW185017   6.221   5.843   9.411  0.0914 -2.2961  0.4878
27621SOL    HW285018   6.128   5.956   9.448  2.3888  0.0627 -0.6111
27622SOL     OW85019   8.871   2.713   6.380 -0.3092 -0.5164  0.0044
27622SOL    HW185020   8.878   2.683   6.290  3.2076 -1.7611  0.5641
27622SOL    HW285021   8.857   2.808   6.372 -0.5847 -0.6657 -1.8079
27623SOL     OW85022   7.829   7.907   1.923 -0.4069 -0.0464 -0.5428
27623SOL    HW185023   7.734   7.911   1.920 -0.6004 -0.8362  1.9555
27623SOL    HW285024   7.858   7.965   1.852 -2.7261  0.8928 -0.8210
27624SOL     OW85025   1.241   8.775   3.281  0.2211 -0.2466 -0.5998
27624SOL    HW185026   1.289   8.724   3.345 -1.9760 -1.4132  0.2410
27624SOL    HW285027   1.302   8.844   3.253  1.7867 -0.7007  1.5004
27625SOL     OW85028   6.243   1.265   4.412  0.1163 -0.0362  0.4177
27625SOL    HW185029   6.252   1.257   4.507  1.5939 -2.0606  0.1747
27625SOL    HW285030   6.278   1.352   4.392  2.5342 -0.6706  1.4952
27626SOL     OW85031   7.768   8.155   6.745  0.7600 -0.2957  0.7122
27626SOL    HW185032   7.763   8.113   6.831  1.2078 -0.9055  0.4442
27626SOL    HW285033   7.727   8.093   6.685  1.3897 -0.3426  0.3191
27627SOL     OW85034   5.573   4.309   8.607  0.5199  0.4911  0.2525
27627SOL    HW185035   5.636   4.290   8.538  0.2414  1.1627 -0.1919
27627SOL    HW285036   5.602   4.393   8.644 -0.0177  0.7265  0.1490
27628SOL     OW85037   4.594   1.066   7.869  0.2976  0.3863  0.4968
27628SOL    HW185038   4.553   1.153   7.868 -2.2129 -0.7311  0.2489
27628SOL    HW285039   4.584   1.035   7.959 -3.5170 -1.6090 -0.4078
27629SOL     OW85040   4.807   1.631   7.969 -0.1936  0.1803  0.0222
27629SOL    HW185041   4.856   1.663   7.894 -0.1005  2.8508  1.1155
27629SOL    HW285042   4.874   1.611   8.035 -0.3443 -0.9120 -0.1385
27630SOL     OW85043   1.737   5.256   1.549  0.0984  0.2411  0.3854
27630SOL    HW185044   1.650   5.285   1.576  0.5942  1.7996  0.4464
27630SOL    HW285045   1.743   5.165   1.578 -0.6559  0.7987  2.4559
27631SOL     OW85046   8.706   2.676   2.011  0.1108  0.4233  0.4588
27631SOL    HW185047   8.746   2.591   1.989  0.0590 -0.4023  3.2339
27631SOL    HW285048   8.780   2.731   2.035  0.0402  0.8431 -0.2537
27632SOL     OW85049   1.736   0.087   6.405 -0.0247 -0.1127  0.1979
27632SOL    HW185050   1.718  -0.004   6.380 -0.3465  0.1808 -0.6655
27632SOL    HW285051   1.832   0.093   6.402  0.2323 -1.1698  3.0154
27633SOL     OW85052   6.598   6.516   0.387 -0.3786 -0.1407  0.0239
27633SOL    HW185053   6.530   6.576   0.419 -0.4422  0.7403 -1.6580
27633SOL    HW285054   6.604   6.534   0.293  0.3131 -2.1046 -0.3497
27634SOL     OW85055   4.421   5.862   7.120 -0.5855 -0.2124 -0.0370
27634SOL    HW185056   4.451   5.773   7.100  0.5774  0.0540  0.4449
27634SOL    HW285057   4.501   5.914   7.127 -1.2826  1.1136 -1.3419
27635SOL     OW85058   7.253   2.674   5.706 -0.2139  0.5732  0.0281
27635SOL    HW185059   7.271   2.736   5.777 -0.6184  0.0337  0.6154
27635SOL    HW285060   7.194   2.721   5.648 -1.4688  0.3544  1.0798
27636SOL     OW85061   7.173   5.443   6.847  0.3151  0.0695 -0.2694
27636SOL    HW185062   7.134   5.396   6.773 -0.4802 -0.1302  0.2709
27636SOL    HW285063   7.182   5.376   6.915 -0.9760  0.7126  0.5693
27637SOL     OW85064   4.516   1.998   0.031 -0.2084  0.5823  0.3125
27637SOL    HW185065   4.510   1.911   0.070  0.3070 -0.2242 -1.3101
27637SOL    HW285066   4.598   1.997  -0.018 -1.1866  1.2389 -1.4354
27638SOL     OW85067   7.853   3.861   3.623  0.1735 -0.1123  0.3632
27638SOL    HW185068   7.773   3.884   3.670 -0.2120  0.2577 -0.4565
27638SOL    HW285069   7.923   3.877   3.686 -0.3674 -0.1187  0.9774
27639SOL     OW85070   1.597   7.202   8.250 -0.5846  0.7516  0.1415
27639SOL    HW185071   1.668   7.140   8.240 -1.0381  0.2538 -0.0490
27639SOL    HW285072   1.532   7.156   8.303 -0.9917  1.0082 -0.1251
27640SOL     OW85073   5.547   8.268   5.455 -0.6205  0.2671  0.1295
27640SOL    HW185074   5.473   8.286   5.397 -0.6461 -0.4261 -0.0666
27640SOL    HW285075   5.584   8.187   5.421  1.2260  1.4380 -0.7559
27641SOL     OW85076   3.022   6.404   4.975 -0.0322 -0.3267 -0.4558
27641SOL    HW185077   2.945   6.447   5.012 -0.2780  0.0665 -1.4152
27641SOL    HW285078   3.045   6.336   5.040 -0.1161  0.7042  0.6918
27642SOL     OW85079   6.891   0.669   1.154 -0.2255  0.5752  0.1066
27642SOL    HW185080   6.901   0.760   1.126  0.2768 -0.2367 -2.6840
27642SOL    HW285081   6.804   0.665   1.194  0.4012  2.5716  1.8104
27643SOL     OW85082   0.906   6.467   0.582 -0.0974 -0.4074  0.1527
27643SOL    HW185083   0.944   6.528   0.644 -1.6685  0.2341  0.5360
27643SOL    HW285084   0.813   6.489   0.580 -0.3681 -1.4899 -1.2009
27644SOL     OW85085   5.509   0.878   9.510 -0.1912  0.6075  0.0691
27644SOL    HW185086   5.586   0.862   9.565  0.7555  1.6518 -0.9240
27644SOL    HW285087   5.445   0.915   9.571  0.1587 -0.0150  0.8493
27645SOL     OW85088   9.463   0.651   7.850 -0.3760 -0.1203 -0.1825
27645SOL    HW185089   9.425   0.713   7.912 -0.0258 -0.3174  0.2286
27645SOL    HW285090   9.555   0.677   7.844 -0.7126  0.8653 -1.7794
27646SOL     OW85091   0.002   0.630   5.446 -0.4537 -0.3182  0.2752
27646SOL    HW185092   0.089   0.591   5.453 -0.2230  0.2350  0.4784
27646SOL    HW285093  -0.049   0.588   5.517 -0.0022  0.2861  0.9668
27647SOL     OW85094   5.532   2.441   4.614  0.2896 -0.4680  0.1937
27647SOL    HW185095   5.521   2.493   4.694  0.6998 -0.5269  0.2876
27647SOL    HW285096   5.554   2.505   4.546 -0.6551 -0.3395 -0.0116
27648SOL     OW85097   5.515   0.043   8.927  0.0937 -0.1661 -0.2814
27648SOL    HW185098   5.424   0.059   8.953  0.2970  1.2407 -0.3787
27648SOL    HW285099   5.557   0.013   9.007 -0.1321  0.5744  0.1235
27649SOL     OW85100   5.450   8.107   0.447  0.3635  0.0001 -0.1585
27649SOL    HW185101   5.459   8.012   0.451 -0.1951 -0.0759 -0.5477
27649SOL    HW285102   5.400   8.130   0.525 -0.3330 -0.1426 -0.5517
27650SOL     OW85103   3.728   7.524   8.587 -0.4705 -0.5489  0.1050
27650SOL    HW185104   3.776   7.567   8.657 -1.5364 -1.4820  1.4624
27650SOL    HW285105   3.638   7.558   8.595 -0.2380  0.7389 -2.0182
27651SOL     OW85106   4.130   2.089   3.397 -0.4742  0.0065 -0.0357
27651SOL    HW185107   4.134   2.155   3.466 -0.0680  0.0172 -0.0649
27651SOL    HW285108   4.059   2.031   3.423 -1.4865  1.0006 -0.5070
27652SOL     OW85109   8.214   4.662   1.935 -0.3421 -0.1159 -0.3946
27652SOL    HW185110   8.279   4.732   1.941 -0.0414 -0.0989 -2.8206
27652SOL    HW285111   8.265   4.583   1.919 -0.7655 -0.6595  0.8823
27653SOL     OW85112   2.218   6.945   7.655  0.0145  0.5150 -0.0738
27653SOL    HW185113   2.296   6.893   7.673 -0.6905 -0.5739 -0.0623
27653SOL    HW285114   2.160   6.885   7.607 -1.0982  1.0651  0.5490
27654SOL     OW85115   2.772   1.456   6.122 -0.1821 -0.2615 -1.1582
27654SOL    HW185116   2.697   1.474   6.179  0.4302  1.6732 -0.8993
27654SOL    HW285117   2.763   1.363   6.100 -1.0370 -0.8066  1.1958
27655SOL     OW85118   4.482   5.562   7.566  0.3187 -0.7277 -0.4156
27655SOL    HW185119   4.551   5.516   7.518  1.8913  0.3025  0.7143
27655SOL    HW285120   4.503   5.547   7.658 -0.5668  0.1974 -0.0419
27656SOL     OW85121   3.225   8.132   6.318 -0.6191  0.5528  0.0882
27656SOL    HW185122   3.145   8.164   6.277 -3.3682 -2.2254  2.7189
27656SOL    HW285123   3.203   8.044   6.348  3.1036  0.0657  1.9841
27657SOL     OW85124   1.568   2.538   1.071  1.0187  0.3923  0.4493
27657SOL    HW185125   1.635   2.497   1.126 -0.7386 -2.3639  0.7368
27657SOL    HW285126   1.574   2.490   0.988 -0.4912  0.1663  0.4511
27658SOL     OW85127   8.105   6.798   7.730 -0.3055 -0.0414 -0.1913
27658SOL    HW185128   8.010   6.804   7.714 -0.5720  1.0766  1.6144
27658SOL    HW285129   8.123   6.865   7.795  1.5275 -1.0871  0.4421
27659SOL     OW85130   6.511   9.355   9.154  0.4399 -0.2586 -0.4801
27659SOL    HW185131   6.428   9.331   9.194  0.0597  1.7499  0.0549
27659SOL    HW285132   6.488   9.402   9.075  1.0644  0.1826 -0.4101
27660SOL     OW85133   9.297   4.986   9.100  0.1176  0.1177  0.1856
27660SOL    HW185134   9.277   4.930   9.025  1.6866 -0.9665  0.5354
27660SOL    HW285135   9.338   5.064   9.061 -0.5503  0.3046 -0.1737
27661SOL     OW85136   6.583   0.971   1.992  0.1334 -0.5434 -0.3347
27661SOL    HW185137   6.586   0.943   1.901 -0.9347 -0.8813 -0.2838
27661SOL    HW285138   6.592   1.067   1.988  0.8942 -0.6225 -0.7207
27662SOL     OW85139   4.816   9.477   2.229  0.2842  0.1830  0.5149
27662SOL    HW185140   4.867   9.523   2.296  0.3711 -0.8212  1.1493
27662SOL    HW285141   4.851   9.510   2.146  2.4799 -0.9609  0.9086
27663SOL     OW85142   3.340   7.455   4.483 -0.4405 -0.0956  0.0794
27663SOL    HW185143   3.321   7.425   4.572  0.0139 -0.1689  0.1561
27663SOL    HW285144   3.388   7.381   4.444  0.7352  0.5281  0.2829
27664SOL     OW85145   4.358   1.119   3.487  0.3898 -0.4497 -0.1830
27664SOL    HW185146   4.411   1.044   3.514 -1.5711 -1.9335 -0.2179
27664SOL    HW285147   4.411   1.196   3.509  2.1136 -1.8205  0.6343
27665SOL     OW85148   7.851   7.030   7.595 -0.0731  0.1786  0.2212
27665SOL    HW185149   7.920   7.076   7.549 -0.8147  0.6552 -0.4471
27665SOL    HW285150   7.858   7.060   7.686 -0.5137  1.5968 -0.1916
27666SOL     OW85151   7.779   3.952   7.099 -0.0741 -0.3039 -0.4169
27666SOL    HW185152   7.729   3.872   7.119  0.9215 -0.5515  1.2910
27666SOL    HW285153   7.747   4.016   7.163  0.7142 -0.0160 -0.3051
27667SOL     OW85154   4.785   5.964   3.516  0.8992 -0.2692 -0.2717
27667SOL    HW185155   4.703   5.958   3.466 -0.3576 -0.7409  1.7249
27667SOL    HW285156   4.829   5.881   3.500 -1.0259 -1.8291  1.7982
27668SOL     OW85157   6.315   3.132   1.326 -0.9708  0.0227 -0.0167
27668SOL    HW185158   6.363   3.147   1.244 -1.8004  0.0769 -0.5089
27668SOL    HW285159   6.251   3.064   1.304  0.1435 -1.4696  1.1463
27669SOL     OW85160   7.158   1.289   8.828  1.4777  0.3329  0.0224
27669SOL    HW185161   7.139   1.378   8.796  1.8133 -0.2462 -1.8778
27669SOL    HW285162   7.174   1.301   8.922 -0.7823  1.9476  0.3150
27670SOL     OW85163   5.731   8.387   7.250 -0.0552  0.0834  0.0295
27670SOL    HW185164   5.778   8.406   7.169 -2.3759  1.9354 -1.0057
27670SOL    HW285165   5.726   8.470   7.296 -2.7859  0.1608 -0.2426
27671SOL     OW85166   7.749   1.831   1.471 -0.0107 -0.1963 -0.0314
27671SOL    HW185167   7.795   1.914   1.481  0.0633 -0.2799  0.3332
27671SOL    HW285168   7.811   1.765   1.501 -0.0560 -0.3896 -0.3544
27672SOL     OW85169   0.050   1.896   2.766  0.0738  0.1002 -0.4645
27672SOL    HW185170   0.061   1.956   2.693  1.8849  0.7362  0.2652
27672SOL    HW285171   0.135   1.851   2.773  0.2983  0.7455  1.7772
27673SOL     OW85172   7.197   9.456   2.251 -0.3425 -0.1459 -0.1586
27673SOL    HW185173   7.104   9.468   2.267 -0.2814 -0.2743  0.3201
27673SOL    HW285174   7.205   9.451   2.156 -0.6058  1.6272 -0.3000
27674SOL     OW85175   2.699   7.692   6.599  0.0358 -0.7400  0.2582
27674SOL    HW185176   2.779   7.745   6.598 -1.4870  1.7138  0.9461
27674SOL    HW285177   2.628   7.756   6.595 -2.0894 -2.3090  5.3899
27675SOL     OW85178   5.140   5.297   8.437  0.1735  0.0181  0.0389
27675SOL    HW185179   5.138   5.315   8.531  0.5753  0.9401 -0.1162
27675SOL    HW285180   5.059   5.250   8.420  0.4216 -0.7772  0.9619
27676SOL     OW85181   3.305   4.152   1.752  0.1624 -0.3532 -0.3160
27676SOL    HW185182   3.279   4.127   1.663  0.0513  2.3877 -1.1537
27676SOL    HW285183   3.383   4.206   1.740 -1.0467  1.8196  0.9923
27677SOL     OW85184   6.312   3.812   3.768  0.1705  0.6753 -0.1485
27677SOL    HW185185   6.392   3.859   3.791  1.1234 -0.6111 -0.6693
27677SOL    HW285186   6.242   3.876   3.779  1.2843  1.8833  0.1778
27678SOL     OW85187   0.531   5.928   8.666  0.2021 -0.0880 -0.2949
27678SOL    HW185188   0.535   5.834   8.653 -0.4824 -0.2009  0.2327
27678SOL    HW285189   0.481   5.961   8.591  1.2278 -0.0188 -0.9702
27679SOL     OW85190   9.551   3.778   7.360 -0.0663  0.0142  0.4232
27679SOL    HW185191   9.640   3.756   7.387 -0.2212 -1.5484 -0.2079
27679SOL    HW285192   9.495   3.728   7.421 -0.5020  0.5800  0.4962
27680SOL     OW85193   6.172   7.504   1.829  0.0782 -0.0372  0.1078
27680SOL    HW185194   6.090   7.518   1.876  0.2718  2.1838 -0.1148
27680SOL    HW285195   6.230   7.574   1.859  1.2303 -0.3688 -1.2118
27681SOL     OW85196   5.628   3.603   4.889 -0.0055  0.1856 -0.1573
27681SOL    HW185197   5.563   3.534   4.897  0.6399 -0.3968  0.1832
27681SOL    HW285198   5.615   3.657   4.968  0.5943 -0.5226  0.4365
27682SOL     OW85199   0.674   3.873   7.690  0.2339 -0.3302 -0.2305
27682SOL    HW185200   0.711   3.927   7.620 -3.2094  1.6604 -0.7295
27682SOL    HW285201   0.636   3.798   7.645 -1.8762  0.8910 -0.6130
27683SOL     OW85202   8.573   1.415   1.776  0.1315 -0.2937  0.1380
27683SOL    HW185203   8.526   1.413   1.859  1.2308 -3.3244  0.7846
27683SOL    HW285204   8.520   1.362   1.717  2.4502 -3.7597  0.8746
27684SOL     OW85205   6.619   1.880   4.788  0.1761 -0.4344 -0.7297
27684SOL    HW185206   6.579   1.965   4.770 -0.1186  0.0913  1.9814
27684SOL    HW285207   6.546   1.819   4.788 -0.0949 -0.1365  0.2984
27685SOL     OW85208   2.320   8.385   4.698  0.0188  0.0275  0.0290
27685SOL    HW185209   2.414   8.375   4.683  0.3465 -0.1402  1.9894
27685SOL    HW285210   2.298   8.318   4.763 -1.5740 -0.2678 -0.7546
27686SOL     OW85211   4.019   1.023   6.962  1.3781  0.1105 -0.1243
27686SOL    HW185212   4.080   1.067   7.022  0.4939  1.0663  0.0928
27686SOL    HW285213   3.937   1.018   7.011  0.9186  0.0162 -0.8961
27687SOL     OW85214   2.133   1.303   1.477  0.4112 -0.2063  0.7658
27687SOL    HW185215   2.074   1.228   1.477 -1.4026  1.1352 -0.8405
27687SOL    HW285216   2.214   1.269   1.438 -0.5864 -1.2123 -0.5307
27688SOL     OW85217   4.888   2.278   5.256 -0.5598  0.4750 -0.6295
27688SOL    HW185218   4.923   2.364   5.279 -1.4969  1.4136 -2.5146
27688SOL    HW285219   4.877   2.280   5.161  0.6712 -2.2542 -0.9225
27689SOL     OW85220   4.746   0.216   0.936  0.0789  0.2646  0.5440
27689SOL    HW185221   4.713   0.198   0.848  2.0633 -1.8591  0.1349
27689SOL    HW285222   4.707   0.300   0.959  0.4568  1.5507 -2.8671
27690SOL     OW85223   2.007   1.810   0.411  0.0508  0.4375 -0.1683
27690SOL    HW185224   2.016   1.756   0.332 -0.6329 -1.4629  1.0020
27690SOL    HW285225   2.090   1.859   0.416  0.9448 -0.9237 -0.9744
27691SOL     OW85226   8.125   4.958   4.057  0.3852 -0.3829 -0.0174
27691SOL    HW185227   8.071   4.907   4.117  1.3495 -1.3590  0.0574
27691SOL    HW285228   8.193   4.996   4.112 -0.3593  1.0791 -0.0619
27692SOL     OW85229   5.961   7.208   8.185  0.2636  0.2390  0.3827
27692SOL    HW185230   5.980   7.259   8.106 -1.7885  0.9368  0.2763
27692SOL    HW285231   6.039   7.154   8.198  0.4346 -0.3180 -2.4185
27693SOL     OW85232   0.735   7.418   3.650 -0.1894  0.3340 -0.3228
27693SOL    HW185233   0.664   7.355   3.637  1.3717 -1.6890  0.2867
27693SOL    HW285234   0.736   7.434   3.745  0.9518 -0.7067 -0.1339
27694SOL     OW85235   6.745   4.168   8.393  0.0664  0.3812 -0.0400
27694SOL    HW185236   6.686   4.210   8.456  0.2542  0.5532  0.0244
27694SOL    HW285237   6.826   4.152   8.443  0.8761  2.1596 -0.6811
27695SOL     OW85238   6.631   9.581   8.595  1.1459  0.4608  0.0412
27695SOL    HW185239   6.700   9.624   8.644  0.6166  0.8440  0.4593
27695SOL    HW285240   6.596   9.515   8.655  1.7227 -0.3248 -0.4730
27696SOL     OW85241   7.273   7.268   3.238 -0.2270 -0.7802  0.2514
27696SOL    HW185242   7.344   7.290   3.298  0.1602 -2.1261  0.3236
27696SOL    HW285243   7.194   7.271   3.291 -0.2901  1.0762  0.0916
27697SOL     OW85244   9.191   4.787   2.437  0.2541  0.1699  0.7085
27697SOL    HW185245   9.251   4.713   2.423 -0.2403 -0.2981  1.0183
27697SOL    HW285246   9.172   4.820   2.349  0.9992  0.3551  0.6093
27698SOL     OW85247   8.118   3.671   0.741  0.1787 -0.1227 -0.2745
27698SOL    HW185248   8.174   3.619   0.684  2.5227  1.3330  0.5751
27698SOL    HW285249   8.141   3.643   0.829  0.0570  0.9690  0.1170
27699SOL     OW85250   4.038   8.356   7.493 -0.3785 -0.3996  0.2046
27699SOL    HW185251   4.069   8.405   7.569 -0.9750 -0.2647  0.3660
27699SOL    HW285252   4.093   8.277   7.491  2.4959  1.4696 -1.6578
27700SOL     OW85253   7.760   4.233   9.444  0.5972  0.3012  0.8564
27700SOL    HW185254   7.710   4.309   9.415  1.4453  0.4215 -0.4262
27700SOL    HW285255   7.839   4.269   9.485  1.7402  0.1954 -1.0924
27701SOL     OW85256   3.537   1.114   0.621  0.1025  0.7443  0.4157
27701SOL    HW185257   3.467   1.053   0.599 -1.6330  1.8640  2.4768
27701SOL    HW285258   3.551   1.165   0.541 -0.1007 -0.7244 -0.5867
27702SOL     OW85259   2.097   4.577   8.869 -0.2516 -0.0636 -0.2887
27702SOL    HW185260   2.106   4.485   8.896 -0.6936  0.1620  0.7042
27702SOL    HW285261   2.003   4.589   8.857 -0.3156  0.5148  0.6351
27703SOL     OW85262   0.256   4.821   7.057  0.2222  0.1283  0.3274
27703SOL    HW185263   0.186   4.804   7.120 -0.9225  0.1012 -0.9096
27703SOL    HW285264   0.292   4.905   7.084 -0.1333  0.0368  1.1213
27704SOL     OW85265   6.385   8.432   5.702 -0.1673 -0.1900 -0.0162
27704SOL    HW185266   6.315   8.444   5.638  0.9679  0.4953 -1.1680
27704SOL    HW285267   6.351   8.471   5.783 -0.9350  0.5475 -0.6782
27705SOL     OW85268   9.216   5.446   1.811  0.1244  0.2949  0.2958
27705SOL    HW185269   9.247   5.420   1.897 -0.3017 -1.2846  0.0142
27705SOL    HW285270   9.286   5.420   1.751 -0.8964 -1.6914 -0.1496
27706SOL     OW85271   7.030   4.507   5.956 -0.5371 -0.9446 -0.6538
27706SOL    HW185272   7.099   4.464   5.906 -0.1795 -2.3782  0.9601
27706SOL    HW285273   7.021   4.453   6.035 -2.4544  0.0793 -0.1178
27707SOL     OW85274   9.438   5.838   2.434 -0.1390 -0.1193 -0.5323
27707SOL    HW185275   9.446   5.901   2.506 -0.4215  0.4361 -0.9852
27707SOL    HW285276   9.441   5.891   2.355 -0.7475 -0.6396 -0.9102
27708SOL     OW85277   6.539   6.543   9.155 -0.1194  0.1183  0.6796
27708SOL    HW185278   6.602   6.533   9.226  2.0336 -1.0293 -1.2662
27708SOL    HW285279   6.579   6.608   9.096 -0.9082 -0.3693 -0.4324
27709SOL     OW85280   8.878   3.207   4.643  0.3063 -0.1079 -0.1377
27709SOL    HW185281   8.934   3.243   4.712  0.4541  0.4618 -0.5464
27709SOL    HW285282   8.811   3.157   4.690 -1.0840  2.2663  0.6169
27710SOL     OW85283   3.555   2.487   2.342  0.1613 -0.2361 -0.2702
27710SOL    HW185284   3.460   2.473   2.338  0.3984 -1.6763 -1.9216
27710SOL    HW285285   3.567   2.578   2.314 -0.6898 -0.2596 -0.7514
27711SOL     OW85286   6.416   0.514   2.366  0.0044 -0.1239 -0.1160
27711SOL    HW185287   6.510   0.509   2.383 -0.0602  2.7918  1.9086
27711SOL    HW285288   6.377   0.522   2.453 -1.9469  0.4857 -0.9965
27712SOL     OW85289   5.895   2.273   5.144 -0.8082 -0.4399  0.0817
27712SOL    HW185290   5.900   2.254   5.237  2.5552 -1.0338 -0.1129
27712SOL    HW285291   5.934   2.359   5.134  1.0713 -1.3474 -0.9537
27713SOL     OW85292   1.766   1.040   2.704 -0.2913 -0.2862  0.3610
27713SOL    HW185293   1.814   0.961   2.680  1.1648  1.1286 -1.5866
27713SOL    HW285294   1.829   1.111   2.698 -1.8497  1.2293  0.8582
27714SOL     OW85295   2.898   7.727   4.454  0.2070  0.0762 -0.0013
27714SOL    HW185296   2.968   7.764   4.508  1.0542  1.5370 -1.9687
27714SOL    HW285297   2.931   7.641   4.427  0.6220  0.1613  0.2286
27715SOL     OW85298   7.544   7.893   7.157  0.0178 -0.3617  0.6432
27715SOL    HW185299   7.588   7.877   7.073 -0.9540 -0.3333  0.1227
27715SOL    HW285300   7.451   7.879   7.139 -0.1645 -0.7712  1.8191
27716SOL     OW85301   0.986   4.842   2.692  0.2002 -0.0868 -0.1746
27716SOL    HW185302   1.021   4.913   2.639 -0.1789  1.7567  1.9288
27716SOL    HW285303   0.897   4.830   2.660  0.3538  0.1656 -0.7161
27717SOL     OW85304   9.505   6.901   5.183  0.8176  0.4529  0.4690
27717SOL    HW185305   9.485   6.810   5.162 -0.6064  0.8550  0.0130
27717SOL    HW285306   9.572   6.895   5.251 -0.4155 -0.9553  1.6162
27718SOL     OW85307   3.755   8.224   0.567 -0.1389  0.5546  0.1439
27718SOL    HW185308   3.776   8.139   0.604 -0.0987 -0.0852 -1.2656
27718SOL    HW285309   3.815   8.233   0.492  0.3515  2.1372  0.6803
27719SOL     OW85310   1.122   8.449   8.359  0.4651  0.0114  0.4101
27719SOL    HW185311   1.079   8.486   8.282  1.9636 -1.4491 -1.2071
27719SOL    HW285312   1.215   8.462   8.344  0.8335 -0.9381  1.6508
27720SOL     OW85313   5.445   6.115   1.002 -0.0962 -0.0515 -0.0763
27720SOL    HW185314   5.498   6.041   0.971 -2.5275 -1.1140 -2.0988
27720SOL    HW285315   5.393   6.141   0.925 -0.2065  3.0201  0.8982
27721SOL     OW85316   5.703   9.280   7.118 -0.4180  0.3128 -0.2592
27721SOL    HW185317   5.619   9.327   7.117 -0.4690  0.2207 -0.6074
27721SOL    HW285318   5.678   9.188   7.118 -0.3155  0.2855 -0.3956
27722SOL     OW85319   3.816   8.889   5.289  0.2246  0.2520 -0.0640
27722SOL    HW185320   3.791   8.972   5.329  0.4726  0.3491 -0.1035
27722SOL    HW285321   3.863   8.915   5.209  0.8500  0.0909  0.2449
27723SOL     OW85322   4.952   5.890   0.378 -0.1804 -0.3165  0.0016
27723SOL    HW185323   4.958   5.883   0.473  0.2912  0.0919  0.0032
27723SOL    HW285324   4.872   5.842   0.356  0.5996 -1.8698  0.4301
27724SOL     OW85325   6.028   3.734   2.053  0.2259 -0.4073 -0.5650
27724SOL    HW185326   6.098   3.696   2.000 -0.1647 -0.8106 -0.8022
27724SOL    HW285327   6.073   3.778   2.125  0.7925  0.6199 -1.5240
27725SOL     OW85328   8.874   3.330   0.697 -0.1031 -0.3615  0.2057
27725SOL    HW185329   8.842   3.418   0.675  0.8528 -0.0308  0.1125
27725SOL    HW285330   8.964   3.329   0.666 -0.1749 -1.4640 -0.0022
27726SOL     OW85331   8.686   0.309   7.026 -0.6400  0.4895  0.4617
27726SOL    HW185332   8.668   0.217   7.044  1.8123  0.0586  1.0685
27726SOL    HW285333   8.694   0.350   7.112 -1.2494  1.1811  0.1999
27727SOL     OW85334   2.144   0.233   1.907 -0.1470 -0.1662 -0.1950
27727SOL    HW185335   2.059   0.229   1.950  0.3022  0.0692  0.7399
27727SOL    HW285336   2.156   0.145   1.870 -0.8411 -0.1632 -0.4431
27728SOL     OW85337   0.952   9.092   5.199 -0.0432 -0.1347 -0.6783
27728SOL    HW185338   0.961   9.016   5.255 -0.7356  0.5776  0.4425
27728SOL    HW285339   1.024   9.085   5.136  2.0044  0.0980  1.5304
27729SOL     OW85340   6.204   5.966   8.972 -0.5406 -0.1865  0.3680
27729SOL    HW185341   6.243   5.908   8.907  0.9432 -0.5418  1.5221
27729SOL    HW285342   6.184   6.047   8.924  1.2311 -0.1556 -0.3856
27730SOL     OW85343   3.972   2.669   2.226 -0.3342 -0.2502 -0.2151
27730SOL    HW185344   3.925   2.588   2.245 -1.6233 -0.2024 -2.7881
27730SOL    HW285345   4.050   2.641   2.179  0.9911 -0.1489  1.8082
27731SOL     OW85346   3.087   6.900   4.774 -0.2503  0.6587  0.0722
27731SOL    HW185347   2.991   6.895   4.779 -0.2511 -0.6327 -0.6775
27731SOL    HW285348   3.118   6.854   4.851 -0.2527 -0.4919 -0.5929
27732SOL     OW85349   4.716   2.769   9.197 -0.4611  0.2186 -0.2234
27732SOL    HW185350   4.678   2.856   9.212 -1.0667 -0.0790  0.0056
27732SOL    HW285351   4.650   2.723   9.144 -0.1830 -0.1309 -0.2658
27733SOL     OW85352   7.089   2.683   7.744  0.1993  0.4101 -0.4078
27733SOL    HW185353   7.139   2.661   7.666 -0.4449  1.4967 -1.1550
27733SOL    HW285354   7.007   2.718   7.711 -0.8344 -0.7555  0.7844
27734SOL     OW85355   9.357   7.519   9.207  0.1081  0.6327  0.0583
27734SOL    HW185356   9.372   7.471   9.288  1.1949 -0.8249 -0.9569
27734SOL    HW285357   9.286   7.472   9.164 -0.2123  1.1744 -0.0112
27735SOL     OW85358   0.347   3.275   2.864  0.3931 -0.4419 -0.4796
27735SOL    HW185359   0.328   3.270   2.957  0.2034 -1.3051 -0.5596
27735SOL    HW285360   0.360   3.184   2.837  2.5960 -0.0696 -0.8538
27736SOL     OW85361   7.225   4.127   3.131  0.0216  0.8695  0.3936
27736SOL    HW185362   7.295   4.186   3.104 -0.3842  0.9869 -0.4574
27736SOL    HW285363   7.192   4.090   3.049 -0.2873  0.1049  0.8544
27737SOL     OW85364   1.605   7.419   5.645  0.0702 -0.1609 -0.3275
27737SOL    HW185365   1.627   7.430   5.552  1.0900 -0.1858 -0.1024
27737SOL    HW285366   1.587   7.326   5.654  0.3342 -0.2250 -0.4344
27738SOL     OW85367   2.828   7.089   3.334 -0.4841 -0.4229 -0.1101
27738SOL    HW185368   2.764   7.110   3.265  1.7880  0.8262 -1.9855
27738SOL    HW285369   2.802   7.143   3.408 -1.7833 -0.1990 -0.7006
27739SOL     OW85370   5.883   3.892   8.343 -0.5729  0.1030  0.2096
27739SOL    HW185371   5.852   3.946   8.415  0.1988  0.4489  0.2888
27739SOL    HW285372   5.966   3.855   8.374 -0.7186 -0.5317 -0.1268
27740SOL     OW85373   1.059   1.319   1.399 -0.1101 -0.2478 -0.3844
27740SOL    HW185374   1.018   1.233   1.386 -1.5475  0.2171  0.7161
27740SOL    HW285375   1.041   1.366   1.317 -0.5658 -0.5216 -0.4475
27741SOL     OW85376   7.671   8.744   3.313  0.3444  0.5338 -0.0398
27741SOL    HW185377   7.642   8.738   3.403 -0.8390  0.5926 -0.3987
27741SOL    HW285378   7.628   8.670   3.269 -1.9871  2.4826 -1.2702
27742SOL     OW85379   1.934   7.749   0.152 -0.3526 -0.3961  0.1814
27742SOL    HW185380   1.956   7.792   0.069 -1.0426  0.2244  0.3067
27742SOL    HW285381   1.984   7.798   0.217  0.1667 -0.8657  0.1427
27743SOL     OW85382   8.961   9.133   4.502 -0.4979  0.7398 -0.8579
27743SOL    HW185383   8.984   9.081   4.579 -0.6250  1.5255 -0.2802
27743SOL    HW285384   8.889   9.085   4.461 -0.8452  0.6325 -0.1389
27744SOL     OW85385   3.035   4.248   7.107  0.4957  0.3052  0.1638
27744SOL    HW185386   2.943   4.230   7.092  0.6889 -1.4830  0.8646
27744SOL    HW285387   3.075   4.243   7.020  0.4130 -2.3350  0.1886
27745SOL     OW85388   4.933   3.022   6.501  0.1423 -0.0738 -0.0073
27745SOL    HW185389   4.925   3.082   6.574 -0.6232  0.1634 -0.2798
27745SOL    HW285390   4.982   3.071   6.435  1.3731 -0.5002  0.5591
27746SOL     OW85391   2.123   1.770   8.003 -0.5602  0.2186 -0.0454
27746SOL    HW185392   2.188   1.712   8.042 -0.6195  0.9777  1.2319
27746SOL    HW285393   2.044   1.717   7.996  0.4858 -1.2165 -3.0452
27747SOL     OW85394   2.198   2.871   8.463 -0.7545  0.4059  0.2349
27747SOL    HW185395   2.199   2.781   8.495 -0.6886  0.9306  1.7961
27747SOL    HW285396   2.123   2.874   8.403 -0.8693 -0.6358  0.3042
27748SOL     OW85397   3.953   5.292   4.806  0.1934 -0.2640  0.1499
27748SOL    HW185398   4.000   5.208   4.799  1.1043  0.2647 -0.2663
27748SOL    HW285399   3.899   5.295   4.727 -0.9548 -1.1068  0.8790
27749SOL     OW85400   2.260   0.527   4.533  0.1877  0.0556  0.2562
27749SOL    HW185401   2.331   0.581   4.500  0.1093  0.7958  1.2535
27749SOL    HW285402   2.284   0.438   4.510  1.5697  0.2681  0.8006
27750SOL     OW85403   5.527   8.948   2.377 -0.0377 -0.6934  0.0682
27750SOL    HW185404   5.481   8.941   2.294 -0.5863 -3.4216  0.5183
27750SOL    HW285405   5.471   9.004   2.431 -1.0937 -1.1729 -0.5010
27751SOL     OW85406   8.886   5.400   8.290 -0.1552  0.2643 -0.2039
27751SOL    HW185407   8.966   5.420   8.242  0.0985 -0.2287  0.0042
27751SOL    HW285408   8.816   5.409   8.226  0.1163  0.2482 -0.5018
27752SOL     OW85409   1.461   5.289   1.596 -0.3962  0.3564  0.1233
27752SOL    HW185410   1.426   5.299   1.507  0.3410 -2.3376 -0.5809
27752SOL    HW285411   1.388   5.253   1.647  0.3013 -2.3720 -0.6030
27753SOL     OW85412   5.957   8.912   4.970  0.2459 -0.6361  0.1979
27753SOL    HW185413   5.941   9.001   4.940 -1.2231 -1.2993 -1.1417
27753SOL    HW285414   5.898   8.858   4.917  2.0097 -2.5505  0.0471
27754SOL     OW85415   1.225   1.684   3.540 -0.3080  0.0733  0.5942
27754SOL    HW185416   1.171   1.763   3.537 -0.2775  0.1729  1.8965
27754SOL    HW285417   1.294   1.705   3.603 -0.8349 -1.2846  1.6984
27755SOL     OW85418   0.545   7.870   1.183  0.2766 -0.1832  0.0201
27755SOL    HW185419   0.487   7.945   1.194  0.7256  0.5277 -2.0850
27755SOL    HW285420   0.487   7.795   1.172 -0.2224  0.2498 -0.3154
27756SOL     OW85421   5.048   0.500   4.405  0.1783 -0.4220  0.3646
27756SOL    HW185422   4.953   0.498   4.399  0.2539 -0.6373 -0.9615
27756SOL    HW285423   5.077   0.413   4.377  0.8030 -0.0471 -0.1907
27757SOL     OW85424   1.815   3.990   2.507 -0.4203 -0.3322 -0.3778
27757SOL    HW185425   1.770   4.035   2.435 -0.1748  1.8606  0.7528
27757SOL    HW285426   1.872   3.926   2.464 -1.4866 -0.2255 -2.0335
27758SOL     OW85427   0.529   6.746   3.945  0.3241  0.9997 -0.5595
27758SOL    HW185428   0.481   6.819   3.984 -0.9422 -0.5071  0.8129
27758SOL    HW285429   0.494   6.668   3.988  1.3978 -0.4665 -2.2158
27759SOL     OW85430   5.776   5.948   2.503  0.3805  0.0737 -0.0479
27759SOL    HW185431   5.866   5.932   2.530  0.9314  1.6095 -0.8248
27759SOL    HW285432   5.782   5.969   2.409 -0.6280  1.2052  0.1054
27760SOL     OW85433   8.542   3.320   7.794  0.1693 -0.3547 -0.0681
27760SOL    HW185434   8.502   3.246   7.839  1.5884 -1.6899 -0.9211
27760SOL    HW285435   8.475   3.389   7.797 -0.7279 -1.2268  1.8148
27761SOL     OW85436   1.560   0.795   8.765 -0.0988 -0.2684  0.2795
27761SOL    HW185437   1.500   0.768   8.834  0.9240 -3.1021  0.2019
27761SOL    HW285438   1.572   0.717   8.712  1.2503  1.0798 -1.5199
27762SOL     OW85439   9.560   3.584   6.528 -0.6277  0.1319 -0.3784
27762SOL    HW185440   9.551   3.497   6.568 -1.2265 -0.5744 -1.9794
27762SOL    HW285441   9.514   3.643   6.588  0.1878 -0.5497  0.9778
27763SOL     OW85442   3.991   1.140   3.438 -0.7301 -0.0056  0.1876
27763SOL    HW185443   4.030   1.215   3.394  1.0635 -0.1778  1.3584
27763SOL    HW285444   4.039   1.065   3.403 -2.1604 -0.5891 -0.6047
27764SOL     OW85445   7.315   1.074   6.657 -0.0042 -0.2246  0.2702
27764SOL    HW185446   7.248   1.052   6.722  0.2418 -0.2044  0.5348
27764SOL    HW285447   7.397   1.044   6.696  0.3667  1.2767  0.7178
27765SOL     OW85448   3.922   5.067   3.291 -0.2497  0.4591 -0.4997
27765SOL    HW185449   3.901   4.977   3.267 -0.7354  0.2510  0.6532
27765SOL    HW285450   4.018   5.068   3.295 -0.2586 -0.2464  0.3051
27766SOL     OW85451   6.054   8.868   7.702 -0.9744  0.7297 -0.2420
27766SOL    HW185452   5.987   8.935   7.709 -0.9088  0.6891  1.2442
27766SOL    HW285453   6.050   8.822   7.786  0.4567  0.3099 -0.3744
27767SOL     OW85454   2.933   1.537   7.169 -0.0349  0.8134 -0.2710
27767SOL    HW185455   2.970   1.481   7.101  1.3058  2.1403 -0.6992
27767SOL    HW285456   2.840   1.541   7.149  0.2050  0.5197 -1.5501
27768SOL     OW85457   7.794   5.828   2.917 -0.0305  0.1073  0.6743
27768SOL    HW185458   7.882   5.852   2.945  0.4841 -1.2095  0.2723
27768SOL    HW285459   7.782   5.873   2.833  0.6704 -0.5172  0.2291
27769SOL     OW85460   2.258   3.939   1.565 -0.2432 -0.3296 -0.3076
27769SOL    HW185461   2.280   3.870   1.628 -2.1308 -0.4074  0.3572
27769SOL    HW285462   2.169   3.916   1.536 -1.7974  2.7930  1.4441
27770SOL     OW85463   5.345   3.623   8.529 -0.0990  0.3092  0.4642
27770SOL    HW185464   5.273   3.666   8.483  0.1702  0.5046  0.2196
27770SOL    HW285465   5.310   3.602   8.615 -1.1364 -1.4906 -0.3435
27771SOL     OW85466   5.099   3.052   2.276 -0.3692 -0.2347  0.5478
27771SOL    HW185467   5.014   3.022   2.306 -0.0685 -0.7900  0.8460
27771SOL    HW285468   5.162   3.009   2.333  0.0586  1.4399  1.4121
27772SOL     OW85469   4.067   0.582   7.234 -0.7409  0.6469  0.2443
27772SOL    HW185470   4.152   0.624   7.227 -0.8770  1.0399  0.8788
27772SOL    HW285471   4.031   0.586   7.145 -0.6207  1.6178  0.2214
27773SOL     OW85472   1.867   5.263   7.865  0.2079  0.0714  0.0642
27773SOL    HW185473   1.878   5.168   7.859  0.8457  0.1867 -0.9189
27773SOL    HW285474   1.773   5.275   7.872  0.0331 -0.6064 -0.8902
27774SOL     OW85475   1.058   3.926   8.699  0.5102  0.1064 -0.1110
27774SOL    HW185476   1.044   3.867   8.625  0.9145  1.3394 -1.2106
27774SOL    HW285477   0.971   3.938   8.737  0.2761 -0.4314 -0.4706
27775SOL     OW85478   1.353   8.499   0.922 -0.4205 -0.0105 -0.4954
27775SOL    HW185479   1.259   8.516   0.923 -0.7054 -1.3975 -1.5628
27775SOL    HW285480   1.362   8.413   0.963  0.6364  1.0501  1.6539
27776SOL     OW85481   9.168   5.743   0.672  0.1932 -0.3164  0.3868
27776SOL    HW185482   9.241   5.682   0.683  0.1718 -0.8207 -1.7871
27776SOL    HW285483   9.196   5.801   0.601 -0.4003  1.2900  1.4185
27777SOL     OW85484   8.628   7.235   5.707  0.4101  0.0270  0.6047
27777SOL    HW185485   8.699   7.171   5.696  1.8102  1.7215 -0.9593
27777SOL    HW285486   8.561   7.208   5.644 -0.7785 -2.0556  2.6566
27778SOL     OW85487   2.198   2.266   6.928 -0.0388  0.5289  0.2347
27778SOL    HW185488   2.169   2.322   6.856  0.8453  0.3259 -0.3062
27778SOL    HW285489   2.284   2.234   6.899 -0.4222 -0.9376  0.6127
27779SOL     OW85490   9.242   2.588   5.415 -0.0271  0.3385 -0.4775
27779SOL    HW185491   9.264   2.640   5.338 -1.3907  0.9232 -0.4979
27779SOL    HW285492   9.158   2.624   5.446 -0.4350 -1.0857  0.1829
27780SOL     OW85493   4.525   7.824   2.086  0.7610  0.3629 -0.4255
27780SOL    HW185494   4.512   7.738   2.127  0.8547  0.5182 -0.0655
27780SOL    HW285495   4.440   7.868   2.096  1.4760  1.3667  1.9027
27781SOL     OW85496   1.674   6.980   9.218  0.5211  0.5569  0.4632
27781SOL    HW185497   1.645   6.918   9.285 -0.0452  0.0193 -0.2707
27781SOL    HW285498   1.737   7.037   9.264  1.7511 -1.1117  0.9217
27782SOL     OW85499   1.447   5.266   0.289  0.1319  0.4083 -0.6563
27782SOL    HW185500   1.406   5.266   0.376 -0.9622 -0.0839 -1.1496
27782SOL    HW285501   1.375   5.249   0.229  1.0900 -0.6391 -1.5593
27783SOL     OW85502   5.996   4.119   1.756 -0.5338  0.2785  0.4806
27783SOL    HW185503   5.945   4.078   1.687  0.0442  0.5032 -0.0967
27783SOL    HW285504   5.961   4.082   1.837  0.2586 -1.7176 -0.0161
27784SOL     OW85505   4.434   4.787   2.248  0.2282 -0.5511 -0.3940
27784SOL    HW185506   4.454   4.881   2.249  0.1002 -0.5267  0.5081
27784SOL    HW285507   4.348   4.781   2.206 -0.3567 -0.1357  0.7205
27785SOL     OW85508   4.000   1.039   6.259 -0.3437  0.1106 -0.4200
27785SOL    HW185509   4.005   1.134   6.262 -1.7638  0.1897  0.0791
27785SOL    HW285510   4.010   1.011   6.350 -1.3688 -0.1108 -0.3612
27786SOL     OW85511   3.076   1.312   7.342 -0.4239  0.0729 -0.1019
27786SOL    HW185512   3.123   1.254   7.402 -1.3965  0.6902  1.2995
27786SOL    HW285513   3.033   1.252   7.281  0.3870 -0.5848 -0.0466
27787SOL     OW85514   2.087   4.839   3.978 -0.1607  0.2097  0.0509
27787SOL    HW185515   1.997   4.814   3.959 -0.6025  0.3640  1.8469
27787SOL    HW285516   2.104   4.914   3.920 -1.2868  0.3958 -0.0522
27788SOL     OW85517   2.630   7.347   8.752  0.3306  0.0762 -0.9286
27788SOL    HW185518   2.680   7.426   8.772  0.3344  0.0219 -0.7248
27788SOL    HW285519   2.666   7.316   8.669  0.9473 -0.2148 -0.5640
27789SOL     OW85520   4.782   1.304   1.156  0.2402  0.3684 -0.3209
27789SOL    HW185521   4.814   1.379   1.206  2.4868 -1.5107  1.2715
27789SOL    HW285522   4.832   1.307   1.074  1.5642 -0.2566  0.4368
27790SOL     OW85523   2.510   5.926   0.607 -0.4082  0.0514 -0.2399
27790SOL    HW185524   2.510   5.971   0.522 -0.6290  0.3614 -0.0803
27790SOL    HW285525   2.546   5.839   0.589  1.9334  0.9555 -0.1959
27791SOL     OW85526   4.989   3.581   2.285  0.2197 -0.0722 -0.0126
27791SOL    HW185527   4.946   3.513   2.337 -0.2525 -0.2495 -0.6245
27791SOL    HW285528   5.041   3.630   2.348 -0.6626 -0.0302  0.7025
27792SOL     OW85529   0.622   8.285   6.934  0.0515 -0.3518  0.6353
27792SOL    HW185530   0.589   8.287   7.023  0.0659 -0.5132  0.6432
27792SOL    HW285531   0.672   8.204   6.928  0.0388 -0.3482  0.4755
27793SOL     OW85532   5.027   3.058   5.292  0.2351 -0.2865  0.4675
27793SOL    HW185533   4.941   3.091   5.265  0.2254 -0.6383  0.0628
27793SOL    HW285534   5.077   3.137   5.313  0.1903 -0.0019 -0.4281
27794SOL     OW85535   2.325   4.472   9.025 -0.3467 -0.3835  0.7144
27794SOL    HW185536   2.267   4.519   9.085  2.8485  2.0798  2.2056
27794SOL    HW285537   2.306   4.511   8.939  0.0339  1.4583  1.4112
27795SOL     OW85538   1.893   0.402   7.841  0.2106 -0.0040  0.4746
27795SOL    HW185539   1.875   0.399   7.747  2.6122 -2.4459 -0.0465
27795SOL    HW285540   1.806   0.396   7.882 -1.0454  2.7855 -1.4547
27796SOL     OW85541   0.382   5.550   9.475 -0.0022  0.1931 -0.4208
27796SOL    HW185542   0.360   5.484   9.541 -0.6271  0.6172 -0.1889
27796SOL    HW285543   0.443   5.506   9.416 -0.4958 -0.6241 -0.3375
27797SOL     OW85544   3.219   4.628   8.061 -0.0833 -0.3366 -0.2428
27797SOL    HW185545   3.253   4.686   8.129 -0.1097 -0.0139 -0.5065
27797SOL    HW285546   3.196   4.686   7.989  4.2631 -0.9396 -2.4462
27798SOL     OW85547   4.163   5.412   4.944 -0.7250  0.5220  0.4833
27798SOL    HW185548   4.187   5.360   5.021 -0.5011 -1.7201 -1.0110
27798SOL    HW285549   4.094   5.361   4.902 -0.0998  1.1375 -1.3709
27799SOL     OW85550   7.538   8.617   2.610 -0.3497 -0.7095  0.1837
27799SOL    HW185551   7.513   8.530   2.579 -0.9166 -0.0474 -1.3274
27799SOL    HW285552   7.537   8.672   2.531  1.6664  0.3097  0.7899
27800SOL     OW85553   0.764   9.065   6.562  0.4315 -0.4198 -0.1819
27800SOL    HW185554   0.750   9.069   6.657  2.6595 -1.3073  0.2551
27800SOL    HW285555   0.819   9.141   6.543 -0.6901  0.2216 -0.9313
27801SOL     OW85556   3.646   3.685   3.953 -0.3078 -0.4844 -0.3173
27801SOL    HW185557   3.615   3.628   4.024 -1.1516  1.0208  0.5841
27801SOL    HW285558   3.573   3.688   3.891  0.1882 -1.2912 -0.9663
27802SOL     OW85559   9.078   1.126   5.727  0.2721 -0.3047 -0.0390
27802SOL    HW185560   9.038   1.174   5.799 -0.0326 -0.1386 -0.3205
27802SOL    HW285561   9.006   1.107   5.667  0.4614 -0.7482 -0.1331
27803SOL     OW85562   7.062   3.396   9.341  0.2234 -0.1581 -0.3469
27803SOL    HW185563   7.030   3.432   9.258 -1.5265 -0.6513  0.0700
27803SOL    HW285564   7.075   3.473   9.397  0.9619  0.1405 -0.9141
27804SOL     OW85565   0.649   8.765   6.970 -0.4172 -0.1044 -0.3526
27804SOL    HW185566   0.628   8.800   7.056 -0.1873 -0.1438 -0.2801
27804SOL    HW285567   0.738   8.796   6.952  0.7456 -2.5010  0.7212
27805SOL     OW85568   8.179   2.575   8.448  0.3516 -0.7540  0.4694
27805SOL    HW185569   8.124   2.606   8.377 -1.8359 -2.3209  1.3831
27805SOL    HW285570   8.219   2.494   8.415  0.3541 -0.8048  0.5956
27806SOL     OW85571   6.124   2.112   8.410 -0.1570 -0.0511 -0.3213
27806SOL    HW185572   6.038   2.152   8.393 -0.5102 -0.6963 -0.1197
27806SOL    HW285573   6.177   2.183   8.446 -1.0694  0.0314  0.9466
27807SOL     OW85574   1.917   2.530   2.194  0.3197 -0.0815 -0.2931
27807SOL    HW185575   1.854   2.459   2.190  0.3226 -0.0310 -1.4740
27807SOL    HW285576   1.882   2.590   2.260 -0.1334 -0.7307  0.0640
27808SOL     OW85577   3.802   6.801   9.123  0.0105 -0.1232  0.5520
27808SOL    HW185578   3.762   6.878   9.083 -1.0496 -1.7543 -1.7787
27808SOL    HW285579   3.867   6.771   9.060  0.5531 -1.0276  1.4969
27809SOL     OW85580   4.551   9.359   9.506  0.1471  0.3014 -0.2401
27809SOL    HW185581   4.568   9.452   9.524 -0.0756  0.1644  0.6886
27809SOL    HW285582   4.544   9.318   9.592 -1.2540 -0.3125 -0.6199
27810SOL     OW85583   1.683   8.574   9.132 -0.3926 -0.4811 -0.8286
27810SOL    HW185584   1.645   8.494   9.094 -2.1863  0.1480 -0.4442
27810SOL    HW285585   1.629   8.645   9.098  0.3391  0.4618 -0.0847
27811SOL     OW85586   4.927   2.315   5.537  0.0407  0.0143  0.1194
27811SOL    HW185587   4.984   2.356   5.472  1.1059 -1.9534 -0.2469
27811SOL    HW285588   4.857   2.276   5.486  0.6133 -1.1102  0.1724
27812SOL     OW85589   9.049   3.658   0.643 -0.7897 -0.2460  0.0803
27812SOL    HW185590   8.956   3.655   0.619 -1.4646 -2.5637  2.5723
27812SOL    HW285591   9.053   3.620   0.730  2.8140 -2.5154 -0.8643
27813SOL     OW85592   6.149   1.967   8.861  0.4280 -0.4310 -0.5916
27813SOL    HW185593   6.060   2.001   8.848  0.7690 -0.2823 -2.8502
27813SOL    HW285594   6.151   1.943   8.954 -1.7095  0.2810 -0.2897
27814SOL     OW85595   3.812   6.748   4.298 -0.0180  0.0038 -0.0554
27814SOL    HW185596   3.837   6.669   4.347  1.6875 -1.2333 -2.6639
27814SOL    HW285597   3.717   6.747   4.297 -0.0510 -2.6140 -0.7812
27815SOL     OW85598   3.061   6.236   5.211 -0.5904 -0.1077  0.6933
27815SOL    HW185599   3.097   6.153   5.243  0.3254 -0.8557 -2.0033
27815SOL    HW285600   2.969   6.216   5.193 -0.1825 -0.8265 -0.7108
27816SOL     OW85601   5.409   5.372   3.972  0.4281  0.0989  0.1671
27816SOL    HW185602   5.491   5.324   3.965  0.4862  0.2334 -0.0794
27816SOL    HW285603   5.380   5.384   3.882 -0.1078 -0.3625  0.2686
27817SOL     OW85604   5.545   1.985   8.236  0.4662  0.6812 -0.0399
27817SOL    HW185605   5.461   1.951   8.205  0.2129  1.1404  0.1381
27817SOL    HW285606   5.546   2.077   8.207  0.2443  1.1112  1.2555
27818SOL     OW85607   6.097   0.034   1.216 -0.2871  0.7254  0.4638
27818SOL    HW185608   6.030  -0.033   1.206  0.3284  0.1576 -0.0381
27818SOL    HW285609   6.142   0.012   1.297  0.2979  0.1504  0.0034
27819SOL     OW85610   7.611   9.118   8.784  0.1549  0.0789  0.1108
27819SOL    HW185611   7.655   9.035   8.804 -0.1771 -0.2172 -0.3608
27819SOL    HW285612   7.682   9.178   8.761  0.3656 -0.2149 -0.0183
27820SOL     OW85613   7.821   6.016   7.539  0.3700  0.5202 -0.3026
27820SOL    HW185614   7.842   6.109   7.546  0.9827  0.4257 -0.8519
27820SOL    HW285615   7.753   6.013   7.471  2.8627  0.2438 -2.9658
27821SOL     OW85616   3.933   4.718   6.217 -0.4871 -0.0386 -0.6163
27821SOL    HW185617   3.997   4.655   6.250 -1.5120 -1.7188 -1.7043
27821SOL    HW285618   3.986   4.786   6.176  0.7483  1.0069  2.3679
27822SOL     OW85619   0.094   0.929   6.189  0.0723  0.0407 -0.3090
27822SOL    HW185620   0.097   0.836   6.165  2.6449  0.3437 -1.5449
27822SOL    HW285621   0.128   0.931   6.279 -0.2581 -0.2168 -0.1738
27823SOL     OW85622   6.755   0.322   0.597  0.3562 -0.3230  0.3428
27823SOL    HW185623   6.715   0.402   0.631  0.1023 -0.7792  1.1367
27823SOL    HW285624   6.849   0.340   0.596  0.3753 -0.3267  1.3616
27824SOL     OW85625   8.211   8.516   6.452  0.3340  0.0029  0.8913
27824SOL    HW185626   8.157   8.592   6.475 -0.7366 -0.4088 -0.1910
27824SOL    HW285627   8.256   8.542   6.372 -0.9119 -0.8878 -0.1281
27825SOL     OW85628   1.811   8.134   7.314  0.2481  0.2581  0.4772
27825SOL    HW185629   1.809   8.209   7.373  0.6193 -0.5647  1.5938
27825SOL    HW285630   1.852   8.065   7.366  1.5766 -0.2103 -1.1181
27826SOL     OW85631   7.590   3.811   6.548  0.7252  0.1065 -0.5218
27826SOL    HW185632   7.580   3.818   6.453 -1.0097  1.5185 -0.3060
27826SOL    HW285633   7.589   3.716   6.565  0.8954 -0.1661 -1.8853
27827SOL     OW85634   3.485   8.143   7.521 -0.1441 -0.6387 -0.0473
27827SOL    HW185635   3.491   8.166   7.429  2.8814  1.0114  0.4218
27827SOL    HW285636   3.550   8.074   7.533  1.0076  0.5599  1.1171
27828SOL     OW85637   8.852   6.858   4.491 -0.5277  0.4820  0.0474
27828SOL    HW185638   8.877   6.842   4.582  0.2883  0.3635 -0.1839
27828SOL    HW285639   8.783   6.924   4.495 -1.2377 -0.2895  0.8065
27829SOL     OW85640   3.096   6.550   6.143 -0.3949  0.2623  0.4903
27829SOL    HW185641   3.009   6.522   6.113  1.1150 -0.1684 -4.2885
27829SOL    HW285642   3.109   6.635   6.102  1.8705 -0.2514 -0.0085
27830SOL     OW85643   0.743   3.150   9.062  0.8358  0.0686  0.4213
27830SOL    HW185644   0.818   3.097   9.036 -0.1750 -1.2864  0.1847
27830SOL    HW285645   0.730   3.128   9.155  1.5641  1.3623  0.8544
27831SOL     OW85646   1.278   7.075   8.326 -0.5110 -0.2484 -0.1376
27831SOL    HW185647   1.244   7.159   8.295  0.0736  0.2261  0.4890
27831SOL    HW285648   1.218   7.010   8.288 -0.7300  0.4110 -0.9671
27832SOL     OW85649   5.535   1.497   1.696 -0.5297 -0.3731 -0.4826
27832SOL    HW185650   5.612   1.449   1.727 -0.1259 -0.7281 -1.9603
27832SOL    HW285651   5.497   1.535   1.775  0.1957 -1.5973  0.4912
27833SOL     OW85652   6.023   2.874   3.052  0.0941 -0.8779  0.1566
27833SOL    HW185653   6.113   2.880   3.085 -0.4781 -0.0427  1.6278
27833SOL    HW285654   5.970   2.921   3.116 -1.3986 -1.2756 -0.7324
27834SOL     OW85655   0.045   1.034   0.755  0.3212  0.3660  0.3215
27834SOL    HW185656  -0.009   0.982   0.814  0.3485 -0.5893 -0.4772
27834SOL    HW285657   0.132   0.995   0.761  1.0234  1.9890  1.7222
27835SOL     OW85658   6.459   8.586   5.361 -0.6145 -0.0938  0.7386
27835SOL    HW185659   6.396   8.587   5.433 -2.2298  1.2563 -0.6222
27835SOL    HW285660   6.450   8.498   5.323 -2.5183  0.4184 -0.0993
27836SOL     OW85661   3.286   2.517   3.727 -0.6718 -0.0076 -0.1978
27836SOL    HW185662   3.300   2.591   3.668  0.3505 -0.2289 -0.2545
27836SOL    HW285663   3.216   2.467   3.686 -0.4392  0.2097 -0.8727
27837SOL     OW85664   0.683   1.560   2.911  0.0947 -0.2606 -0.3253
27837SOL    HW185665   0.648   1.649   2.917 -2.2098 -1.1633  1.1594
27837SOL    HW285666   0.776   1.572   2.892  0.1114  2.4955  0.9732
27838SOL     OW85667   3.973   2.851   2.467 -0.1197  0.2649  0.1075
27838SOL    HW185668   3.959   2.800   2.387 -0.7613 -1.2985  1.1647
27838SOL    HW285669   4.068   2.863   2.472  0.0960 -1.2129  0.0209
27839SOL     OW85670   5.934   1.950   0.602  0.0319  0.1395 -0.5874
27839SOL    HW185671   5.888   2.000   0.535 -0.6291 -0.3686 -0.5212
27839SOL    HW285672   6.001   2.010   0.634  0.0546  0.5520 -1.3700
27840SOL     OW85673   8.389   2.382   9.486  0.6496 -0.4727 -0.4497
27840SOL    HW185674   8.360   2.437   9.413  0.7319 -1.3995 -1.1920
27840SOL    HW285675   8.433   2.308   9.445  1.7571 -0.4235  0.5843
27841SOL     OW85676   1.600   6.389   0.227  0.3056 -0.0659  0.0744
27841SOL    HW185677   1.537   6.394   0.155  0.2896  0.9119  0.1420
27841SOL    HW285678   1.625   6.297   0.231 -1.4015 -0.5417  0.2817
27842SOL     OW85679   7.594   2.723   9.384 -0.5286 -0.2573  0.0310
27842SOL    HW185680   7.574   2.716   9.478 -1.0791  1.7880  0.1157
27842SOL    HW285681   7.513   2.695   9.341 -1.4740  1.8867  0.2751
27843SOL     OW85682   1.725   8.921   1.828 -0.2699 -0.1454  0.3386
27843SOL    HW185683   1.665   8.882   1.764  2.5974 -0.3652 -2.4662
27843SOL    HW285684   1.777   8.848   1.860 -0.2730  0.2910  1.4043
27844SOL     OW85685   5.527   5.086   1.637  0.1238 -0.3952  0.2027
27844SOL    HW185686   5.554   5.000   1.606 -0.7307 -0.5286 -0.2300
27844SOL    HW285687   5.601   5.144   1.619 -0.6826 -0.2063 -3.2837
27845SOL     OW85688   7.246   3.424   7.637  0.1742  0.0246  0.3361
27845SOL    HW185689   7.223   3.431   7.729  0.3246  0.8660  0.3238
27845SOL    HW285690   7.165   3.446   7.590 -0.4895 -2.3849  0.2167
27846SOL     OW85691   3.721   5.179   1.160  0.4336  0.3114 -0.4420
27846SOL    HW185692   3.625   5.178   1.154  0.1224 -1.7469  2.7335
27846SOL    HW285693   3.740   5.257   1.212  0.4691  0.4444 -0.6513
27847SOL     OW85694   4.052   3.963   3.947 -0.0660 -0.1759  0.0804
27847SOL    HW185695   4.141   3.975   3.979 -0.0152 -0.1050 -0.0832
27847SOL    HW285696   4.045   4.024   3.873  0.2540 -1.2413 -0.8661
27848SOL     OW85697   3.251   0.590   8.238  0.2490 -0.4247 -0.0343
27848SOL    HW185698   3.301   0.515   8.207  0.1656 -0.7713  0.6588
27848SOL    HW285699   3.216   0.563   8.322 -0.3691  0.1389 -0.0973
27849SOL     OW85700   3.710   3.353   7.709  0.2090  0.6568 -0.0704
27849SOL    HW185701   3.661   3.427   7.675  0.1547  0.2474 -0.9225
27849SOL    HW285702   3.657   3.319   7.781  0.7324  2.0455  1.0088
27850SOL     OW85703   4.201   3.252   5.724  0.3860 -0.2901 -0.4953
27850SOL    HW185704   4.133   3.191   5.751  0.4499 -1.1918 -2.1809
27850SOL    HW285705   4.186   3.264   5.630  0.8821  1.6839 -0.3669
27851SOL     OW85706   6.029   3.324   6.571  0.0534 -0.2076 -0.4085
27851SOL    HW185707   6.019   3.270   6.649 -1.5413 -1.3816 -1.3753
27851SOL    HW285708   6.123   3.321   6.552  0.3943 -0.3209  1.1345
27852SOL     OW85709   1.628   7.928   0.952  0.6560  0.1105  0.0557
27852SOL    HW185710   1.582   7.853   0.990 -0.1661  0.7678  0.3951
27852SOL    HW285711   1.604   7.926   0.859 -1.4459  1.3699  0.5028
27853SOL     OW85712   2.429   6.764   7.761 -0.5797  0.2575 -0.0049
27853SOL    HW185713   2.403   6.675   7.740  0.6189  0.1531 -1.1868
27853SOL    HW285714   2.513   6.776   7.716 -0.6707  1.9481  0.2053
27854SOL     OW85715   3.095   7.595   7.203  0.1844 -0.0272 -0.1885
27854SOL    HW185716   3.075   7.519   7.257 -1.4018 -0.6144 -1.5056
27854SOL    HW285717   3.044   7.666   7.241  0.3464 -0.0345  0.0432
27855SOL     OW85718   5.074   0.913   3.813  0.4355  0.6416  0.2976
27855SOL    HW185719   5.100   0.835   3.763  0.8423  0.6088  0.5461
27855SOL    HW285720   5.029   0.877   3.890 -1.3415  0.7383 -0.6697
27856SOL     OW85721   9.415   5.065   3.096  0.3781 -0.3499 -0.5444
27856SOL    HW185722   9.424   5.145   3.045 -1.2744  0.3317  0.1749
27856SOL    HW285723   9.478   5.074   3.167  0.3369  0.2160 -0.5792
27857SOL     OW85724   9.620   9.545   5.286  0.4063  0.2001  0.1540
27857SOL    HW185725   9.701   9.548   5.337 -0.8481  0.7411  2.2668
27857SOL    HW285726   9.578   9.463   5.313 -0.2414  0.4598 -0.0479
27858SOL     OW85727   7.718   2.393   6.203 -0.3708 -0.0182  0.4529
27858SOL    HW185728   7.632   2.354   6.190 -0.2495 -0.4135  0.7999
27858SOL    HW285729   7.763   2.380   6.120 -0.7887  0.5785  0.1213
27859SOL     OW85730   2.312   0.515   3.925  0.1252  0.2029 -0.4431
27859SOL    HW185731   2.270   0.455   3.987 -1.5868  1.2846 -0.4979
27859SOL    HW285732   2.281   0.486   3.839  0.5126  0.2400 -0.5973
27860SOL     OW85733   6.649   3.143   6.667 -0.6096  0.1768  0.1142
27860SOL    HW185734   6.694   3.066   6.632 -0.1077 -1.6975  4.2816
27860SOL    HW285735   6.564   3.111   6.695  0.1791  0.5537  3.3685
27861SOL     OW85736   9.468   5.709   6.744  0.0474 -0.1806  0.3963
27861SOL    HW185737   9.515   5.703   6.661 -0.2020  0.2633  0.2229
27861SOL    HW285738   9.450   5.802   6.755  0.0249 -0.2436  0.9193
27862SOL     OW85739   1.252   7.757   9.313  0.4869  0.4447 -0.4466
27862SOL    HW185740   1.255   7.851   9.293  1.0371  0.6178  0.3905
27862SOL    HW285741   1.249   7.753   9.409 -3.2086 -0.2977 -0.4252
27863SOL     OW85742   7.417   1.542   4.981 -0.2742 -0.5323  0.3554
27863SOL    HW185743   7.470   1.547   4.901  0.5667  0.7508  0.9675
27863SOL    HW285744   7.327   1.547   4.950  0.0575  0.6854 -0.4824
27864SOL     OW85745   9.196   2.519   6.546 -1.0058  0.0130  0.4395
27864SOL    HW185746   9.199   2.533   6.641 -2.4098  0.7118  0.4084
27864SOL    HW285747   9.104   2.506   6.526 -1.3400  3.5928 -1.2618
27865SOL     OW85748   2.358   7.163   5.378 -0.3671 -0.6216 -0.5833
27865SOL    HW185749   2.273   7.173   5.334 -0.6414 -0.9495 -0.1387
27865SOL    HW285750   2.335   7.154   5.471  0.1400 -0.9815 -0.4932
27866SOL     OW85751   8.121   4.638   1.514 -0.0316 -0.8437 -0.0157
27866SOL    HW185752   8.037   4.641   1.559 -0.8913  1.9678 -1.5298
27866SOL    HW285753   8.105   4.682   1.430  3.0850  0.5043 -0.0598
27867SOL     OW85754   4.923   8.275   8.914  0.2897  0.2249  0.3809
27867SOL    HW185755   4.957   8.186   8.912 -0.9497 -0.2672  0.7895
27867SOL    HW285756   4.940   8.305   9.004 -1.5699 -0.5347  1.0321
27868SOL     OW85757   6.945   0.949   1.373 -0.3777  0.1007 -0.1057
27868SOL    HW185758   6.990   1.017   1.322 -1.8029  0.3314 -1.1435
27868SOL    HW285759   6.917   0.885   1.308 -0.3738 -0.7219  0.6816
27869SOL     OW85760   6.576   0.450   3.549  0.0157 -0.0613 -0.3943
27869SOL    HW185761   6.488   0.422   3.575 -0.0762 -0.5800 -1.2262
27869SOL    HW285762   6.610   0.496   3.626 -0.0091 -2.0716  0.9031
27870SOL     OW85763   2.982   3.452   1.599  0.1033  0.1993 -0.1776
27870SOL    HW185764   2.960   3.536   1.558  0.0411 -0.0923 -0.7438
27870SOL    HW285765   2.898   3.408   1.611  0.1126  0.3106  0.3356
27871SOL     OW85766   1.121   8.367   7.109 -0.0485  0.3530 -0.1831
27871SOL    HW185767   1.101   8.289   7.058  0.6243  0.1555 -0.1510
27871SOL    HW285768   1.041   8.420   7.105 -0.9795 -0.9226  0.8966
27872SOL     OW85769   2.314   1.369   2.123  0.0504 -0.1284  0.4908
27872SOL    HW185770   2.395   1.369   2.072 -0.8514  0.1601 -1.0149
27872SOL    HW285771   2.325   1.441   2.185  0.9595 -0.1173  0.3339
27873SOL     OW85772   1.002   7.052   1.626 -0.3271  0.2551  0.2242
27873SOL    HW185773   0.982   7.114   1.555 -2.9510 -1.6733 -0.8780
27873SOL    HW285774   1.051   6.982   1.584  0.7158  0.5146  0.9873
27874SOL     OW85775   5.198   6.536   6.506  0.1284  0.0687  0.3318
27874SOL    HW185776   5.257   6.566   6.437  1.0453 -0.7809  0.7165
27874SOL    HW285777   5.167   6.451   6.475  0.8709 -0.5089  1.1228
27875SOL     OW85778   7.151   5.702   8.931 -0.5522 -0.0111 -0.2463
27875SOL    HW185779   7.069   5.725   8.975 -0.1804 -0.2958  0.6178
27875SOL    HW285780   7.129   5.629   8.874 -0.5663 -1.2304  1.2650
27876SOL     OW85781   7.775   3.583   4.474  0.1423  0.1742  0.2803
27876SOL    HW185782   7.795   3.612   4.385  0.7696  1.2173  0.7444
27876SOL    HW285783   7.859   3.553   4.509 -0.2434 -0.9662  0.2800
27877SOL     OW85784   0.105   6.732   8.255 -0.4173  0.4831  0.2963
27877SOL    HW185785   0.060   6.687   8.326 -0.3710 -0.2082 -0.1067
27877SOL    HW285786   0.187   6.763   8.294  0.1316 -0.8725  0.2754
27878SOL     OW85787   9.208   0.917   6.814  0.3964  0.0427  0.1684
27878SOL    HW185788   9.240   1.000   6.849  0.7313  1.5961 -3.3964
27878SOL    HW285789   9.122   0.937   6.779  0.5163 -1.0890 -0.8343
27879SOL     OW85790   3.686   8.004   5.965  0.6846 -0.4909 -0.0264
27879SOL    HW185791   3.713   7.927   5.915  0.3632  0.3370 -1.5530
27879SOL    HW285792   3.607   7.976   6.011 -0.9987 -0.3888 -2.6545
27880SOL     OW85793   8.646   4.871   2.728  0.0612  0.4719 -0.0725
27880SOL    HW185794   8.602   4.829   2.802 -0.2823  1.5982  0.3881
27880SOL    HW285795   8.709   4.806   2.697 -0.7546 -0.5389  0.3270
27881SOL     OW85796   7.628   2.927   6.733  0.2384  0.0915  0.5646
27881SOL    HW185797   7.629   2.835   6.706 -0.5684 -0.0716  1.0653
27881SOL    HW285798   7.700   2.934   6.796  0.4480 -0.1390  0.3531
27882SOL     OW85799   5.571   4.707   8.142 -0.0055 -0.2015  0.2055
27882SOL    HW185800   5.634   4.779   8.139  1.7473 -1.5960  1.1351
27882SOL    HW285801   5.542   4.705   8.233  0.4412 -1.0149  0.3441
27883SOL     OW85802   1.416   5.989   5.970 -0.0868 -0.0649 -0.0181
27883SOL    HW185803   1.415   6.012   5.877 -1.9903  0.4718  0.1105
27883SOL    HW285804   1.365   5.909   5.976 -0.5826  0.2871  0.6447
27884SOL     OW85805   9.188   8.404   3.458  0.2015 -0.3229 -0.0580
27884SOL    HW185806   9.193   8.495   3.429  1.2165 -0.4066 -0.1813
27884SOL    HW285807   9.194   8.352   3.377  0.8879 -0.5137  0.1061
27885SOL     OW85808   5.121   4.958   8.477 -0.1249  0.3124  0.3622
27885SOL    HW185809   5.127   4.882   8.536  0.2355  0.1119  0.0674
27885SOL    HW285810   5.205   5.003   8.488 -0.5438  0.9807  0.9499
27886SOL     OW85811   9.276   3.851   7.311 -0.0088  0.0189  0.2584
27886SOL    HW185812   9.220   3.872   7.236 -0.4354 -2.8874 -0.3476
27886SOL    HW285813   9.225   3.789   7.362  0.4409  1.6098  2.8333
27887SOL     OW85814   1.512   1.531   7.432  0.5414  0.0900 -0.3418
27887SOL    HW185815   1.566   1.493   7.501  1.3383 -2.1851 -2.1051
27887SOL    HW285816   1.557   1.509   7.350 -1.5807  0.5732 -1.7304
27888SOL     OW85817   6.295   1.543   7.696  0.0422  0.5317  0.4751
27888SOL    HW185818   6.290   1.462   7.646 -0.0138  0.9590 -0.2217
27888SOL    HW285819   6.373   1.532   7.751  0.6649  0.4364 -0.4003
27889SOL     OW85820   3.107   0.598   2.566  0.5076 -0.0228 -0.2497
27889SOL    HW185821   3.045   0.648   2.513  0.3794  0.7795  0.6308
27889SOL    HW285822   3.078   0.612   2.656 -0.1227 -2.4934 -0.0158
27890SOL     OW85823   1.805   1.605   1.385  0.2687 -0.8272 -0.1316
27890SOL    HW185824   1.799   1.673   1.453  0.1636 -0.6384 -0.3303
27890SOL    HW285825   1.786   1.650   1.304  1.2102 -0.8815 -0.3926
27891SOL     OW85826   5.490   9.146   6.396  0.5618 -0.0725 -0.3691
27891SOL    HW185827   5.489   9.242   6.392 -0.7418 -0.0936 -1.2300
27891SOL    HW285828   5.578   9.122   6.366  2.6437  0.9200  4.1599
27892SOL     OW85829   1.613   3.866   6.951  0.5559 -0.1209  0.5135
27892SOL    HW185830   1.686   3.816   6.916  0.9992 -0.0099  1.2585
27892SOL    HW285831   1.654   3.936   7.002 -0.0652  0.3210  0.4195
27893SOL     OW85832   7.620   2.578   5.953 -0.3518 -0.1715  0.6073
27893SOL    HW185833   7.619   2.518   5.879 -0.1308  1.6581 -0.9740
27893SOL    HW285834   7.552   2.546   6.011 -1.5179 -0.8865 -1.0650
27894SOL     OW85835   8.894   8.142   6.981  0.3381  0.2523  0.2398
27894SOL    HW185836   8.943   8.060   6.975 -1.0478 -0.5358 -0.8410
27894SOL    HW285837   8.878   8.168   6.890 -0.1503  1.1666  0.5671
27895SOL     OW85838   7.251   7.014   0.114 -0.4350  0.1510 -0.2219
27895SOL    HW185839   7.331   6.961   0.117  0.7398  1.8412  0.0393
27895SOL    HW285840   7.225   7.024   0.206 -0.4647  0.2710 -0.2424
27896SOL     OW85841   2.079   7.860   1.752  0.0416  0.6959  0.3312
27896SOL    HW185842   1.997   7.873   1.705  0.6863 -1.4933 -1.5777
27896SOL    HW285843   2.139   7.925   1.715 -0.5400  1.7001  1.1003
27897SOL     OW85844   9.308   5.038   6.921  0.1065 -0.0012  0.6785
27897SOL    HW185845   9.261   5.100   6.978  0.2921  0.4109  0.3895
27897SOL    HW285846   9.302   4.954   6.967 -1.4594 -0.1025  0.3483
27898SOL     OW85847   9.061   2.422   3.520 -0.2426  0.4203  0.1839
27898SOL    HW185848   9.008   2.477   3.577 -0.5735 -0.1762  0.4666
27898SOL    HW285849   9.126   2.382   3.578 -0.0457  0.4608 -0.0068
27899SOL     OW85850   0.267   2.075   3.726 -0.3549 -0.0690  0.4438
27899SOL    HW185851   0.349   2.124   3.726 -1.3254  1.6217  1.6760
27899SOL    HW285852   0.247   2.060   3.818 -2.9675  2.3380  0.4051
27900SOL     OW85853   5.485   3.737   8.801 -0.8235  0.0257 -0.0897
27900SOL    HW185854   5.397   3.698   8.806 -0.5625 -0.4749  1.1305
27900SOL    HW285855   5.543   3.662   8.789 -0.2496 -0.1374  2.9442
27901SOL     OW85856   1.074   7.045   2.836  0.1126  0.1476  0.2689
27901SOL    HW185857   0.990   7.080   2.804  0.3952 -0.2857 -0.9839
27901SOL    HW285858   1.099   6.980   2.771  0.8900 -0.5160  1.2185
27902SOL     OW85859   4.655   5.025   1.957  0.1756 -0.9614 -0.0983
27902SOL    HW185860   4.738   5.021   2.003  1.2943  0.7357 -1.8523
27902SOL    HW285861   4.616   5.108   1.984 -0.1445 -0.9441 -0.6064
27903SOL     OW85862   3.002   5.843   4.798  0.4659 -0.5350  0.3255
27903SOL    HW185863   2.966   5.774   4.853 -0.2372 -0.5230 -0.0999
27903SOL    HW285864   3.076   5.879   4.848 -0.1027 -0.5759  1.2094
27904SOL     OW85865   9.322   1.856   7.803  0.0083 -0.3391 -0.1744
27904SOL    HW185866   9.408   1.881   7.837 -0.0701  0.7705 -0.7541
27904SOL    HW285867   9.332   1.858   7.708  0.0051 -2.6411 -0.2859
27905SOL     OW85868   0.954   9.421   4.508 -0.1282 -0.1263 -0.4457
27905SOL    HW185869   0.931   9.510   4.483  1.3855 -0.1665 -2.2185
27905SOL    HW285870   1.028   9.399   4.452 -0.7998 -2.6948 -0.4444
27906SOL     OW85871   8.889   5.345   6.887 -0.1723  0.6454 -0.0618
27906SOL    HW185872   8.893   5.260   6.843 -2.4635  0.9585 -1.0162
27906SOL    HW285873   8.802   5.347   6.926 -0.5828  2.9533 -0.9504
27907SOL     OW85874   2.505   2.026   8.903  0.5079 -0.1143 -0.3267
27907SOL    HW185875   2.570   2.033   8.973 -1.0381  1.0354  1.0615
27907SOL    HW285876   2.496   2.115   8.869  0.4632 -0.4714 -1.2807
27908SOL     OW85877   7.878   6.081   8.920  0.1870  0.0964 -0.1556
27908SOL    HW185878   7.928   6.002   8.939 -0.9095 -0.3338  1.1208
27908SOL    HW285879   7.885   6.133   9.000  0.0356  0.8109 -0.6014
27909SOL     OW85880   1.008   5.223   1.948 -0.1822 -0.3552  0.2220
27909SOL    HW185881   1.036   5.281   2.019  0.0699 -0.7055  0.4154
27909SOL    HW285882   0.985   5.282   1.876 -1.0209  0.0293  0.7919
27910SOL     OW85883   4.534   6.811   3.795 -0.1803  0.6481  0.0587
27910SOL    HW185884   4.550   6.723   3.761  3.3579  0.8919  0.6716
27910SOL    HW285885   4.494   6.797   3.881 -1.3479 -0.2315 -0.5948
27911SOL     OW85886   4.732   2.004   2.045 -0.3503 -0.2517 -0.4908
27911SOL    HW185887   4.750   2.094   2.018 -0.8043 -0.2250 -0.7101
27911SOL    HW285888   4.699   1.961   1.966 -0.6726 -0.4597 -0.2469
27912SOL     OW85889   1.157   1.257   7.153  0.9959 -0.7409  0.2237
27912SOL    HW185890   1.239   1.262   7.104  0.8046 -0.5720 -0.0837
27912SOL    HW285891   1.143   1.346   7.185  1.5201 -1.0163  1.2520
27913SOL     OW85892   6.830   1.573   0.683 -0.5421  0.3816  0.1781
27913SOL    HW185893   6.787   1.520   0.617  0.1296 -0.2132  0.2001
27913SOL    HW285894   6.924   1.558   0.668 -0.2796  2.3004 -0.4299
27914SOL     OW85895   2.508   6.225   9.016 -0.4564 -0.2422 -0.0359
27914SOL    HW185896   2.501   6.244   8.923 -0.8749 -0.3109 -0.0197
27914SOL    HW285897   2.505   6.310   9.059 -0.9363 -0.2522 -0.0461
27915SOL     OW85898   6.122   0.587   6.601 -0.1497  0.0157 -0.0673
27915SOL    HW185899   6.142   0.517   6.538  0.4966 -0.5216  0.7145
27915SOL    HW285900   6.171   0.663   6.570 -0.6190  0.0519 -0.7566
27916SOL     OW85901   8.301   2.532   5.782  0.1497  0.7236 -0.3198
27916SOL    HW185902   8.375   2.593   5.779  1.0841 -0.2893  1.0865
27916SOL    HW285903   8.274   2.532   5.874  0.0376 -0.8340 -0.3275
27917SOL     OW85904   9.030   2.592   5.890 -0.5652 -0.2037 -0.3128
27917SOL    HW185905   8.938   2.586   5.862 -0.6440 -1.1639  0.0979
27917SOL    HW285906   9.043   2.514   5.944  0.5790 -0.2169 -0.5909
27918SOL     OW85907   0.131   3.533   3.553  0.2108 -0.2902 -0.2166
27918SOL    HW185908   0.158   3.442   3.539 -1.2402 -1.1926  2.1974
27918SOL    HW285909   0.206   3.573   3.598  0.2249 -0.7725  0.1970
27919SOL     OW85910   1.112   2.586   4.777  0.1370  0.9447 -0.1884
27919SOL    HW185911   1.191   2.624   4.816  0.3856  0.4620 -0.2186
27919SOL    HW285912   1.041   2.620   4.831  0.5221 -0.3344  1.2182
27920SOL     OW85913   6.231   7.313   9.445  0.2539  0.6374 -0.5040
27920SOL    HW185914   6.294   7.272   9.505  0.7181  1.2156 -0.5863
27920SOL    HW285915   6.173   7.363   9.501  0.5970  1.0590 -0.5243
27921SOL     OW85916   3.557   9.445   0.949 -0.5640 -0.1374  0.6738
27921SOL    HW185917   3.483   9.443   0.890 -0.7263  0.9186  0.8206
27921SOL    HW285918   3.619   9.381   0.913 -0.6682  0.4587 -0.6122
27922SOL     OW85919   2.811   0.587   5.083  0.3411 -0.3324 -0.3496
27922SOL    HW185920   2.825   0.493   5.071 -0.5872 -0.6335  0.6954
27922SOL    HW285921   2.809   0.623   4.995 -0.6163 -1.5106 -0.8329
27923SOL     OW85922   6.063   4.428   3.076  0.1965  0.4211  0.4943
27923SOL    HW185923   6.053   4.438   2.981  0.3464 -2.0108  0.1570
27923SOL    HW285924   6.126   4.495   3.101  1.2188  0.2280 -1.3742
27924SOL     OW85925   2.832   7.220   6.459  0.1104 -0.7448  0.1129
27924SOL    HW185926   2.862   7.241   6.371 -0.2433 -3.5660 -0.7796
27924SOL    HW285927   2.824   7.305   6.503  1.5207  0.6500 -2.1351
27925SOL     OW85928   8.290   6.535   8.100  0.2559 -0.3876  0.0274
27925SOL    HW185929   8.301   6.446   8.134  1.4264  0.3244  1.6482
27925SOL    HW285930   8.226   6.526   8.029 -0.8198 -2.2761  1.1602
27926SOL     OW85931   5.008   7.883   8.029  0.1888 -0.2201  0.1688
27926SOL    HW185932   5.095   7.843   8.037  0.2181 -0.1721  0.0895
27926SOL    HW285933   5.008   7.924   7.943 -0.2086 -0.9220 -0.1671
27927SOL     OW85934   8.233   3.415   5.050 -0.4090  0.1924  0.4764
27927SOL    HW185935   8.295   3.343   5.037 -1.4399 -0.6076 -0.1309
27927SOL    HW285936   8.274   3.469   5.117 -0.3601 -1.8479  2.1938
27928SOL     OW85937   8.457   6.393   4.580 -0.0447  0.2415 -0.4868
27928SOL    HW185938   8.375   6.343   4.585  0.6757 -0.8965  0.4066
27928SOL    HW285939   8.514   6.340   4.523  0.1749  0.8741 -0.8626
27929SOL     OW85940   7.298   6.890   6.397 -0.1211  0.6848  0.0010
27929SOL    HW185941   7.301   6.957   6.328 -0.6939  1.7910  1.0252
27929SOL    HW285942   7.212   6.849   6.386  1.2429 -1.8681 -2.3815
27930SOL     OW85943   0.953   7.408   4.195 -0.4112  0.2362  0.2192
27930SOL    HW185944   1.012   7.369   4.260 -0.4344  2.5246  1.7456
27930SOL    HW285945   1.010   7.459   4.138 -0.5687 -0.4889 -0.6089
27931SOL     OW85946   9.210   4.798   6.283  0.0063  0.2094 -0.2680
27931SOL    HW185947   9.150   4.784   6.356  0.0916  1.3427  0.0488
27931SOL    HW285948   9.290   4.831   6.324 -1.0563  4.2551 -0.9955
27932SOL     OW85949   6.065   0.787   7.629  0.4900  0.1803 -0.2216
27932SOL    HW185950   6.111   0.807   7.547  0.8713  0.8454  0.1497
27932SOL    HW285951   5.987   0.738   7.601  1.3127 -0.7892 -0.8653
27933SOL     OW85952   9.507   7.438   3.979 -0.2032  0.0522 -0.4323
27933SOL    HW185953   9.575   7.402   3.922  0.7049  0.9752  0.0255
27933SOL    HW285954   9.556   7.470   4.055 -0.8179  3.1045 -1.2117
27934SOL     OW85955   6.363   5.396   5.702 -0.3012  0.2559  0.2154
27934SOL    HW185956   6.269   5.376   5.711 -0.1299 -1.1217 -0.7277
27934SOL    HW285957   6.401   5.314   5.670  1.2055  0.8625  0.4168
27935SOL     OW85958   6.483   6.466   6.830 -0.1607 -0.1167  0.6225
27935SOL    HW185959   6.433   6.392   6.863  1.7647 -1.1862  1.3201
27935SOL    HW285960   6.514   6.511   6.909  1.6276 -0.6915  0.3095
27936SOL     OW85961   4.205   0.069   1.190 -0.0982  0.4716  0.1610
27936SOL    HW185962   4.113   0.045   1.206  0.5846 -0.2954  3.7487
27936SOL    HW285963   4.212   0.160   1.219  0.4875  0.1745  0.9791
27937SOL     OW85964   1.945   7.540   3.281 -0.4293  0.6037 -0.6174
27937SOL    HW185965   1.879   7.556   3.214  0.9117  0.1208 -2.1141
27937SOL    HW285966   1.980   7.627   3.302  0.4278  0.6246 -1.9606
27938SOL     OW85967   1.701   1.533   4.827 -0.8081 -0.4199  0.6301
27938SOL    HW185968   1.672   1.532   4.918 -1.0496  1.4729  0.6155
27938SOL    HW285969   1.634   1.583   4.780 -0.3840 -0.8473 -0.4817
27939SOL     OW85970   2.788   8.191   3.384  0.6759  0.2633  0.1928
27939SOL    HW185971   2.875   8.194   3.345  1.0696  2.1727  1.0900
27939SOL    HW285972   2.799   8.230   3.471 -0.7746 -0.9637  0.9792
27940SOL     OW85973   4.549   9.274   5.722  0.0714 -0.4650 -0.5636
27940SOL    HW185974   4.548   9.288   5.628  0.9759  2.7328 -0.2017
27940SOL    HW285975   4.619   9.330   5.755  0.3978 -2.1664  1.9614
27941SOL     OW85976   2.502   5.881   1.312  0.1695 -0.1288  0.1940
27941SOL    HW185977   2.437   5.830   1.264 -0.9987  1.6503 -0.2078
27941SOL    HW285978   2.489   5.857   1.404  0.4250 -1.3692 -0.0808
27942SOL     OW85979   9.208   3.171   0.365 -0.0298  0.5030 -0.2721
27942SOL    HW185980   9.285   3.128   0.400  0.2351 -0.2534 -1.7198
27942SOL    HW285981   9.135   3.114   0.390  0.0709  0.3253 -0.3905
27943SOL     OW85982   4.977   0.499   6.902  0.0783 -0.2459  0.3050
27943SOL    HW185983   5.024   0.508   6.984 -1.6663 -0.8193  1.4182
27943SOL    HW285984   5.034   0.540   6.837  0.9692  1.2934  1.9748
27944SOL     OW85985   3.428   3.031   8.396  0.4707  0.4007  0.0504
27944SOL    HW185986   3.362   2.964   8.413 -0.2450  1.1059  0.1419
27944SOL    HW285987   3.512   2.987   8.409  0.0888  0.5167  4.5929
27945SOL     OW85988   1.557   5.065   0.621 -0.4106 -0.3041 -0.0666
27945SOL    HW185989   1.551   4.977   0.660 -0.7608 -0.4987 -0.5609
27945SOL    HW285990   1.490   5.066   0.552 -0.5856  0.4383  0.1029
27946SOL     OW85991   1.721   6.768   7.533 -0.0621  0.0560 -0.0509
27946SOL    HW185992   1.641   6.716   7.527  0.4662 -0.9657  1.1712
27946SOL    HW285993   1.690   6.856   7.556 -0.8777 -0.1185 -0.4263
27947SOL     OW85994   8.675   5.602   8.644  0.0142  0.1262 -0.2329
27947SOL    HW185995   8.711   5.650   8.719  0.2955 -0.1120 -0.2106
27947SOL    HW285996   8.671   5.511   8.674 -2.3339  0.3772  0.4159
27948SOL     OW85997   2.444   1.205   6.120 -0.2938  0.1008  0.1143
27948SOL    HW185998   2.423   1.139   6.054 -1.8794  1.9478 -1.3545
27948SOL    HW285999   2.364   1.214   6.171 -0.3355  1.3349 -0.1438
27949SOL     OW86000   5.438   0.466   2.105 -0.3808 -0.8008 -0.4210
27949SOL    HW186001   5.395   0.551   2.095  0.0503 -0.4639  0.4950
27949SOL    HW286002   5.512   0.469   2.044 -0.9021 -0.8799 -1.0603
27950SOL     OW86003   3.003   2.595   8.586  0.1302  0.2222  0.6541
27950SOL    HW186004   2.990   2.500   8.590 -2.9163  0.2590 -2.7316
27950SOL    HW286005   2.929   2.631   8.635  1.4095  0.9505  2.1467
27951SOL     OW86006   5.938   3.988   2.341 -0.2875 -0.0164  0.0950
27951SOL    HW186007   5.878   3.914   2.352  0.1197 -0.2893  0.5039
27951SOL    HW286008   5.882   4.062   2.319 -0.6464 -0.5945 -1.0102
27952SOL     OW86009   5.799   8.412   3.002 -0.1672 -0.3962  0.2499
27952SOL    HW186010   5.707   8.384   3.001 -0.0703 -0.7911  1.5441
27952SOL    HW286011   5.816   8.437   2.911 -0.9962 -2.1547 -0.4485
27953SOL     OW86012   3.011   5.707   3.936  0.3494 -0.2430  0.1182
27953SOL    HW186013   2.923   5.681   3.909  0.2808  0.4746 -0.3783
27953SOL    HW286014   3.011   5.698   4.031  0.4984 -2.5191 -0.0492
27954SOL     OW86015   9.121   1.592   0.724  0.1008  0.0047  0.8194
27954SOL    HW186016   9.150   1.658   0.660  0.2272 -0.4823  0.3626
27954SOL    HW286017   9.040   1.557   0.687  0.6543 -0.9265  0.4454
27955SOL     OW86018   5.073   7.158   3.352 -0.0332  0.3232 -0.0734
27955SOL    HW186019   4.994   7.146   3.406  0.4109 -0.3351  0.4469
27955SOL    HW286020   5.118   7.074   3.358  1.4615  1.1507  0.8671
27956SOL     OW86021   6.894   2.638   4.958 -0.7123 -0.2974 -0.2878
27956SOL    HW186022   6.817   2.588   4.988 -1.3720  0.7147 -0.2434
27956SOL    HW286023   6.861   2.689   4.884  0.2131 -0.6887 -0.9835
27957SOL     OW86024   9.344   3.838   9.284 -0.5171 -0.1299 -0.2804
27957SOL    HW186025   9.381   3.901   9.345  0.1213 -0.5459 -0.2302
27957SOL    HW286026   9.322   3.762   9.339 -0.0757 -0.4496 -0.5327
27958SOL     OW86027   1.735   4.431   1.331  0.0356 -0.4023 -0.3843
27958SOL    HW186028   1.699   4.499   1.388 -1.1182 -0.5638 -0.8875
27958SOL    HW286029   1.817   4.468   1.298  0.2161  0.0871  0.5827
27959SOL     OW86030   9.021   6.561   5.392 -0.1013  0.4165  0.0491
27959SOL    HW186031   9.093   6.502   5.372 -0.6620 -0.1004 -0.5091
27959SOL    HW286032   8.978   6.576   5.308 -1.9954 -1.1261  0.6373
27960SOL     OW86033   0.594   6.339   5.683 -0.1665 -0.6303 -0.3772
27960SOL    HW186034   0.644   6.312   5.760  0.1233  1.9154  0.4201
27960SOL    HW286035   0.503   6.338   5.711  0.0937  3.5965  1.3290
27961SOL     OW86036   1.807   7.782   5.444 -0.0367 -0.0653 -0.4734
27961SOL    HW186037   1.746   7.802   5.372 -1.4649 -1.4580  0.2756
27961SOL    HW286038   1.832   7.867   5.479  0.1408  0.6097 -2.1633
27962SOL     OW86039   6.443   6.905   8.322  0.0631  0.2718 -0.6232
27962SOL    HW186040   6.464   6.906   8.416  0.9975  0.1010 -0.8223
27962SOL    HW286041   6.527   6.914   8.279 -0.4410  1.1750 -1.4488
27963SOL     OW86042   4.818   0.599   2.068 -0.1692 -0.1041 -0.1660
27963SOL    HW186043   4.800   0.654   1.992 -0.0093 -0.3729 -0.3983
27963SOL    HW286044   4.854   0.659   2.133  0.0287  0.0646 -0.4280
27964SOL     OW86045   9.515   4.438   4.063  0.9422  0.1427  0.3254
27964SOL    HW186046   9.528   4.443   4.158  1.1138 -0.4933  0.3358
27964SOL    HW286047   9.442   4.378   4.051  0.7717  0.3987  0.0616
27965SOL     OW86048   6.961   5.499   4.532  0.0370 -0.2220 -0.1319
27965SOL    HW186049   6.971   5.594   4.532  2.4155 -0.3638 -2.4808
27965SOL    HW286050   6.867   5.485   4.523 -0.5178  1.8250  1.6357
27966SOL     OW86051   4.986   4.847   5.644  0.0018  0.0980 -0.0040
27966SOL    HW186052   4.985   4.943   5.642  0.5156  0.1021 -2.0304
27966SOL    HW286053   5.037   4.825   5.721  0.3463  1.4604  0.1827
27967SOL     OW86054   1.009   7.038   0.472  0.1907  0.0008  0.1836
27967SOL    HW186055   0.920   7.074   0.473 -0.3036 -1.1764  0.6705
27967SOL    HW286056   1.042   7.055   0.560  0.2653  0.0152  0.1524
27968SOL     OW86057   6.197   6.310   3.237 -0.5551 -0.3682  0.1550
27968SOL    HW186058   6.224   6.224   3.269  2.2412  0.7241  1.0494
27968SOL    HW286059   6.279   6.358   3.227 -2.0463  2.3561  0.1293
27969SOL     OW86060   3.128   0.968   8.007  0.1309  0.3709  0.6538
27969SOL    HW186061   3.185   0.893   8.020 -0.6878 -0.5954 -0.9791
27969SOL    HW286062   3.121   0.976   7.912 -0.4382  2.0338  0.8062
27970SOL     OW86063   8.742   0.936   2.011  0.1017 -0.3113  0.5039
27970SOL    HW186064   8.807   0.967   1.949 -0.1265  0.0669  0.4505
27970SOL    HW286065   8.756   0.841   2.016 -0.3668 -0.4602 -0.6875
27971SOL     OW86066   9.452   4.356   0.266  0.1768 -0.0018 -0.2856
27971SOL    HW186067   9.504   4.276   0.259  0.9010  0.4744 -0.5042
27971SOL    HW286068   9.506   4.415   0.319  0.1079  0.7051 -0.9892
27972SOL     OW86069   0.349   1.308   7.126  0.2843 -0.1789  0.2571
27972SOL    HW186070   0.409   1.307   7.200 -1.9892  0.2143  2.2248
27972SOL    HW286071   0.271   1.354   7.158 -0.6956  0.3253 -2.5054
27973SOL     OW86072   3.881   0.971   2.416 -0.4318  0.1301 -0.2197
27973SOL    HW186073   3.789   0.990   2.398 -0.0486  1.9848 -0.4269
27973SOL    HW286074   3.928   1.049   2.387  0.9772  0.2228  2.0557
27974SOL     OW86075   2.615   8.463   3.771 -0.1443  0.6688 -0.0920
27974SOL    HW186076   2.635   8.470   3.864 -0.4576 -1.9534  0.2449
27974SOL    HW286077   2.579   8.375   3.761 -0.2763  0.9530 -2.6709
27975SOL     OW86078   7.487   7.606   9.551  0.0807  0.3167  0.1059
27975SOL    HW186079   7.580   7.613   9.529  0.0371 -0.8396 -0.5230
27975SOL    HW286080   7.485   7.544   9.624 -0.1438  0.9323  0.6309
27976SOL     OW86081   3.009   1.481   3.263 -0.0100  0.4831  0.0626
27976SOL    HW186082   3.100   1.506   3.247  1.1534 -3.0473  0.3900
27976SOL    HW286083   2.963   1.503   3.182  1.2186  1.7270 -0.3357
27977SOL     OW86084   1.425   8.179   5.047  0.4908 -0.0031  0.6828
27977SOL    HW186085   1.465   8.175   5.134  0.8884  1.3490  0.5754
27977SOL    HW286086   1.394   8.269   5.038 -1.5803 -0.7128  0.2957
27978SOL     OW86087   0.484   5.440   0.973  0.3486  0.0548  0.5753
27978SOL    HW186088   0.460   5.530   0.954 -1.2474  0.0244  2.1489
27978SOL    HW286089   0.545   5.416   0.903 -0.1672  1.9224 -0.5967
27979SOL     OW86090   4.663   6.527   5.563  0.3548  0.4427 -0.5003
27979SOL    HW186091   4.749   6.569   5.557 -0.8208  3.0428 -0.4535
27979SOL    HW286092   4.600   6.599   5.559 -1.9150 -1.4532 -1.8866
27980SOL     OW86093   0.514   9.362   8.170 -0.8907  0.0098  0.1528
27980SOL    HW186094   0.555   9.308   8.103 -3.0173  0.7084 -1.8328
27980SOL    HW286095   0.524   9.452   8.137  0.8602  0.7714  2.4320
27981SOL     OW86096   5.181   8.603   1.077  0.1331 -0.4810 -0.4219
27981SOL    HW186097   5.200   8.561   1.161  2.8665  0.3759 -0.5120
27981SOL    HW286098   5.086   8.611   1.075 -0.0194 -0.1042  2.8240
27982SOL     OW86099   4.137   1.484   1.669 -0.1386  0.1770  0.4893
27982SOL    HW186100   4.162   1.550   1.604 -0.7222  0.2887  0.3713
27982SOL    HW286101   4.066   1.436   1.628  0.7421 -1.0010  0.2877
27983SOL     OW86102   0.273   1.278   2.472  0.2098 -0.0672 -0.0335
27983SOL    HW186103   0.368   1.267   2.475  0.3256  0.3817 -1.4289
27983SOL    HW286104   0.244   1.256   2.561  1.4752 -1.3694  0.0962
27984SOL     OW86105   8.507   2.051   7.632 -0.2334 -0.5299  0.0189
27984SOL    HW186106   8.525   1.992   7.705 -1.5811 -2.7332 -1.3006
27984SOL    HW286107   8.584   2.045   7.575  0.3456  0.3397  0.6839
27985SOL     OW86108   6.259   8.856   5.877 -0.3238  0.2095 -0.5294
27985SOL    HW186109   6.290   8.920   5.941 -0.3630  1.1417 -1.4209
27985SOL    HW286110   6.168   8.881   5.861 -0.9588 -1.2716  0.5606
27986SOL     OW86111   2.703   2.290   8.962 -0.2149  0.2193  0.1272
27986SOL    HW186112   2.756   2.337   8.898 -1.2147  0.3133 -0.6613
27986SOL    HW286113   2.645   2.357   8.998  0.4599  0.2119  1.3010
27987SOL     OW86114   9.095   0.996   0.352 -0.0397 -0.5623 -0.4299
27987SOL    HW186115   9.134   1.082   0.335  0.3073 -0.5034  0.5858
27987SOL    HW286116   9.116   0.944   0.275  1.9689 -0.5016  0.0442
27988SOL     OW86117   7.041   0.521   0.029  0.0734  0.3253 -0.4819
27988SOL    HW186118   6.989   0.441   0.037  0.6834 -0.3690 -2.7511
27988SOL    HW286119   6.981   0.591   0.054 -0.8668 -0.7427  0.3152
27989SOL     OW86120   0.331   1.157   6.586 -0.1016 -0.1112 -0.4439
27989SOL    HW186121   0.327   1.141   6.680  2.2618 -2.9607 -0.7173
27989SOL    HW286122   0.344   1.252   6.579  0.1554  0.1102  2.1024
27990SOL     OW86123   8.536   3.837   5.410 -0.8376 -0.2301  0.6628
27990SOL    HW186124   8.536   3.848   5.505 -0.3931  0.3739  0.5997
27990SOL    HW286125   8.539   3.743   5.396  0.9204 -0.2915  1.2452
27991SOL     OW86126   4.104   2.000   3.741  0.0649 -0.0423  0.0317
27991SOL    HW186127   4.021   1.959   3.718  1.1241 -1.5068 -1.5185
27991SOL    HW286128   4.169   1.930   3.728  1.5794  1.1570  0.8135
27992SOL     OW86129   8.076   2.773   3.625 -0.1125  0.8554 -0.0994
27992SOL    HW186130   8.061   2.680   3.606 -0.2099  0.9647 -0.5624
27992SOL    HW286131   8.012   2.819   3.571  1.9414  1.3455 -2.2649
27993SOL     OW86132   7.971   2.235   2.426 -0.3307 -0.0104 -0.8381
27993SOL    HW186133   7.880   2.258   2.412 -0.2175 -0.2400 -2.1187
27993SOL    HW286134   8.017   2.274   2.351  0.7248  0.6620  0.1267
27994SOL     OW86135   8.725   6.387   5.545 -0.3667  0.4571 -0.5091
27994SOL    HW186136   8.676   6.376   5.464  0.9885 -3.2995 -1.0126
27994SOL    HW286137   8.722   6.301   5.587  2.8952  0.9661  1.0886
27995SOL     OW86138   3.933   8.868   4.211  0.4371 -0.7131  0.0145
27995SOL    HW186139   4.024   8.886   4.234  0.1781 -0.9954  1.2994
27995SOL    HW286140   3.935   8.856   4.116  1.4074  1.2335 -0.2495
27996SOL     OW86141   1.351   7.774   4.548 -0.0842  0.5175  0.0331
27996SOL    HW186142   1.391   7.835   4.610 -1.0214  0.0467  1.1395
27996SOL    HW286143   1.300   7.829   4.489 -0.8873  0.8189  0.9919
27997SOL     OW86144   8.388   3.939   1.704 -0.0846 -0.2404  0.5067
27997SOL    HW186145   8.469   3.909   1.664 -0.7106 -1.4247  0.0624
27997SOL    HW286146   8.414   3.976   1.788  0.9701 -0.0112  0.0968
27998SOL     OW86147   9.548   7.503   1.867 -0.7003 -0.3454  0.6112
27998SOL    HW186148   9.481   7.569   1.883  0.7460  0.8477  2.3302
27998SOL    HW286149   9.594   7.496   1.951  1.5554 -0.7768 -0.5638
27999SOL     OW86150   8.767   3.045   8.881  0.3394 -0.1541  0.2418
27999SOL    HW186151   8.806   2.982   8.820 -1.1506 -1.5123  0.6359
27999SOL    HW286152   8.724   3.109   8.826 -1.5950 -1.7533 -0.2119
28000SOL     OW86153   3.847   5.774   0.884  0.1285 -0.2967 -0.5092
28000SOL    HW186154   3.805   5.691   0.907  1.5875 -0.9283  0.0154
28000SOL    HW286155   3.904   5.753   0.810  0.4977  0.2344 -0.3874
28001SOL     OW86156   4.213   6.758   2.180 -0.5462  0.2440  0.2474
28001SOL    HW186157   4.297   6.804   2.180  0.0745 -0.8279  1.2341
28001SOL    HW286158   4.223   6.690   2.114 -0.1955 -0.6021  1.1448
28002SOL     OW86159   9.013   2.603   8.735 -0.0427 -0.4329  0.5451
28002SOL    HW186160   8.951   2.676   8.738 -0.5870 -0.6985 -2.2660
28002SOL    HW286161   8.982   2.547   8.664  3.4694 -0.4719 -1.1729
28003SOL     OW86162   7.286   7.386   8.790  0.7311 -0.3643  0.1980
28003SOL    HW186163   7.382   7.392   8.794  0.7006 -0.1652  0.6840
28003SOL    HW286164   7.263   7.427   8.707  1.0157  0.2537  0.4213
28004SOL     OW86165   1.075   8.212   3.134 -0.3115 -0.5352  0.3902
28004SOL    HW186166   0.998   8.205   3.192 -0.2607 -1.8596  0.3441
28004SOL    HW286167   1.055   8.152   3.062  0.6805 -0.7478  0.2822
28005SOL     OW86168   1.978   7.306   5.534 -0.5092  0.8564 -0.1925
28005SOL    HW186169   2.003   7.371   5.600 -1.2071  0.3273  0.6059
28005SOL    HW286170   1.938   7.357   5.464 -1.9251  1.2253  0.8511
28006SOL     OW86171   0.304   5.486   0.691  0.8526  0.3995  0.4851
28006SOL    HW186172   0.331   5.553   0.754  0.5134 -1.0546  2.2810
28006SOL    HW286173   0.383   5.436   0.672  0.3613 -1.4067  2.6828
28007SOL     OW86174   6.847   9.481   8.802 -0.0568  0.1546  0.0692
28007SOL    HW186175   6.819   9.390   8.796  1.3148 -0.3090  0.4687
28007SOL    HW286176   6.789   9.519   8.869 -1.5348 -0.0363 -1.0436
28008SOL     OW86177   5.494   7.706   8.914  0.2453 -0.2133  0.6897
28008SOL    HW186178   5.422   7.671   8.966  0.0827 -2.7880 -1.0756
28008SOL    HW286179   5.572   7.693   8.967 -0.2459 -0.0146  1.4708
28009SOL     OW86180   3.951   1.746   0.309 -0.0750  0.0057  0.2903
28009SOL    HW186181   4.046   1.748   0.320 -0.0186 -0.6244  0.0062
28009SOL    HW286182   3.928   1.653   0.318 -0.3007 -0.2958 -2.4928
28010SOL     OW86183   8.379   4.347   1.028 -0.6058  0.1489 -0.0901
28010SOL    HW186184   8.457   4.334   0.974 -1.0225 -0.8046 -0.4785
28010SOL    HW286185   8.405   4.319   1.115 -1.0834 -2.1757 -0.6311
28011SOL     OW86186   0.582   7.143   7.480 -0.0855 -0.4593  0.1129
28011SOL    HW186187   0.572   7.049   7.498 -1.8005 -0.6156 -1.3286
28011SOL    HW286188   0.570   7.185   7.564  1.0646 -1.5303  0.8546
28012SOL     OW86189   4.510   2.635   7.542 -0.5522  0.0467  0.4753
28012SOL    HW186190   4.502   2.656   7.635  1.1950 -1.4510  1.0084
28012SOL    HW286191   4.424   2.657   7.505 -0.8847  1.8639  2.1647
28013SOL     OW86192   6.135   1.228   8.895 -0.2633 -0.0002  0.4220
28013SOL    HW186193   6.199   1.169   8.855  1.4826  1.9477  0.1381
28013SOL    HW286194   6.060   1.225   8.837  1.1214  0.5974 -1.5095
28014SOL     OW86195   2.751   3.236   8.147 -0.2136 -0.1696  0.1021
28014SOL    HW186196   2.773   3.233   8.054 -0.7151 -1.8732  0.0037
28014SOL    HW286197   2.695   3.313   8.156 -0.5143 -0.2337 -1.0783
28015SOL     OW86198   3.468   7.729   8.376 -0.0917 -1.0776 -0.1162
28015SOL    HW186199   3.490   7.819   8.351 -0.0156 -0.7258  1.1390
28015SOL    HW286200   3.374   7.722   8.361  0.1160 -1.2180 -1.4505
28016SOL     OW86201   9.212   2.344   1.734 -0.0542  0.3591  0.6248
28016SOL    HW186202   9.301   2.376   1.752 -0.4522  2.2821 -0.5745
28016SOL    HW286203   9.207   2.340   1.638 -0.3872 -2.4926  0.6682
28017SOL     OW86204   3.152   9.091   7.202 -0.4376 -0.0885  0.0983
28017SOL    HW186205   3.093   9.040   7.146 -0.2022 -1.1915  0.8161
28017SOL    HW286206   3.162   9.175   7.157 -0.2169 -0.9551 -1.5566
28018SOL     OW86207   7.007   5.878   1.144 -0.8574  0.1120 -0.2702
28018SOL    HW186208   6.975   5.968   1.152  0.1272  0.3677  1.0612
28018SOL    HW286209   7.051   5.876   1.059 -0.4191  1.0631 -0.0803
28019SOL     OW86210   6.009   5.782   6.991  0.2158  0.2841 -0.0507
28019SOL    HW186211   6.078   5.845   6.971 -0.9087  2.5422  2.4425
28019SOL    HW286212   6.042   5.733   7.066  0.3420 -0.8753 -0.8383
28020SOL     OW86213   2.087   2.190   6.586  0.2963  0.0299 -0.6267
28020SOL    HW186214   2.097   2.215   6.494  0.4090  1.7840 -0.1648
28020SOL    HW286215   2.124   2.102   6.590 -0.6916 -0.5329 -2.4573
28021SOL     OW86216   1.989   6.209   9.178  0.7529 -0.3246  0.0353
28021SOL    HW186217   1.999   6.304   9.175  0.5647 -0.1824  2.2542
28021SOL    HW286218   2.079   6.176   9.172  0.7265 -0.1372 -2.2978
28022SOL     OW86219   3.056   8.225   6.144 -0.7385 -0.2863 -0.1704
28022SOL    HW186220   2.969   8.184   6.147 -1.3882  0.5315 -3.4439
28022SOL    HW286221   3.040   8.310   6.103  1.4023  0.6273  0.7844
28023SOL     OW86222   4.225   3.808   1.801  0.1183 -0.5575  0.1371
28023SOL    HW186223   4.298   3.854   1.761  0.3093 -2.1542 -1.4923
28023SOL    HW286224   4.147   3.841   1.757  0.2337 -1.5329 -0.8509
28024SOL     OW86225   8.402   7.221   9.406 -0.3860 -0.2484 -0.1575
28024SOL    HW186226   8.405   7.173   9.489 -1.1209  0.3247  0.2159
28024SOL    HW286227   8.349   7.298   9.425 -2.0976 -0.9838 -1.5865
28025SOL     OW86228   4.041   7.543   1.223  0.3876 -0.4699  0.4783
28025SOL    HW186229   3.971   7.557   1.287 -1.6110 -2.1374 -1.2166
28025SOL    HW286230   4.001   7.490   1.155  3.2206 -1.0987 -0.8217
28026SOL     OW86231   7.160   4.715   2.312 -0.2093  0.5045  0.1372
28026SOL    HW186232   7.117   4.799   2.319  1.2172  1.3535 -0.7516
28026SOL    HW286233   7.214   4.722   2.233  0.2838 -1.0740  0.2967
28027SOL     OW86234   1.545   3.481   3.260 -0.4402  0.4067  0.1427
28027SOL    HW186235   1.515   3.571   3.246 -0.4371  0.2252 -1.1879
28027SOL    HW286236   1.525   3.436   3.177  2.4347 -0.0048 -0.4271
28028SOL     OW86237   6.510   3.003   7.201 -0.2492  0.2952 -0.2202
28028SOL    HW186238   6.603   3.025   7.211 -0.2767 -0.1330  1.2897
28028SOL    HW286239   6.465   3.088   7.206  0.0965  0.6290 -2.0844
28029SOL     OW86240   7.743   2.913   5.189  0.4394 -0.3551  0.4463
28029SOL    HW186241   7.784   2.954   5.112 -0.5116 -3.0162 -1.6564
28029SOL    HW286242   7.816   2.893   5.247  2.2426 -3.6919 -2.5553
28030SOL     OW86243   3.412   4.091   3.299 -0.0119  0.0058  0.0405
28030SOL    HW186244   3.449   4.053   3.219 -3.5867 -1.0499 -1.3150
28030SOL    HW286245   3.346   4.152   3.269 -0.3575  0.8180  2.2437
28031SOL     OW86246   7.964   5.026   5.789  0.3822  0.2745  0.2528
28031SOL    HW186247   7.886   5.075   5.763  0.5203 -0.9937 -3.1228
28031SOL    HW286248   7.941   4.934   5.771  2.4813 -0.1584 -0.5575
28032SOL     OW86249   7.362   2.105   4.300  0.5412  0.1946 -0.3163
28032SOL    HW186250   7.302   2.072   4.233 -0.0127  2.3320 -0.9558
28032SOL    HW286251   7.395   2.027   4.344 -1.1389 -1.1320 -1.3177
28033SOL     OW86252   8.117   9.011   4.279  0.1387  0.0468  0.2755
28033SOL    HW186253   8.073   9.096   4.287 -1.7801 -0.8827  0.3228
28033SOL    HW286254   8.085   8.960   4.354  0.6869 -0.9374 -0.1392
28034SOL     OW86255   4.186   3.446   9.357  0.4613 -0.1841 -0.4178
28034SOL    HW186256   4.152   3.511   9.295  0.3432  1.0593  0.8704
28034SOL    HW286257   4.280   3.464   9.362  0.3121  0.4685  0.5245
28035SOL     OW86258   2.352   2.173   8.272  0.1279  0.2716  0.1448
28035SOL    HW186259   2.282   2.145   8.214  1.0181 -0.4533 -0.6201
28035SOL    HW286260   2.414   2.100   8.273  1.1367  1.0934  0.3454
28036SOL     OW86261   6.583   0.821   5.047  0.0962  0.2483  0.7985
28036SOL    HW186262   6.513   0.858   5.102 -0.7698 -1.8434  1.1760
28036SOL    HW286263   6.537   0.771   4.980  1.1462 -2.4962  1.9861
28037SOL     OW86264   4.916   1.782   7.067  0.5598  0.0246 -0.2013
28037SOL    HW186265   4.863   1.821   7.137 -2.0388 -2.5370 -0.5460
28037SOL    HW286266   4.882   1.820   6.986  0.1093 -0.6733 -0.3465
28038SOL     OW86267   2.599   7.397   0.575  0.0972  0.2858 -0.4801
28038SOL    HW186268   2.525   7.403   0.635  0.4725  0.3355 -0.0157
28038SOL    HW286269   2.676   7.408   0.630  0.4427  0.5680 -1.0087
28039SOL     OW86270   9.581   0.858   8.182 -0.2138 -0.1489  0.1142
28039SOL    HW186271   9.552   0.780   8.227 -0.6934  0.7157  1.3563
28039SOL    HW286272   9.501   0.893   8.141  0.0402 -0.4219 -0.6225
28040SOL     OW86273   2.104   1.547   3.182  0.3701 -0.8330 -0.9274
28040SOL    HW186274   2.070   1.535   3.094 -1.3696 -1.6705 -0.1947
28040SOL    HW286275   2.198   1.537   3.173  0.1426 -1.9017 -2.5278
28041SOL     OW86276   2.008   0.582   5.643  0.1809 -0.0463  0.5233
28041SOL    HW186277   2.008   0.569   5.738 -0.2449 -0.4698  0.4705
28041SOL    HW286278   1.954   0.510   5.610  0.0040  0.3330 -0.0089
28042SOL     OW86279   3.834   5.886   4.297 -0.1006  0.1566 -0.2176
28042SOL    HW186280   3.779   5.917   4.369  0.0541 -1.0449  0.4276
28042SOL    HW286281   3.902   5.834   4.339 -0.0224 -0.5865 -1.2254
28043SOL     OW86282   6.601   1.673   7.779  0.1594 -0.0692 -0.1319
28043SOL    HW186283   6.578   1.761   7.808 -1.3926 -0.0706 -1.2426
28043SOL    HW286284   6.696   1.677   7.765 -0.0147  1.7138 -1.0789
28044SOL     OW86285   3.329   2.770   3.599  0.3455 -0.1715  0.9331
28044SOL    HW186286   3.422   2.775   3.580  0.3842 -2.1392  0.4358
28044SOL    HW286287   3.298   2.860   3.589  1.8711  0.2361 -0.5375
28045SOL     OW86288   8.126   5.998   2.351  0.3931  0.4334  0.0766
28045SOL    HW186289   8.198   5.979   2.412 -0.9026  0.8612  1.8091
28045SOL    HW286290   8.134   5.930   2.283  1.4955 -0.4675  1.0584
28046SOL     OW86291   6.986   9.068   7.651 -0.3045  0.2890 -0.7891
28046SOL    HW186292   7.011   9.118   7.729 -2.2192  1.3097 -0.7756
28046SOL    HW286293   6.963   8.982   7.684 -1.3699  0.7965 -0.1617
28047SOL     OW86294   0.174   8.897   7.754  0.4422 -0.6925 -0.0360
28047SOL    HW186295   0.128   8.907   7.671  2.7662 -1.1054 -1.4580
28047SOL    HW286296   0.150   8.974   7.805 -1.2263 -0.5542 -0.9686
28048SOL     OW86297   6.968   4.448   2.995 -0.4041  0.2577  0.2710
28048SOL    HW186298   6.969   4.454   2.900  4.2885 -2.1190 -0.1252
28048SOL    HW286299   7.034   4.511   3.024 -0.6711 -0.1203  1.7950
28049SOL     OW86300   6.342   2.783   3.522 -0.5160 -0.5676 -0.6446
28049SOL    HW186301   6.326   2.703   3.472  0.5985 -1.2874  0.0948
28049SOL    HW286302   6.314   2.760   3.611  0.7362 -0.4858 -0.2205
28050SOL     OW86303   0.344   8.500   8.250 -0.3947 -0.2851  0.0776
28050SOL    HW186304   0.262   8.501   8.201 -0.7679 -0.3099  0.6930
28050SOL    HW286305   0.385   8.417   8.226  0.2940  0.4778 -1.5749
28051SOL     OW86306   9.582   7.345   3.160  0.0277  0.0988  0.3394
28051SOL    HW186307   9.637   7.312   3.231  0.4121 -1.0462 -0.4667
28051SOL    HW286308   9.554   7.267   3.112  0.8136  0.9024 -1.5302
28052SOL     OW86309   0.125   5.842   5.666  0.3441 -0.1780  0.0134
28052SOL    HW186310   0.073   5.844   5.586 -0.7151  3.1050  0.6255
28052SOL    HW286311   0.215   5.860   5.637 -0.0672  1.2131 -0.4969
28053SOL     OW86312   2.930   0.099   7.736  0.2106  0.2964  0.0187
28053SOL    HW186313   2.927   0.153   7.814  1.2423  0.0514  0.2391
28053SOL    HW286314   2.861   0.134   7.679 -1.4360 -0.3237  1.5397
28054SOL     OW86315   6.873   2.118   6.648  0.0998 -0.3147  0.3111
28054SOL    HW186316   6.942   2.092   6.587 -0.2583 -0.4386 -0.0464
28054SOL    HW286317   6.793   2.114   6.596 -0.1224  0.2486  0.6062
28055SOL     OW86318   3.157   1.700   7.061 -0.8865  0.0701  0.6497
28055SOL    HW186319   3.116   1.627   7.109  0.0741  0.3995  2.0148
28055SOL    HW286320   3.249   1.695   7.085 -0.2202 -0.1836 -1.7779
28056SOL     OW86321   2.377   3.032   5.373  0.2044  0.0580 -0.4802
28056SOL    HW186322   2.379   3.024   5.469 -1.9204 -0.6976 -0.4422
28056SOL    HW286323   2.463   3.066   5.350  1.0177 -0.4056  1.6391
28057SOL     OW86324   0.368   7.939   8.656  0.0442  0.0862 -0.8963
28057SOL    HW186325   0.434   7.919   8.723  0.2533  0.9194 -0.8396
28057SOL    HW286326   0.419   7.950   8.575 -0.0258  0.6120 -0.8765
28058SOL     OW86327   3.816   8.863   3.428 -0.7400 -0.0977 -0.0231
28058SOL    HW186328   3.871   8.887   3.503 -1.1555 -1.2264  0.6730
28058SOL    HW286329   3.744   8.926   3.430 -1.0809 -0.4870  0.9314
28059SOL     OW86330   6.409   5.916   2.276  0.0970 -0.1446 -0.0245
28059SOL    HW186331   6.421   5.923   2.181 -0.1626 -0.2077 -0.0615
28059SOL    HW286332   6.493   5.884   2.308 -0.4962 -2.3457 -0.4884
28060SOL     OW86333   8.123   3.386   8.528  0.6556  0.0271  0.1983
28060SOL    HW186334   8.070   3.307   8.520 -1.1438  1.1587  0.5281
28060SOL    HW286335   8.085   3.448   8.467  1.1845  1.0928  0.9025
28061SOL     OW86336   7.790   1.274   0.294 -0.0157 -0.9418  0.1373
28061SOL    HW186337   7.717   1.306   0.241 -0.0893 -3.3664 -1.3495
28061SOL    HW286338   7.867   1.319   0.259 -0.5072  0.0970  0.3530
28062SOL     OW86339   0.521   2.765   2.385 -0.4074  0.5963 -0.0379
28062SOL    HW186340   0.569   2.705   2.441 -0.4554  0.0240 -0.6032
28062SOL    HW286341   0.430   2.736   2.390 -0.5526  1.0849  0.2703
28063SOL     OW86342   0.007   0.372   3.999 -0.3945  0.6088 -0.1889
28063SOL    HW186343  -0.001   0.461   4.033 -0.3235 -0.4561  3.0143
28063SOL    HW286344  -0.083   0.342   3.988 -0.4182  0.9604 -1.0224
28064SOL     OW86345   6.535   7.407   7.357 -0.1584  0.0617 -0.6869
28064SOL    HW186346   6.506   7.375   7.442 -1.5423  1.7194 -0.4967
28064SOL    HW286347   6.539   7.328   7.302  1.4482 -1.1364  1.0447
28065SOL     OW86348   0.604   5.477   4.716 -0.1668  0.4593 -0.4211
28065SOL    HW186349   0.655   5.551   4.682 -0.8446  0.3367 -1.7412
28065SOL    HW286350   0.646   5.400   4.678  1.9177 -0.0994  2.6455
28066SOL     OW86351   2.073   4.923   2.471 -0.0271 -0.7135 -0.0603
28066SOL    HW186352   1.979   4.930   2.454  0.0148 -1.7722 -0.8633
28066SOL    HW286353   2.098   4.838   2.434  1.2123 -0.5401  0.3125
28067SOL     OW86354   3.932   6.727   9.407  0.7737 -0.3173 -0.1972
28067SOL    HW186355   3.934   6.759   9.317 -0.1523 -0.6952 -0.3648
28067SOL    HW286356   3.943   6.632   9.400  0.2993 -0.3963  0.0507
28068SOL     OW86357   8.335   8.844   8.182 -0.2820 -0.3717 -0.1954
28068SOL    HW186358   8.411   8.871   8.131 -2.4424  1.0097 -2.9916
28068SOL    HW286359   8.263   8.843   8.119 -2.6235 -1.5387  2.2832
28069SOL     OW86360   3.357   6.754   8.750  0.4085  0.6690 -0.4755
28069SOL    HW186361   3.296   6.754   8.676  0.3878  0.8455 -0.4578
28069SOL    HW286362   3.395   6.666   8.749 -1.6842 -0.3464  1.0214
28070SOL     OW86363   6.694   2.456   3.090  0.1310 -0.6131  0.2917
28070SOL    HW186364   6.709   2.542   3.130 -0.8350 -0.3717  0.1576
28070SOL    HW286365   6.704   2.394   3.163  2.5942 -0.5909  0.0612
28071SOL     OW86366   1.804   1.236   0.599 -0.1468 -0.2466  0.1947
28071SOL    HW186367   1.793   1.309   0.660 -0.1759 -0.8146  0.8913
28071SOL    HW286368   1.878   1.187   0.635 -0.6062 -0.9750  0.1689
28072SOL     OW86369   8.103   5.571   8.581  0.0798 -0.1011 -0.2139
28072SOL    HW186370   8.019   5.582   8.535 -0.2103 -0.6092  0.1871
28072SOL    HW286371   8.117   5.655   8.624  0.0499  0.1758 -0.7278
28073SOL     OW86372   6.349   0.163   3.018  0.2849  0.1627  0.8382
28073SOL    HW186373   6.324   0.254   3.034  0.2499  0.2818  0.1393
28073SOL    HW286374   6.278   0.112   3.058  0.7415  0.4010  2.0125
28074SOL     OW86375   6.971   2.463   5.250  1.0164 -0.1285  0.0069
28074SOL    HW186376   7.001   2.401   5.184 -0.0278 -0.9926  0.3206
28074SOL    HW286377   7.003   2.427   5.333 -0.3069 -0.7307  0.2778
28075SOL     OW86378   8.444   7.028   8.982 -0.2411 -0.6306  0.0409
28075SOL    HW186379   8.501   6.980   9.042 -1.0181 -0.1611  1.1888
28075SOL    HW286380   8.371   7.057   9.037 -1.1997 -0.5682 -1.2399
28076SOL     OW86381   3.005   0.658   4.444 -0.0220 -0.1562  0.4087
28076SOL    HW186382   2.986   0.584   4.387  0.0103  1.1423 -1.3993
28076SOL    HW286383   3.079   0.629   4.498  0.6633 -1.0995 -0.9873
28077SOL     OW86384   5.189   4.204   6.422 -0.7281  0.3740 -0.2357
28077SOL    HW186385   5.142   4.286   6.413 -1.5701  0.0990  1.2568
28077SOL    HW286386   5.123   4.136   6.410 -0.3920 -0.0508  0.2258
28078SOL     OW86387   4.165   3.293   8.712 -0.5491  0.0643 -0.1833
28078SOL    HW186388   4.158   3.351   8.636  1.6464  0.1586 -0.3712
28078SOL    HW286389   4.228   3.336   8.770 -0.7747 -0.9241  0.8275
28079SOL     OW86390   8.106   7.685   8.770  0.2048 -0.1281 -0.2509
28079SOL    HW186391   8.139   7.597   8.791 -1.2167 -0.9667 -1.3434
28079SOL    HW286392   8.130   7.738   8.846  1.3734 -1.3819  0.3004
28080SOL     OW86393   6.340   1.141   6.418 -0.3330  0.3529  0.5257
28080SOL    HW186394   6.429   1.173   6.433 -0.4765  1.0365 -0.0204
28080SOL    HW286395   6.307   1.195   6.346 -0.6805 -0.8361 -0.2394
28081SOL     OW86396   7.528   3.272   3.874  0.3618 -0.4666  0.4363
28081SOL    HW186397   7.593   3.332   3.911  0.2178 -0.0719  0.0575
28081SOL    HW286398   7.542   3.189   3.921  1.2654 -0.4420  0.2258
28082SOL     OW86399   7.431   8.412   7.845  0.1286  0.3036  0.4232
28082SOL    HW186400   7.518   8.435   7.877 -0.1870  1.5822  0.4185
28082SOL    HW286401   7.372   8.467   7.896 -0.5947  0.1942 -0.2776
28083SOL     OW86402   6.763   3.452   2.624 -0.1962  0.2881  0.4492
28083SOL    HW186403   6.695   3.483   2.684 -0.0688  1.7546 -0.1252
28083SOL    HW286404   6.813   3.389   2.675 -1.8458 -0.6920  0.9629
28084SOL     OW86405   3.621   5.197   2.205  0.0363  0.4899 -0.2846
28084SOL    HW186406   3.711   5.214   2.177 -0.0439 -0.5252 -1.2238
28084SOL    HW286407   3.604   5.107   2.178 -0.8022  0.1929  1.1281
28085SOL     OW86408   3.269   2.781   4.037 -0.7844  0.3774  0.2981
28085SOL    HW186409   3.339   2.716   4.030 -0.9313  0.3427 -1.3136
28085SOL    HW286410   3.270   2.808   4.128  0.4534 -0.5922  0.5986
28086SOL     OW86411   8.145   5.480   6.533 -0.5363 -0.4439  0.1048
28086SOL    HW186412   8.142   5.387   6.509 -1.1478 -0.0943 -1.2691
28086SOL    HW286413   8.235   5.506   6.514 -0.2136 -0.8673  0.9986
28087SOL     OW86414   1.468   3.275   0.212  0.7476  0.1850  0.0825
28087SOL    HW186415   1.536   3.342   0.202 -0.4472  1.2517 -1.6683
28087SOL    HW286416   1.511   3.193   0.186  2.0323  0.3612  1.5213
28088SOL     OW86417   8.793   2.477   7.412 -0.1716  0.3895  0.2514
28088SOL    HW186418   8.810   2.443   7.499  0.7429  0.4456  0.0984
28088SOL    HW286419   8.799   2.401   7.354 -0.2402  0.4484  0.1656
28089SOL     OW86420   8.284   6.518   2.136 -0.0714  0.0341  0.0245
28089SOL    HW186421   8.307   6.530   2.044  1.0837 -1.9436  0.0086
28089SOL    HW286422   8.303   6.426   2.154 -0.4116  0.3401  2.2116
28090SOL     OW86423   0.287   7.717   1.088 -0.6661  0.4204 -0.0010
28090SOL    HW186424   0.196   7.746   1.100 -1.3871 -1.6779 -0.0559
28090SOL    HW286425   0.300   7.652   1.157  1.0955  1.2664  0.5149
28091SOL     OW86426   1.713   6.373   9.068  0.0006  0.0866  0.3036
28091SOL    HW186427   1.742   6.381   9.159 -1.3815 -1.1386  0.8806
28091SOL    HW286428   1.732   6.283   9.044 -0.3929  0.1712 -0.3594
28092SOL     OW86429   8.603   3.868   0.519 -0.4132  0.1916 -0.3947
28092SOL    HW186430   8.695   3.845   0.501 -0.5030  0.8799 -1.8343
28092SOL    HW286431   8.599   3.874   0.614  0.4593 -2.1918 -0.1343
28093SOL     OW86432   1.220   8.011   5.404  0.1865  0.7022  0.0291
28093SOL    HW186433   1.254   8.036   5.318 -1.1165 -1.2749 -1.1177
28093SOL    HW286434   1.136   8.056   5.411 -1.5789 -2.1277 -1.5105
28094SOL     OW86435   9.129   7.913   2.147  0.4134  0.0052  0.0457
28094SOL    HW186436   9.050   7.871   2.180  0.4358 -1.3645 -1.4858
28094SOL    HW286437   9.186   7.922   2.223 -1.2235  1.1230  1.2035
28095SOL     OW86438   0.276   3.459   4.021 -0.1538  0.0002  0.0424
28095SOL    HW186439   0.224   3.526   3.977  0.5995 -0.3254 -1.4229
28095SOL    HW286440   0.336   3.427   3.953  0.9205 -0.6857  1.2686
28096SOL     OW86441   6.372   0.199   5.282 -0.1800  0.0213  0.3411
28096SOL    HW186442   6.289   0.241   5.303 -0.5493 -0.4575 -0.1562
28096SOL    HW286443   6.359   0.161   5.196  0.5089 -0.1838  0.3218
28097SOL     OW86444   2.409   1.304   7.530 -0.2417 -0.7254  0.1680
28097SOL    HW186445   2.464   1.381   7.515 -1.1112 -0.1428 -0.1041
28097SOL    HW286446   2.425   1.282   7.622 -0.2077 -0.0276  0.3419
28098SOL     OW86447   3.134   3.477   1.954  0.5098  0.1910  0.3805
28098SOL    HW186448   3.060   3.426   1.985  0.6176  0.0445  0.4013
28098SOL    HW286449   3.163   3.527   2.030 -0.3132  1.1656  0.0673
28099SOL     OW86450   8.081   7.701   4.627  0.2549 -0.5763  0.0309
28099SOL    HW186451   8.152   7.755   4.661  0.6471  0.5398 -2.3585
28099SOL    HW286452   8.113   7.669   4.543 -2.5547  1.2394 -1.9107
28100SOL     OW86453   0.329   3.029   3.489  0.0585  0.2366  0.2990
28100SOL    HW186454   0.297   2.941   3.472 -1.8233  1.1374 -1.2108
28100SOL    HW286455   0.397   3.044   3.424 -0.1465  0.1583  0.0670
28101SOL     OW86456   2.185   3.665   6.841 -0.1525 -0.4884 -0.1066
28101SOL    HW186457   2.258   3.726   6.828 -0.1931 -0.2456  0.7409
28101SOL    HW286458   2.214   3.607   6.911 -0.9916 -0.0173  0.6592
28102SOL     OW86459   1.752   8.125   5.881  0.5775 -0.3405  0.5651
28102SOL    HW186460   1.725   8.159   5.795  0.4141 -0.9618  0.3654
28102SOL    HW286461   1.735   8.031   5.876  2.4917 -0.7167  0.5526
28103SOL     OW86462   7.101   0.995   6.839  0.6404 -0.1118 -0.6174
28103SOL    HW186463   7.064   1.032   6.759 -0.0060  0.3881 -0.1007
28103SOL    HW286464   7.027   0.988   6.899  1.0896 -0.6100 -0.1068
28104SOL     OW86465   5.660   9.187   9.090  0.0925 -0.1332  0.4283
28104SOL    HW186466   5.598   9.253   9.060 -0.0647 -0.7194 -0.5539
28104SOL    HW286467   5.670   9.205   9.184 -2.1899 -0.5340  0.8012
28105SOL     OW86468   9.113   7.503   4.686  0.0761  0.1150 -0.1997
28105SOL    HW186469   9.118   7.485   4.780 -0.8797  0.6191 -0.0457
28105SOL    HW286470   9.163   7.584   4.675 -1.3877  1.0958  0.1817
28106SOL     OW86471   0.276   7.334   6.875 -0.2597  0.2717 -0.2707
28106SOL    HW186472   0.266   7.274   6.950 -3.0184 -1.0652 -1.5411
28106SOL    HW286473   0.203   7.311   6.817 -0.1730  3.4964 -1.8413
28107SOL     OW86474   8.088   2.491   3.490  0.0381  0.3738  0.1747
28107SOL    HW186475   8.123   2.530   3.410 -1.5453 -1.4198 -1.5026
28107SOL    HW286476   8.165   2.462   3.538  1.0225  1.3161 -0.7858
28108SOL     OW86477   4.727   3.316   0.307  0.0071 -0.0438 -0.6197
28108SOL    HW186478   4.716   3.222   0.290 -0.8785  0.1034 -0.9307
28108SOL    HW286479   4.821   3.327   0.322  0.4016 -0.7102 -2.3381
28109SOL     OW86480   1.649   9.308   3.726  0.2316 -0.3794  0.3236
28109SOL    HW186481   1.628   9.376   3.662 -2.3038 -1.7894 -0.4780
28109SOL    HW286482   1.710   9.250   3.682  0.0374 -0.2529 -0.1132
28110SOL     OW86483   4.426   7.952   9.027  0.1399  0.0799 -0.1015
28110SOL    HW186484   4.427   8.040   8.987 -0.1456  0.1159 -0.0327
28110SOL    HW286485   4.481   7.960   9.105  1.2605 -0.1618 -0.8371
28111SOL     OW86486   2.689   1.877   2.441 -0.2032  0.5530 -0.1554
28111SOL    HW186487   2.693   1.875   2.537 -0.4190  1.6392 -0.1202
28111SOL    HW286488   2.652   1.792   2.417 -0.7958  0.5458  0.7568
28112SOL     OW86489   5.046   7.796   2.037  0.2201 -0.2663  0.8183
28112SOL    HW186490   4.978   7.805   1.970  1.5751  3.3325 -0.3112
28112SOL    HW286491   5.123   7.763   1.989  0.3739 -0.5801  1.2692
28113SOL     OW86492   9.473   7.164   5.833  0.0862  0.7459  0.1143
28113SOL    HW186493   9.442   7.116   5.909 -0.6076  1.4976  0.3141
28113SOL    HW286494   9.566   7.140   5.826 -0.2668 -0.6940  0.1318
28114SOL     OW86495   2.903   2.277   7.292 -0.6098  0.6450 -0.8154
28114SOL    HW186496   2.820   2.323   7.277 -0.6984  1.0316  0.7465
28114SOL    HW286497   2.951   2.333   7.352  0.3605 -0.0961 -0.8796
28115SOL     OW86498   7.148   7.407   7.661 -0.2289 -0.2890 -0.0199
28115SOL    HW186499   7.227   7.428   7.611  0.1808 -1.3177  0.1676
28115SOL    HW286500   7.081   7.467   7.628 -0.0999 -1.2290 -2.1339
28116SOL     OW86501   2.315   9.501   0.328  0.7858  0.2199  0.4376
28116SOL    HW186502   2.289   9.474   0.240  0.5147  0.6575  0.3815
28116SOL    HW286503   2.327   9.596   0.322  2.5503  0.0276  0.4248
28117SOL     OW86504   0.350   1.425   1.867 -0.0344  0.1181 -0.0304
28117SOL    HW186505   0.348   1.385   1.954 -0.2465  0.4528  0.1210
28117SOL    HW286506   0.440   1.456   1.857  0.3204 -0.9682 -0.4190
28118SOL     OW86507   5.302   7.977   5.299 -0.4749 -0.0169  0.1577
28118SOL    HW186508   5.361   7.916   5.343  0.2357  0.5536  0.0087
28118SOL    HW286509   5.247   8.011   5.370  0.7005  0.9376  0.6373
28119SOL     OW86510   8.224   1.131   2.333 -0.6032 -0.9411  0.3263
28119SOL    HW186511   8.230   1.048   2.287  0.6177 -0.1574 -1.0508
28119SOL    HW286512   8.163   1.183   2.281 -1.6507 -1.0816  1.3885
28120SOL     OW86513   5.437   5.810   5.946 -0.3823 -0.1894 -0.1278
28120SOL    HW186514   5.507   5.873   5.961  0.6104 -0.1195 -3.8939
28120SOL    HW286515   5.450   5.741   6.010  0.1452  2.0843  2.3543
28121SOL     OW86516   1.949   2.344   7.160  0.6130 -0.2111  0.2155
28121SOL    HW186517   1.956   2.252   7.138 -1.5025 -0.1415 -1.0296
28121SOL    HW286518   1.937   2.346   7.255  1.1019 -1.1727  0.3001
28122SOL     OW86519   1.942   7.176   4.828 -0.2602 -0.2751  0.6936
28122SOL    HW186520   1.982   7.099   4.868  1.3910  0.0290 -0.2715
28122SOL    HW286521   1.953   7.162   4.734 -1.8317  0.1693  0.4211
28123SOL     OW86522   7.999   0.812   8.093  0.2674 -0.1293  0.4773
28123SOL    HW186523   8.074   0.803   8.035  0.4280  1.2667  0.4511
28123SOL    HW286524   8.035   0.797   8.181  0.5306  0.3096  0.4445
28124SOL     OW86525   1.479   2.724   2.086 -0.6212  0.3552  0.1187
28124SOL    HW186526   1.515   2.643   2.050  0.7483  1.1106 -0.2926
28124SOL    HW286527   1.541   2.792   2.059 -1.9550  1.6174  0.0789
28125SOL     OW86528   3.447   1.965   6.978 -0.3804 -0.7173  0.2686
28125SOL    HW186529   3.411   2.038   7.029  1.3103 -0.5795  1.3337
28125SOL    HW286530   3.485   2.005   6.900 -1.9104 -0.8047 -0.5724
28126SOL     OW86531   7.685   3.868   2.696  0.5171  0.5084 -0.2819
28126SOL    HW186532   7.620   3.919   2.744  0.3570  0.5032 -0.4903
28126SOL    HW286533   7.769   3.894   2.734  0.4555  1.0765 -0.5146
28127SOL     OW86534   8.063   2.559   9.448  0.3368 -0.0171 -0.1575
28127SOL    HW186535   7.998   2.567   9.378  1.3928  2.2320 -0.9630
28127SOL    HW286536   8.034   2.619   9.516  0.6562 -0.3283  0.2619
28128SOL     OW86537   3.578   5.081   3.037 -0.2878 -0.0081  0.4312
28128SOL    HW186538   3.526   5.088   2.957 -0.1255  1.4908  0.4403
28128SOL    HW286539   3.661   5.042   3.009  0.0985  1.2963 -0.3112
28129SOL     OW86540   3.127   6.390   7.933 -0.1098 -0.1770  0.1125
28129SOL    HW186541   3.092   6.467   7.977 -1.6655 -0.6822 -0.1743
28129SOL    HW286542   3.153   6.422   7.846 -1.0021 -0.0330 -0.1032
28130SOL     OW86543   7.434   6.726   6.156 -0.5199  0.3479 -0.1528
28130SOL    HW186544   7.498   6.654   6.160 -0.9886 -0.1639 -1.3392
28130SOL    HW286545   7.409   6.741   6.248  0.7884  0.1059  0.2656
28131SOL     OW86546   2.303   0.965   8.916 -0.1717  0.3863 -0.2934
28131SOL    HW186547   2.282   0.993   8.827 -3.0411  1.4577  0.6089
28131SOL    HW286548   2.288   1.042   8.970  2.0678 -0.0735  1.1217
28132SOL     OW86549   2.679   4.597   0.507  0.2339 -0.2788 -0.4124
28132SOL    HW186550   2.769   4.572   0.527  0.0129  0.2383  1.3663
28132SOL    HW286551   2.632   4.514   0.500  0.5340 -0.5106  0.2678
28133SOL     OW86552   7.588   0.862   7.606 -0.0282  0.0130 -0.7607
28133SOL    HW186553   7.607   0.856   7.513 -2.4394  1.4064 -1.4298
28133SOL    HW286554   7.533   0.786   7.626  1.5347 -0.9959 -0.1226
28134SOL     OW86555   3.904   7.113   8.554  0.2895 -0.2225 -0.6566
28134SOL    HW186556   3.867   7.043   8.500 -0.3205 -0.7135  0.3739
28134SOL    HW286557   3.827   7.159   8.588  0.6580 -0.1735  0.1166
28135SOL     OW86558   5.960   6.492   9.549 -0.5838 -0.3866  0.1657
28135SOL    HW186559   5.936   6.493   9.641 -0.8597  1.6984  0.1161
28135SOL    HW286560   6.055   6.483   9.549 -0.6012 -0.5752  0.6490
28136SOL     OW86561   5.329   8.764   0.886  0.7294 -0.8840  0.0536
28136SOL    HW186562   5.269   8.719   0.945 -0.4322  1.1007  0.4954
28136SOL    HW286563   5.278   8.776   0.806 -0.6567  3.2040  1.3130
28137SOL     OW86564   0.222   1.383   3.156 -0.1927 -0.0541 -0.6202
28137SOL    HW186565   0.237   1.317   3.223  1.6969  0.3429 -0.5990
28137SOL    HW286566   0.301   1.437   3.157  0.1301 -0.3129 -3.4520
28138SOL     OW86567   5.340   4.454   8.504 -0.2329 -0.2198 -0.1324
28138SOL    HW186568   5.346   4.505   8.423  0.0389  0.5504  0.3651
28138SOL    HW286569   5.413   4.392   8.499 -0.4634 -0.4531 -0.6628
28139SOL     OW86570   0.552   1.107   6.279 -0.0020 -0.2521 -0.0418
28139SOL    HW186571   0.542   1.068   6.192 -0.2158 -0.5076  0.0953
28139SOL    HW286572   0.646   1.125   6.286 -0.3012  2.2009 -1.3531
28140SOL     OW86573   7.020   2.184   5.220  0.2014  0.2957 -0.0083
28140SOL    HW186574   7.047   2.136   5.142 -0.4117 -0.9787  0.5316
28140SOL    HW286575   6.928   2.207   5.202  0.3336  0.8056 -0.0388
28141SOL     OW86576   6.822   2.195   5.021  0.3538 -0.1228 -0.3097
28141SOL    HW186577   6.806   2.101   5.023  0.1653 -0.1394 -1.8176
28141SOL    HW286578   6.903   2.205   4.971 -0.5428  0.6093 -1.6460
28142SOL     OW86579   3.777   3.184   0.359  0.3288  0.2423 -0.0872
28142SOL    HW186580   3.856   3.129   0.355  1.3299  1.6731 -1.0217
28142SOL    HW286581   3.741   3.181   0.271 -0.9936 -0.8082  0.4594
28143SOL     OW86582   7.105   4.011   7.992 -0.3869  0.2139 -0.1971
28143SOL    HW186583   7.160   3.993   7.915  0.5241 -1.5789  0.8141
28143SOL    HW286584   7.096   4.107   7.993  1.0127  0.3982 -1.5498
28144SOL     OW86585   5.894   2.108   1.012 -0.6118 -0.0786 -0.5021
28144SOL    HW186586   5.981   2.134   0.980  1.3546 -1.4475  3.0369
28144SOL    HW286587   5.877   2.168   1.085 -0.8337 -2.0082  1.1510
28145SOL     OW86588   0.884   0.792   1.402  0.5651  0.2721  0.1124
28145SOL    HW186589   0.966   0.753   1.434  0.8815  1.5463  0.9005
28145SOL    HW286590   0.872   0.753   1.315  1.9336 -0.0432  0.0407
28146SOL     OW86591   6.877   1.716   7.754  0.4172 -0.6834 -0.4335
28146SOL    HW186592   6.958   1.767   7.744  0.4230 -0.3267  1.1412
28146SOL    HW286593   6.881   1.683   7.844 -0.8760 -1.2349 -0.5579
28147SOL     OW86594   5.296   8.037   7.424 -0.0849 -0.2893  0.2306
28147SOL    HW186595   5.304   7.989   7.342 -0.1624 -0.1156  0.1194
28147SOL    HW286596   5.262   8.123   7.398  0.8931  0.1430  0.3249
28148SOL     OW86597   8.509   4.676   9.322  0.6325 -0.3580 -0.6478
28148SOL    HW186598   8.481   4.585   9.311  3.8964 -1.6232  0.3325
28148SOL    HW286599   8.444   4.715   9.380 -0.2588 -2.3952 -0.2084
28149SOL     OW86600   0.826   5.006   7.315  0.0529  0.1987  0.1641
28149SOL    HW186601   0.890   4.980   7.249 -0.5658  1.1295 -0.8402
28149SOL    HW286602   0.776   4.926   7.333 -0.1430  0.0624 -0.9257
28150SOL     OW86603   7.451   6.896   5.862 -0.6403 -0.1210 -0.0497
28150SOL    HW186604   7.476   6.833   5.930 -1.2935 -0.3478 -0.0085
28150SOL    HW286605   7.416   6.971   5.911  1.3489  0.8517 -0.0461
28151SOL     OW86606   6.203   1.506   8.925  0.0775  0.1949  0.2429
28151SOL    HW186607   6.173   1.415   8.915 -0.5548  0.2708  1.2804
28151SOL    HW286608   6.122   1.556   8.934  0.4652  0.6980  0.9449
28152SOL     OW86609   7.212   8.880   3.675 -0.3891  0.3601 -0.5178
28152SOL    HW186610   7.237   8.867   3.583 -2.7003  1.0463 -1.3190
28152SOL    HW286611   7.158   8.804   3.697 -1.0484  0.8966 -0.2212
28153SOL     OW86612   8.653   4.231   8.666 -0.1553 -0.5120 -0.2964
28153SOL    HW186613   8.603   4.278   8.600 -0.4868 -0.9503 -0.3578
28153SOL    HW286614   8.589   4.176   8.710  0.1466 -0.5521  0.0963
28154SOL     OW86615   5.710   7.358   1.419  0.1774  0.2102 -0.1012
28154SOL    HW186616   5.803   7.371   1.400  0.0995  0.7890 -0.1123
28154SOL    HW286617   5.706   7.345   1.513  0.4415 -1.5045 -0.2968
28155SOL     OW86618   9.596   8.803   0.645 -0.7943  0.3498  0.1799
28155SOL    HW186619   9.655   8.787   0.572 -1.1174  0.4899 -0.1169
28155SOL    HW286620   9.630   8.749   0.716 -0.5946  0.0592 -0.1345
28156SOL     OW86621   7.545   2.520   1.468  0.3314 -0.4201  0.0748
28156SOL    HW186622   7.606   2.591   1.486  0.6623 -0.7035  0.0822
28156SOL    HW286623   7.459   2.563   1.463  0.5695  0.0284 -0.2669
28157SOL     OW86624   0.160   4.891   6.807 -0.1381  0.3814 -0.4511
28157SOL    HW186625   0.148   4.985   6.820 -3.3008 -0.0422  0.5045
28157SOL    HW286626   0.190   4.858   6.892  0.1105  0.3970 -0.5313
28158SOL     OW86627   7.097   6.102   0.031 -0.3850 -0.0085 -0.0081
28158SOL    HW186628   7.080   6.190  -0.003  0.1379 -0.8932 -2.8047
28158SOL    HW286629   7.013   6.072   0.065 -0.2517  2.0650  2.4507
28159SOL     OW86630   6.825   8.256   6.700 -0.5417 -0.5044 -0.1892
28159SOL    HW186631   6.730   8.273   6.701 -0.2832  1.1974 -0.7297
28159SOL    HW286632   6.838   8.198   6.625 -1.0191  0.3304 -0.9383
28160SOL     OW86633   9.293   0.213   4.512  0.3295 -0.4914 -0.3267
28160SOL    HW186634   9.255   0.301   4.507 -1.6758 -1.3436 -0.8559
28160SOL    HW286635   9.240   0.160   4.453  0.7928 -2.3301  0.8188
28161SOL     OW86636   6.124   6.022   5.201  0.2705 -0.1231 -0.2346
28161SOL    HW186637   6.069   5.987   5.271 -0.9540  0.6037 -0.8109
28161SOL    HW286638   6.074   6.008   5.121  1.4327 -0.4877 -0.9227
28162SOL     OW86639   9.414   3.957   4.337  0.7028  0.1060 -0.0992
28162SOL    HW186640   9.402   4.030   4.276 -1.1682  1.0500  1.3229
28162SOL    HW286641   9.482   3.987   4.397 -0.0596  0.6927  0.4797
28163SOL     OW86642   8.591   5.410   0.638  0.2858 -0.1123  0.6825
28163SOL    HW186643   8.673   5.363   0.652  1.9801  2.5417  0.3318
28163SOL    HW286644   8.617   5.491   0.595 -2.6683  0.3781 -0.4106
28164SOL     OW86645   4.774   4.993   2.783 -0.5728 -0.1579 -0.5231
28164SOL    HW186646   4.722   4.933   2.729 -0.3080  0.2790 -1.2819
28164SOL    HW286647   4.858   4.949   2.794  0.2686  0.7851 -2.5724
28165SOL     OW86648   6.469   8.158   9.035  0.2301 -0.2258  1.0526
28165SOL    HW186649   6.396   8.219   9.025  0.0052 -0.7082 -0.4343
28165SOL    HW286650   6.430   8.080   9.074 -0.4623 -1.1421 -1.3092
28166SOL     OW86651   1.683   5.545   7.462  0.3196  0.2664 -0.3562
28166SOL    HW186652   1.592   5.515   7.459  0.4465 -0.1239 -0.4004
28166SOL    HW286653   1.678   5.639   7.443 -0.2885  0.7148  1.7757
28167SOL     OW86654   2.430   2.726   2.267 -0.0001  0.2907  0.2582
28167SOL    HW186655   2.481   2.794   2.310 -0.8962  0.9902  0.2596
28167SOL    HW286656   2.374   2.690   2.336 -0.3978  0.4028  0.0001
28168SOL     OW86657   0.803   4.353   3.979  0.1227  0.7756  0.4685
28168SOL    HW186658   0.788   4.327   4.070 -2.5241  1.0903  0.2049
28168SOL    HW286659   0.715   4.359   3.941  1.1544  0.2191 -2.2530
28169SOL     OW86660   5.845   1.559   2.376 -0.1610 -0.6347 -0.5623
28169SOL    HW186661   5.758   1.529   2.401  0.7892 -2.3234  0.9579
28169SOL    HW286662   5.869   1.623   2.444 -0.2025 -0.1689 -0.9800
28170SOL     OW86663   0.912   6.686   5.645  0.2275 -0.2116 -0.0293
28170SOL    HW186664   1.003   6.703   5.619  0.3358 -0.5012  0.1612
28170SOL    HW286665   0.896   6.596   5.618 -0.5581  0.3630 -1.6327
28171SOL     OW86666   1.538   4.621   6.826  0.1030 -0.3942 -0.5835
28171SOL    HW186667   1.507   4.672   6.901  2.5533 -1.8098  1.5820
28171SOL    HW286668   1.484   4.543   6.826 -0.0974 -0.2551 -0.4640
28172SOL     OW86669   3.939   7.035   1.289 -0.2716  0.2760 -0.2725
28172SOL    HW186670   3.882   6.982   1.234  0.3436 -2.4656  1.5343
28172SOL    HW286671   3.881   7.071   1.357 -0.2572 -0.4436  0.1251
28173SOL     OW86672   3.818   3.328   7.009  0.0223 -0.4693  0.1370
28173SOL    HW186673   3.844   3.344   7.100 -0.4772  0.3140  0.1470
28173SOL    HW286674   3.821   3.232   7.000  0.5480 -0.5268  0.8300
28174SOL     OW86675   4.242   3.469   3.354 -1.3404  0.1625 -0.0095
28174SOL    HW186676   4.283   3.408   3.292 -0.4979 -0.1727  0.8635
28174SOL    HW286677   4.262   3.433   3.440 -0.2665  1.9899  0.5647
28175SOL     OW86678   7.999   4.428   0.936  0.3251 -0.1287  0.1245
28175SOL    HW186679   8.058   4.500   0.957 -0.4130  0.4962  0.1009
28175SOL    HW286680   7.921   4.471   0.900 -0.4812 -0.8783  0.9273
28176SOL     OW86681   1.029   6.849   6.797 -0.6990 -0.2936  0.3567
28176SOL    HW186682   1.123   6.833   6.784 -0.7242 -0.7718  0.7220
28176SOL    HW286683   1.016   6.940   6.769 -0.0642 -0.1226  0.5914
28177SOL     OW86684   9.369   4.771   8.826 -0.5196  0.1157 -0.1604
28177SOL    HW186685   9.293   4.715   8.811 -0.8685  0.7234 -0.7634
28177SOL    HW286686   9.347   4.853   8.781 -0.1925  0.8746  1.0197
28178SOL     OW86687   0.221   6.159   3.895 -0.1951  0.7856  0.2751
28178SOL    HW186688   0.257   6.118   3.974 -0.2503  0.5379  0.1715
28178SOL    HW286689   0.225   6.091   3.829  0.7051  1.2646 -0.1817
28179SOL     OW86690   5.930   8.014   3.829  0.1769 -0.4910 -0.4490
28179SOL    HW186691   5.986   8.088   3.851  1.9553 -1.5066 -1.2930
28179SOL    HW286692   5.840   8.046   3.840  0.8835  1.8302 -0.9993
28180SOL     OW86693   8.356   0.319   5.704 -0.2258  0.4413  0.1229
28180SOL    HW186694   8.409   0.241   5.720  0.0346  0.7498  0.7916
28180SOL    HW286695   8.325   0.309   5.613 -0.0802 -0.3638  0.1553
28181SOL     OW86696   2.456   5.512   7.326  0.2455 -0.2054 -0.7355
28181SOL    HW186697   2.545   5.499   7.294  0.0471  0.4941 -1.6241
28181SOL    HW286698   2.450   5.456   7.403  2.2912  1.6242  0.8899
28182SOL     OW86699   7.913   2.099   0.149  0.1171  0.1166  0.0770
28182SOL    HW186700   7.887   2.169   0.208 -0.6890  0.3096 -0.4991
28182SOL    HW286701   7.866   2.116   0.067  1.0789 -0.2374 -0.5804
28183SOL     OW86702   1.534   3.061   6.776 -0.2913 -0.2260 -0.2993
28183SOL    HW186703   1.479   3.056   6.698 -0.8626  0.6275  0.0383
28183SOL    HW286704   1.608   3.116   6.750  1.4493 -2.8737 -1.3361
28184SOL     OW86705   1.639   2.259   6.793  0.1824  0.8016  0.4133
28184SOL    HW186706   1.674   2.329   6.848  2.7623  2.2355 -2.7664
28184SOL    HW286707   1.677   2.274   6.707 -1.6231 -2.7724 -1.2275
28185SOL     OW86708   0.739   8.045   9.519 -0.2056  0.5117  0.0132
28185SOL    HW186709   0.811   8.069   9.460 -0.0807  0.5851  0.1929
28185SOL    HW286710   0.766   8.080   9.604 -0.5275  0.6681  0.0494
28186SOL     OW86711   3.609   2.854   1.750 -0.0346 -0.4690  0.1398
28186SOL    HW186712   3.515   2.839   1.754 -0.2594  0.2079 -1.4480
28186SOL    HW286713   3.628   2.914   1.821 -0.7106 -0.9740  0.7550
28187SOL     OW86714   3.841   2.960   3.799 -0.5977  0.5547  0.1637
28187SOL    HW186715   3.806   3.025   3.860 -0.8874  0.6554 -0.1063
28187SOL    HW286716   3.903   3.009   3.745  1.4596 -0.0224  1.8955
28188SOL     OW86717   8.074   5.896   5.590 -0.3207  0.0011  0.0003
28188SOL    HW186718   8.037   5.810   5.605 -0.5918  0.3325  1.3751
28188SOL    HW286719   8.128   5.913   5.667  0.7261  0.5527 -0.8261
28189SOL     OW86720   9.516   6.369   8.850 -0.0285  0.4215 -0.4561
28189SOL    HW186721   9.596   6.332   8.813 -1.7464 -2.1547 -1.8458
28189SOL    HW286722   9.476   6.296   8.898 -1.3804  1.7509  0.5123
28190SOL     OW86723   7.816   8.720   7.730  0.5200 -0.3294 -0.2558
28190SOL    HW186724   7.755   8.651   7.702 -1.0084  0.1095  1.7906
28190SOL    HW286725   7.896   8.673   7.752 -0.3374 -1.4218  0.6372
28191SOL     OW86726   4.104   7.819   0.218  0.6735  0.3950  0.3559
28191SOL    HW186727   4.078   7.854   0.133  0.8392  0.7854  0.4629
28191SOL    HW286728   4.135   7.731   0.199 -0.2006  0.1233  0.1504
28192SOL     OW86729   2.749   6.825   6.048  0.1857 -0.0996 -0.0510
28192SOL    HW186730   2.780   6.763   5.981  0.1559 -0.3024  0.1202
28192SOL    HW286731   2.714   6.769   6.117  0.2048  0.1103  0.1290
28193SOL     OW86732   7.652   1.963   0.306 -0.6014 -0.3195 -0.2020
28193SOL    HW186733   7.589   1.984   0.237  1.3514  0.4155 -1.9089
28193SOL    HW286734   7.735   1.952   0.259  0.8790  0.4141  2.0677
28194SOL     OW86735   6.412   8.249   3.793 -0.0157  0.1466 -0.3390
28194SOL    HW186736   6.459   8.332   3.784  0.4129 -0.0709 -0.1201
28194SOL    HW286737   6.446   8.210   3.874 -0.8599  0.1687  0.0399
28195SOL     OW86738   8.891   1.857   3.814  0.7150 -0.1762  0.1265
28195SOL    HW186739   8.927   1.941   3.842 -0.2983  0.1747  0.4030
28195SOL    HW286740   8.871   1.869   3.721 -0.7135  0.3598  0.4831
28196SOL     OW86741   9.220   3.213   4.438 -0.3279  0.0812  0.0711
28196SOL    HW186742   9.156   3.234   4.370  0.7559 -0.0012 -1.0141
28196SOL    HW286743   9.293   3.272   4.421 -0.0202  0.0253  1.1493
28197SOL     OW86744   5.815   7.153   4.171 -0.0266 -0.1043 -0.1394
28197SOL    HW186745   5.729   7.195   4.172 -0.1620 -0.3874  0.2824
28197SOL    HW286746   5.845   7.157   4.262 -0.5522 -1.9637  0.1563
28198SOL     OW86747   8.397   9.521   8.257 -0.4050 -0.1955 -0.0370
28198SOL    HW186748   8.385   9.547   8.348  0.2811  1.3235 -0.3434
28198SOL    HW286749   8.361   9.432   8.252  1.0508 -0.9707  2.0805
28199SOL     OW86750   7.386   7.185   8.347 -0.4036 -0.3351 -0.2388
28199SOL    HW186751   7.436   7.265   8.365  0.9849 -0.9067 -1.3607
28199SOL    HW286752   7.447   7.114   8.364 -0.4798 -1.0350 -2.4986
28200SOL     OW86753   2.674   9.387   8.423  0.4593 -0.1910 -0.5225
28200SOL    HW186754   2.693   9.388   8.329  1.1906 -1.7215 -0.4143
28200SOL    HW286755   2.589   9.343   8.430  0.2082  0.2841 -0.4712
28201SOL     OW86756   6.181   3.571   6.835  0.5731 -0.4519 -0.2672
28201SOL    HW186757   6.154   3.576   6.743  0.0175 -0.1192 -0.0920
28201SOL    HW286758   6.164   3.658   6.870 -1.4473 -1.1886  0.7334
28202SOL     OW86759   8.023   3.370   7.256 -0.4222 -0.0385  0.2244
28202SOL    HW186760   7.965   3.378   7.332 -0.3690 -0.7986  0.3541
28202SOL    HW286761   8.014   3.454   7.210 -1.9140 -0.2724  0.0387
28203SOL     OW86762   2.378   3.022   7.587 -0.4698 -0.2343 -0.5325
28203SOL    HW186763   2.423   3.102   7.614  0.7006 -0.7391 -0.9565
28203SOL    HW286764   2.432   2.951   7.621 -1.8074 -0.8652  0.3442
28204SOL     OW86765   4.585   3.390   2.159 -0.5774 -0.9703  0.0853
28204SOL    HW186766   4.667   3.430   2.188 -0.1970 -1.5713 -0.1448
28204SOL    HW286767   4.537   3.461   2.116 -0.6635 -0.3362  1.1800
28205SOL     OW86768   7.919   5.526   4.253  0.2642  0.1317 -0.2783
28205SOL    HW186769   7.886   5.569   4.174 -0.9437 -1.1196 -0.4851
28205SOL    HW286770   7.889   5.582   4.325  0.2997  0.6098 -0.6267
28206SOL     OW86771   0.890   4.821   0.912  0.1347 -0.0632 -0.1426
28206SOL    HW186772   0.911   4.869   0.832  1.1301  0.4680  0.4224
28206SOL    HW286773   0.959   4.756   0.921  1.3128  1.3226  1.4258
28207SOL     OW86774   8.892   4.020   8.216  1.0142 -0.3922  0.6068
28207SOL    HW186775   8.869   4.043   8.126 -1.0026  1.1901  1.4402
28207SOL    HW286776   8.839   3.943   8.236  0.7298 -0.1661  0.7310
28208SOL     OW86777   8.881   5.677   1.994  0.0053 -0.7713  0.4495
28208SOL    HW186778   8.903   5.611   1.929 -0.7517  0.6920 -1.3818
28208SOL    HW286779   8.956   5.736   1.995 -0.8235  0.3321 -0.6258
28209SOL     OW86780   9.528   3.915   6.187  0.3478  0.3069 -0.9388
28209SOL    HW186781   9.460   3.957   6.135  1.0262  1.9809 -0.5457
28209SOL    HW286782   9.602   3.907   6.127  0.6023  0.7632 -0.6906
28210SOL     OW86783   3.301   9.526   7.989  0.1974 -0.1834  0.0241
28210SOL    HW186784   3.214   9.493   8.012  0.6606 -1.5007  0.0014
28210SOL    HW286785   3.325   9.582   8.063 -0.4726 -0.2014  0.2656
28211SOL     OW86786   5.812   9.518   2.990  0.2122 -0.0451 -0.2808
28211SOL    HW186787   5.763   9.553   3.065  1.8705  0.9178  0.4044
28211SOL    HW286788   5.904   9.525   3.016  0.7539 -1.5421 -1.6299
28212SOL     OW86789   6.372   0.973   0.627  0.9521  0.0855  0.5628
28212SOL    HW186790   6.408   0.887   0.648 -0.2580 -0.3793  0.8452
28212SOL    HW286791   6.301   0.954   0.565  0.9912  0.9276  0.2465
28213SOL     OW86792   2.450   1.267   7.787 -0.4359 -0.1970  0.1797
28213SOL    HW186793   2.531   1.229   7.819 -0.9568 -1.1013  0.4387
28213SOL    HW286794   2.426   1.333   7.853  1.4259  1.9889 -1.1598
28214SOL     OW86795   5.296   2.343   2.821 -0.4276  0.3715  0.4243
28214SOL    HW186796   5.227   2.277   2.823  0.7980 -1.0692 -1.1895
28214SOL    HW286797   5.359   2.310   2.756 -0.6364  4.0316 -1.9174
28215SOL     OW86798   5.508   9.472   2.323 -0.0794  0.8332 -0.2848
28215SOL    HW186799   5.508   9.553   2.373  1.0938 -0.0413  1.2231
28215SOL    HW286800   5.570   9.415   2.369  0.0609 -0.4935 -1.9956
28216SOL     OW86801   9.242   5.068   1.622  0.4192  0.5484  0.0242
28216SOL    HW186802   9.308   5.004   1.598  1.5750  1.6249  0.2437
28216SOL    HW286803   9.191   5.026   1.691  0.0831 -0.7498 -0.9662
28217SOL     OW86804   3.661   9.479   9.479 -0.2793  0.6253 -0.2563
28217SOL    HW186805   3.720   9.536   9.432 -0.9372  2.3675  0.9296
28217SOL    HW286806   3.601   9.538   9.525 -1.6850 -1.0274  0.1773
28218SOL     OW86807   8.025   2.374   0.715 -0.4004  0.1517 -0.2560
28218SOL    HW186808   7.986   2.381   0.628 -0.7357 -1.3635 -0.2702
28218SOL    HW286809   8.036   2.279   0.728  1.5111  0.4238  0.5328
28219SOL     OW86810   0.422   1.603   2.155  0.1137 -0.0074  0.3428
28219SOL    HW186811   0.415   1.516   2.117 -0.2490  0.1718 -0.0051
28219SOL    HW286812   0.423   1.588   2.250 -1.1024 -0.3228  0.3246
28220SOL     OW86813   1.192   0.155   9.544 -0.3364 -0.6313  0.0285
28220SOL    HW186814   1.130   0.211   9.592 -1.3307 -2.6515  1.2300
28220SOL    HW286815   1.273   0.206   9.542 -0.7639  0.2826  2.3732
28221SOL     OW86816   9.548   8.170   8.821 -0.3603  0.5560 -0.0558
28221SOL    HW186817   9.522   8.141   8.733  1.7034 -0.2139 -0.4705
28221SOL    HW286818   9.635   8.208   8.809 -0.4057  1.2504  1.5377
28222SOL     OW86819   9.284   2.530   9.423  0.3870 -0.0556  0.8874
28222SOL    HW186820   9.363   2.516   9.475 -0.2820  0.0395  1.9482
28222SOL    HW286821   9.240   2.445   9.423  1.1530 -0.5085 -0.8940
28223SOL     OW86822   7.389   4.878   7.574 -0.2162  0.2135 -1.0297
28223SOL    HW186823   7.467   4.835   7.538  0.5463  0.9752 -0.3445
28223SOL    HW286824   7.332   4.892   7.499  0.2594 -0.4578 -1.5287
28224SOL     OW86825   7.989   1.846   5.623  0.8540 -0.2343 -0.1442
28224SOL    HW186826   8.043   1.923   5.637 -1.4294  1.2920  0.7720
28224SOL    HW286827   7.936   1.867   5.546  1.0457 -1.4248 -0.6329
28225SOL     OW86828   6.546   9.624   9.538 -0.4530  0.2735  0.1250
28225SOL    HW186829   6.502   9.663   9.462 -0.0473 -0.9912 -0.7999
28225SOL    HW286830   6.636   9.655   9.532  0.0051 -1.1290 -0.9150
28226SOL     OW86831   4.674   3.390   5.186  0.0224 -0.2249 -0.2151
28226SOL    HW186832   4.704   3.458   5.125 -0.4846 -0.0410 -0.2674
28226SOL    HW286833   4.587   3.367   5.154 -0.8615  0.8749  1.2477
28227SOL     OW86834   6.546   8.577   8.002 -0.2832  0.9935 -0.1398
28227SOL    HW186835   6.468   8.631   7.991 -0.7889  0.5838  1.3319
28227SOL    HW286836   6.530   8.525   8.080  0.7326 -0.3864 -0.7968
28228SOL     OW86837   1.751   9.610   7.665  0.7344  0.3951 -0.2344
28228SOL    HW186838   1.679   9.655   7.710 -0.2598 -0.9974 -0.3560
28228SOL    HW286839   1.773   9.668   7.592  0.8686  1.6235  0.7465
28229SOL     OW86840   2.174   8.129   4.473 -0.3807 -0.7220 -0.0682
28229SOL    HW186841   2.156   8.048   4.424 -1.6855 -1.3384  1.3621
28229SOL    HW286842   2.239   8.104   4.538  0.1164 -0.3100 -0.4002
28230SOL     OW86843   3.318   7.104   3.320 -0.2378  0.2980  0.7153
28230SOL    HW186844   3.313   7.097   3.415 -2.1708 -1.3828  0.5487
28230SOL    HW286845   3.243   7.158   3.296 -0.6729 -0.5711  0.0667
28231SOL     OW86846   5.568   0.749   4.869 -0.0271 -0.2805 -0.0783
28231SOL    HW186847   5.494   0.694   4.896 -0.2249  1.0771  2.4607
28231SOL    HW286848   5.645   0.697   4.890 -0.2404 -0.4024  0.4271
28232SOL     OW86849   1.455   4.443   1.253  0.1589  0.0641 -0.0007
28232SOL    HW186850   1.546   4.446   1.284  0.5086 -1.4069 -0.7904
28232SOL    HW286851   1.452   4.507   1.181 -0.0124  1.6457  1.3401
28233SOL     OW86852   5.677   7.290   5.735  0.1390 -0.0214 -0.3448
28233SOL    HW186853   5.734   7.352   5.781 -0.2864 -0.2857  0.5662
28233SOL    HW286854   5.684   7.315   5.643  0.0011  1.3643 -0.0121
28234SOL     OW86855   5.897   7.563   1.804  0.6353  0.2192 -0.1334
28234SOL    HW186856   5.894   7.564   1.900 -0.0013  1.1491 -0.1492
28234SOL    HW286857   5.855   7.645   1.778  0.9780  0.0681 -1.2094
28235SOL     OW86858   1.573   7.324   4.166 -0.4937 -0.2092  0.1615
28235SOL    HW186859   1.606   7.244   4.125  0.2957 -0.6257  1.5178
28235SOL    HW286860   1.624   7.394   4.125  0.2203 -0.6022  0.3467
28236SOL     OW86861   2.711   1.268   2.798 -0.4623  0.0060 -0.6272
28236SOL    HW186862   2.731   1.238   2.887 -0.5270  0.7486 -0.3546
28236SOL    HW286863   2.675   1.191   2.754  0.4968 -0.6367 -0.3163
28237SOL     OW86864   3.824   5.619   9.201  0.1633 -0.3008 -0.1901
28237SOL    HW186865   3.864   5.704   9.188 -0.1637  0.0903  1.1812
28237SOL    HW286866   3.787   5.623   9.289 -1.3265 -1.2633 -0.7245
28238SOL     OW86867   4.612   3.085   4.922  0.4965  0.1714  0.0614
28238SOL    HW186868   4.579   3.069   4.833  0.2789 -1.9111  0.4844
28238SOL    HW286869   4.543   3.136   4.964 -0.0003  0.0147 -0.5473
28239SOL     OW86870   9.139   4.827   4.734  0.9886 -0.4699 -0.1140
28239SOL    HW186871   9.153   4.758   4.669 -1.0785 -0.3741 -0.7361
28239SOL    HW286872   9.181   4.904   4.697  0.3596 -0.5721 -1.0767
28240SOL     OW86873   2.073   2.338   0.824 -0.2162  0.0188 -0.0061
28240SOL    HW186874   2.112   2.254   0.848 -0.8347 -0.6461 -1.2548
28240SOL    HW286875   2.133   2.403   0.861  0.6580 -0.9595  0.3635
28241SOL     OW86876   9.548   8.145   8.240  0.0869 -0.0954  0.4204
28241SOL    HW186877   9.565   8.189   8.324  2.4773 -0.3936  0.1495
28241SOL    HW286878   9.617   8.176   8.182 -1.2119 -0.3133 -1.3254
28242SOL     OW86879   0.480   5.425   3.676 -0.4468 -0.0338  0.2175
28242SOL    HW186880   0.391   5.423   3.640 -0.6057  0.4013  0.5777
28242SOL    HW286881   0.517   5.507   3.646 -0.2846 -0.0568  0.3506
28243SOL     OW86882   7.849   4.479   1.509  0.1006 -0.3046 -0.3682
28243SOL    HW186883   7.890   4.416   1.449  0.9120 -0.7968  0.6539
28243SOL    HW286884   7.885   4.456   1.595  0.2880  1.4746  0.0597
28244SOL     OW86885   0.877   8.801   8.470  1.2142  0.1487 -0.4051
28244SOL    HW186886   0.802   8.747   8.446  0.5529  0.3377  1.0908
28244SOL    HW286887   0.840   8.888   8.485  1.5343  0.0286  1.2629
28245SOL     OW86888   8.475   2.346   2.370 -0.1965  0.1712  0.7877
28245SOL    HW186889   8.469   2.291   2.449 -2.2099  0.4826  0.9077
28245SOL    HW286890   8.384   2.357   2.342  0.1855  2.9724  0.4188
28246SOL     OW86891   9.497   6.774   4.021 -0.3620  0.7057 -0.1505
28246SOL    HW186892   9.523   6.704   3.962  0.1175 -0.0025  0.8821
28246SOL    HW286893   9.401   6.767   4.026 -0.2404 -0.6958  0.8934
28247SOL     OW86894   5.839   1.922   5.477 -0.0340  0.0276 -0.6728
28247SOL    HW186895   5.785   1.982   5.530 -0.8619 -1.0043 -0.3139
28247SOL    HW286896   5.926   1.929   5.515 -0.1882  0.7827 -0.4369
28248SOL     OW86897   0.104   9.168   7.376  0.3194  0.2839  0.2516
28248SOL    HW186898   0.040   9.212   7.433  0.3982  0.6338  0.0689
28248SOL    HW286899   0.104   9.077   7.407 -0.4014  0.2393  0.1324
28249SOL     OW86900   0.419   1.801   7.946 -0.1777 -0.6364 -0.1385
28249SOL    HW186901   0.335   1.842   7.968  0.5373  1.3286 -0.8420
28249SOL    HW286902   0.443   1.752   8.024 -1.5479 -0.4759  0.4055
28250SOL     OW86903   8.138   7.181   3.951 -0.1366 -0.9141 -0.0408
28250SOL    HW186904   8.061   7.150   3.999  0.0352  0.6981  1.3678
28250SOL    HW286905   8.171   7.254   4.003  0.6961  0.2639 -2.0907
28251SOL     OW86906   6.667   9.404   5.016  0.2375  0.0269  0.0589
28251SOL    HW186907   6.700   9.360   5.094  1.3027 -0.1506 -0.4763
28251SOL    HW286908   6.598   9.345   4.983 -0.5157  0.3058  1.0718
28252SOL     OW86909   0.422   9.527   7.349 -0.2461 -0.2218 -0.1697
28252SOL    HW186910   0.453   9.492   7.265  0.6034 -0.7156  0.3498
28252SOL    HW286911   0.415   9.621   7.333  0.3642 -0.2501 -0.6604
28253SOL     OW86912   1.518   0.311   2.819  0.2588  0.0336  0.0744
28253SOL    HW186913   1.587   0.245   2.807  1.1278  1.0775 -0.8710
28253SOL    HW286914   1.479   0.322   2.733  0.1185  0.7452  0.2214
28254SOL     OW86915   9.334   7.714   8.042 -0.1814 -0.3942  0.1492
28254SOL    HW186916   9.280   7.704   7.963  0.4099 -0.5514 -0.2455
28254SOL    HW286917   9.386   7.792   8.025 -0.6099  0.0214  0.7254
28255SOL     OW86918   1.128   6.282   4.178 -0.4882  0.5881  0.2667
28255SOL    HW186919   1.051   6.328   4.212 -0.3377  0.5792  0.6176
28255SOL    HW286920   1.167   6.344   4.116 -0.9221  0.4930 -0.1087
28256SOL     OW86921   7.804   4.758   4.121 -0.0032 -0.0649 -0.1264
28256SOL    HW186922   7.727   4.796   4.164  0.0666  0.6681 -0.6271
28256SOL    HW286923   7.877   4.785   4.176  0.1215  1.1520 -0.8485
28257SOL     OW86924   8.960   3.186   8.981 -0.3183 -0.0242  0.1475
28257SOL    HW186925   8.927   3.275   8.972 -0.6165 -0.0724  0.7566
28257SOL    HW286926   8.892   3.131   8.943  0.4358  0.0785 -1.4458
28258SOL     OW86927   6.877   1.509   3.101  0.2533 -0.3906  0.3953
28258SOL    HW186928   6.813   1.459   3.050 -0.2273 -0.8514  1.4141
28258SOL    HW286929   6.879   1.464   3.186 -0.0693  1.2180  1.2832
28259SOL     OW86930   1.950   4.143   7.492 -0.1805  0.3336  0.0866
28259SOL    HW186931   1.899   4.161   7.571  0.4787 -0.0644  0.6112
28259SOL    HW286932   1.912   4.064   7.456 -1.4912  1.3530 -0.8699
28260SOL     OW86933   8.280   6.215   9.009  0.3551  0.3613 -0.0828
28260SOL    HW186934   8.335   6.173   8.943  0.1306  1.0474 -0.7123
28260SOL    HW286935   8.340   6.230   9.083  0.6873 -0.1083 -0.2483
28261SOL     OW86936   6.193   8.289   1.754 -0.2880 -0.4222  0.1696
28261SOL    HW186937   6.161   8.271   1.843  0.2680 -1.9128  0.0945
28261SOL    HW286938   6.255   8.361   1.765  0.4033 -1.1316  1.1322
28262SOL     OW86939   0.254   6.640   0.673 -0.5313 -0.1935  0.1326
28262SOL    HW186940   0.294   6.669   0.755  0.9511 -2.5151  0.3300
28262SOL    HW286941   0.283   6.703   0.608  1.0805 -0.1959  0.8206
28263SOL     OW86942   3.988   1.565   3.095  0.2720  0.1537  0.0987
28263SOL    HW186943   3.972   1.630   3.027 -0.3661 -0.0067  0.0828
28263SOL    HW286944   4.073   1.527   3.073  0.6470  0.9740  0.1075
28264SOL     OW86945   2.785   7.939   2.310  0.0518  0.1052 -0.8183
28264SOL    HW186946   2.801   7.967   2.220  1.4566  0.9974 -0.3247
28264SOL    HW286947   2.789   7.844   2.307 -0.8437  0.0877 -1.8516
28265SOL     OW86948   0.180   0.396   3.243  0.1702 -0.2165 -0.2309
28265SOL    HW186949   0.238   0.342   3.297  1.0109  1.0912  0.2025
28265SOL    HW286950   0.100   0.403   3.294  0.4578 -0.1428  0.2141
28266SOL     OW86951   8.889   1.522   9.444  0.0202 -0.2097 -0.4984
28266SOL    HW186952   8.834   1.487   9.513 -1.8858 -1.0015 -2.3226
28266SOL    HW286953   8.829   1.542   9.372  1.8762  0.7267 -1.8964
28267SOL     OW86954   5.937   1.707   0.313 -0.3396  0.2890  0.6641
28267SOL    HW186955   5.859   1.738   0.358 -0.3794  2.5921 -0.8383
28267SOL    HW286956   5.916   1.714   0.220  1.3344  0.1025  0.2336
28268SOL     OW86957   0.980   2.135   3.472 -0.0210 -0.6397  0.2801
28268SOL    HW186958   1.032   2.198   3.422 -0.7628  1.5143  2.0706
28268SOL    HW286959   0.891   2.145   3.438 -0.1710 -0.5995  0.6857
28269SOL     OW86960   1.663   9.216   4.005  0.1175 -0.6645 -0.0845
28269SOL    HW186961   1.728   9.283   4.027  2.1232 -2.6073  0.1812
28269SOL    HW286962   1.637   9.238   3.915  1.7702 -0.2626 -0.5123
28270SOL     OW86963   9.269   4.653   1.034  0.5590 -0.0253  0.2216
28270SOL    HW186964   9.355   4.623   1.004  0.0122 -1.3307 -0.1250
28270SOL    HW286965   9.234   4.704   0.961  0.7061 -0.1866  0.0377
28271SOL     OW86966   4.117   1.837   1.270  0.1807  1.1671  0.4456
28271SOL    HW186967   4.090   1.919   1.311 -2.1672  0.9906 -0.6212
28271SOL    HW286968   4.074   1.769   1.323 -0.2263  0.7875 -0.3618
28272SOL     OW86969   6.348   9.411   5.902  0.4674 -0.0461 -0.2319
28272SOL    HW186970   6.262   9.417   5.861  0.1379 -0.7408  0.3325
28272SOL    HW286971   6.379   9.501   5.906 -0.9250  0.4196  0.9930
28273SOL     OW86972   3.988   8.109   2.064  0.0056  0.2927 -0.4225
28273SOL    HW186973   3.904   8.097   2.020 -0.2033  4.2097 -1.4670
28273SOL    HW286974   3.965   8.142   2.150  0.4664  0.8699 -0.5195
28274SOL     OW86975   2.478   8.528   5.296  0.4508 -0.3027 -0.1300
28274SOL    HW186976   2.424   8.525   5.217  1.2958 -2.8522 -0.7144
28274SOL    HW286977   2.424   8.485   5.363  1.0899 -1.4210 -0.3075
28275SOL     OW86978   5.383   9.058   9.071  0.2522 -0.1838 -0.1494
28275SOL    HW186979   5.367   9.059   8.977 -0.2145  1.6054 -0.0754
28275SOL    HW286980   5.475   9.079   9.080  0.2218 -0.0408 -0.1845
28276SOL     OW86981   1.583   1.155   0.455 -0.0669  0.1987 -0.6112
28276SOL    HW186982   1.671   1.165   0.492 -0.5213  0.9519  0.3002
28276SOL    HW286983   1.588   1.198   0.369  0.1692  1.2635 -0.0869
28277SOL     OW86984   3.827   7.910   8.050  0.2797 -0.5149 -0.5570
28277SOL    HW186985   3.912   7.897   8.092 -0.6387  0.5471  1.8093
28277SOL    HW286986   3.808   8.003   8.061 -0.1707 -0.2228 -3.1975
28278SOL     OW86987   1.455   1.708   2.282 -0.1375  0.1160  0.2024
28278SOL    HW186988   1.446   1.668   2.369  0.0144 -0.4616 -0.0392
28278SOL    HW286989   1.370   1.747   2.264 -0.7848 -1.3524 -0.1496
28279SOL     OW86990   8.764   2.644   4.634  0.2075  0.0764  0.3423
28279SOL    HW186991   8.842   2.675   4.586 -0.4214  1.2468  0.0224
28279SOL    HW286992   8.695   2.706   4.609 -0.4825 -0.0972  1.7237
28280SOL     OW86993   3.947   6.461   9.289  0.1860 -0.4461 -0.0422
28280SOL    HW186994   3.968   6.499   9.204  1.8269  0.0355  0.5376
28280SOL    HW286995   3.878   6.398   9.271 -1.8922  1.9763 -1.2193
28281SOL     OW86996   0.089   6.899   3.857 -0.2834  0.2069 -0.2271
28281SOL    HW186997   0.035   6.873   3.931 -2.5141  1.6180 -1.2452
28281SOL    HW286998   0.059   6.843   3.785 -0.5995  1.1834 -0.8705
28282SOL     OW86999   2.521   2.960   6.740  0.3996 -0.5683 -0.0528
28282SOL    HW187000   2.485   2.978   6.827  2.5516 -1.4753  1.0959
28282SOL    HW287001   2.599   3.014   6.734  0.9212 -1.3784 -0.9316
28283SOL     OW87002   2.273   0.793   7.279  0.5733 -0.4016 -0.5963
28283SOL    HW187003   2.330   0.866   7.303  0.3058 -0.8347  1.5301
28283SOL    HW287004   2.279   0.733   7.353 -0.3625 -1.8486 -1.6481
28284SOL     OW87005   0.020   0.677   6.330  0.1440 -0.4753  0.2341
28284SOL    HW187006   0.079   0.604   6.348  0.5995 -0.1207  0.1888
28284SOL    HW287007  -0.051   0.638   6.278  1.7276 -0.4163 -2.1731
28285SOL     OW87008   6.676   0.387   2.383  0.1471 -0.3880  0.4568
28285SOL    HW187009   6.767   0.401   2.408  0.2873 -1.3036  0.5007
28285SOL    HW287010   6.680   0.334   2.304 -0.3465 -0.0290  0.1820
28286SOL     OW87011   5.104   3.489   8.193 -0.5893 -0.4573 -0.2547
28286SOL    HW187012   5.105   3.576   8.232 -0.3269 -0.8243  0.5908
28286SOL    HW287013   5.185   3.485   8.141 -1.7156  0.5981 -2.1813
28287SOL     OW87014   6.772   5.093   1.717  0.2690 -0.1001 -0.2778
28287SOL    HW187015   6.754   5.039   1.795 -0.9498  0.0410 -0.4410
28287SOL    HW287016   6.803   5.176   1.753 -0.9782  0.2230  0.1116
28288SOL     OW87017   5.235   8.824   1.568 -0.2681  0.8448 -0.2557
28288SOL    HW187018   5.163   8.860   1.619 -0.2260  0.6132 -0.0270
28288SOL    HW287019   5.255   8.891   1.502 -1.4053  0.4705 -1.0172
28289SOL     OW87020   7.613   4.559   6.720 -0.8084  0.4481 -1.1150
28289SOL    HW187021   7.598   4.608   6.801  0.2775 -1.4642  0.3189
28289SOL    HW287022   7.579   4.472   6.737  2.9127 -1.2130 -1.1505
28290SOL     OW87023   2.777   8.893   5.915 -0.1355 -0.0483  0.2514
28290SOL    HW187024   2.710   8.898   5.847 -1.3846 -0.4840  1.4268
28290SOL    HW287025   2.837   8.825   5.884 -1.0793 -0.7501 -0.0843
28291SOL     OW87026   2.216   0.847   4.989  0.1786  0.3955  0.2740
28291SOL    HW187027   2.242   0.913   4.925  1.4723 -0.2551  0.1055
28291SOL    HW287028   2.205   0.895   5.071 -3.1715  1.5504 -0.7093
28292SOL     OW87029   7.140   4.497   7.675 -0.1743  0.3811  0.2227
28292SOL    HW187030   7.173   4.468   7.589 -1.0489  0.5951 -0.1962
28292SOL    HW287031   7.103   4.418   7.714 -0.1424  0.3723  0.2356
28293SOL     OW87032   2.417   7.430   2.636  0.2399  0.5779 -0.0887
28293SOL    HW187033   2.402   7.374   2.560 -0.8739  2.0207 -0.9937
28293SOL    HW287034   2.510   7.453   2.630 -0.0949  1.7050 -1.8205
28294SOL     OW87035   4.552   5.001   6.079 -0.0480  0.4679 -0.1740
28294SOL    HW187036   4.624   4.983   6.139 -0.5334 -0.3060  0.1806
28294SOL    HW287037   4.505   4.919   6.072 -1.0589  1.0365 -0.1931
28295SOL     OW87038   2.078   8.610   4.343  0.1072  0.1362  0.3538
28295SOL    HW187039   2.108   8.622   4.433  1.0310  0.4831  0.0177
28295SOL    HW287040   2.150   8.563   4.300  0.0495  0.7136 -0.4069
28296SOL     OW87041   2.645   4.127   0.745 -0.5377 -0.4566 -0.2384
28296SOL    HW187042   2.656   4.034   0.723 -0.0841 -0.6225  0.6655
28296SOL    HW287043   2.552   4.144   0.728 -0.4874 -0.9071 -1.0175
28297SOL     OW87044   0.374   6.405   3.329 -0.1387  0.5531 -0.2740
28297SOL    HW187045   0.325   6.351   3.267 -0.1422 -1.4128  1.3160
28297SOL    HW287046   0.441   6.345   3.364  1.4565  2.3005 -0.1718
28298SOL     OW87047   9.220   0.960   9.603 -0.2427 -0.8049 -0.8435
28298SOL    HW187048   9.263   0.888   9.649 -0.9350 -0.5255  0.2677
28298SOL    HW287049   9.252   1.039   9.646 -2.1239 -0.6063  0.2706
28299SOL     OW87050   8.450   8.260   5.654 -0.0982  0.5912 -0.5097
28299SOL    HW187051   8.486   8.335   5.607  0.4495  0.5332 -0.1813
28299SOL    HW287052   8.509   8.187   5.634  1.4126  1.0210  1.9351
28300SOL     OW87053   7.622   7.998   5.995 -0.6114  0.2284  0.3103
28300SOL    HW187054   7.583   7.912   5.980  1.0856 -0.3866 -0.9650
28300SOL    HW287055   7.653   7.994   6.086 -1.1253 -0.2545  0.4709
28301SOL     OW87056   3.422   3.768   3.774  0.2746 -0.0646 -0.4417
28301SOL    HW187057   3.389   3.856   3.791 -0.1083 -0.4069  0.6160
28301SOL    HW287058   3.468   3.776   3.690  1.7355  1.5410  0.4524
28302SOL     OW87059   0.325   0.221   3.398 -0.8970  0.4221 -0.1338
28302SOL    HW187060   0.414   0.186   3.391 -1.3695 -0.9718  0.3751
28302SOL    HW287061   0.325   0.271   3.480 -1.5742 -2.9581  2.1278
28303SOL     OW87062   4.698   8.733   6.537 -0.5965 -0.5275  0.1986
28303SOL    HW187063   4.628   8.793   6.509  2.7914  2.5779 -2.6115
28303SOL    HW287064   4.729   8.770   6.619 -0.1707  0.0978 -0.2336
28304SOL     OW87065   3.877   7.953   2.397  0.4525  0.1659 -0.5542
28304SOL    HW187066   3.804   7.972   2.338 -0.5031 -1.0199  0.2133
28304SOL    HW287067   3.846   7.981   2.483  1.6454  1.4063 -0.4767
28305SOL     OW87068   7.006   4.922   4.189 -0.1121  0.3926 -0.6951
28305SOL    HW187069   7.008   4.931   4.093  1.5392  0.9730 -0.6343
28305SOL    HW287070   6.926   4.872   4.206  0.0411 -0.5595 -2.4575
28306SOL     OW87071   0.851   1.194   0.327  0.2698  0.6324  0.2490
28306SOL    HW187072   0.884   1.163   0.242  1.1200 -0.5537  0.9780
28306SOL    HW287073   0.815   1.280   0.308 -0.7784 -0.1463 -1.5837
28307SOL     OW87074   3.844   8.663   6.835  0.1544  0.4346 -0.5752
28307SOL    HW187075   3.764   8.692   6.791 -0.4254 -2.5811 -1.7512
28307SOL    HW287076   3.913   8.676   6.771 -0.0813 -0.5889 -1.0495
28308SOL     OW87077   9.507   3.188   4.691 -0.2758 -0.2327 -0.2834
28308SOL    HW187078   9.488   3.119   4.628 -0.0598 -1.1757  0.6524
28308SOL    HW287079   9.427   3.240   4.695 -0.6445 -0.7726 -0.5790
28309SOL     OW87080   0.902   0.222   3.221  0.2547 -0.7400  0.1505
28309SOL    HW187081   0.951   0.242   3.141  0.8384  0.8913  0.8757
28309SOL    HW287082   0.969   0.218   3.289 -0.4711  0.0186  0.9089
28310SOL     OW87083   3.852   5.341   9.141  0.3824  0.1912 -0.2880
28310SOL    HW187084   3.812   5.421   9.173 -0.7329 -0.6572  0.5026
28310SOL    HW287085   3.939   5.368   9.111  0.6478  1.4208  1.4517
28311SOL     OW87086   9.039   1.631   3.576  0.0948  0.5401  0.6123
28311SOL    HW187087   9.102   1.631   3.647 -0.5592  1.2075  1.2127
28311SOL    HW287088   9.090   1.611   3.497  1.2270  2.0369  0.9370
28312SOL     OW87089   1.131   9.045   7.091 -0.1212  0.0773  0.7750
28312SOL    HW187090   1.074   9.029   7.166 -0.4919 -0.4694  0.3834
28312SOL    HW287091   1.076   9.093   7.029 -1.5089 -3.8072 -1.2831
28313SOL     OW87092   6.885   0.991   7.024  0.3566 -0.6458 -0.5382
28313SOL    HW187093   6.909   1.069   7.074 -1.0022 -0.9604  0.6717
28313SOL    HW287094   6.796   0.972   7.051  0.7819 -2.8578 -0.5286
28314SOL     OW87095   6.328   4.975   9.029 -0.3977  0.1285 -0.2646
28314SOL    HW187096   6.355   4.896   9.074 -1.9719 -0.9986 -1.2020
28314SOL    HW287097   6.397   5.039   9.048  0.8248 -1.4082  0.6282
28315SOL     OW87098   9.202   8.575   7.178  0.4081 -0.2817 -0.3217
28315SOL    HW187099   9.159   8.498   7.141  1.0193 -0.5196 -0.5397
28315SOL    HW287100   9.238   8.544   7.261  1.6954 -0.5590 -0.9641
28316SOL     OW87101   4.820   9.450   1.248 -0.1437 -0.1170 -0.2322
28316SOL    HW187102   4.794   9.382   1.186 -1.7638  0.7589 -0.5581
28316SOL    HW287103   4.885   9.407   1.304 -0.6406 -1.7366 -0.8253
28317SOL     OW87104   2.675   9.597   5.862 -0.5811  0.2701 -0.1579
28317SOL    HW187105   2.689   9.610   5.956 -0.1219 -2.2750  0.1914
28317SOL    HW287106   2.582   9.578   5.854 -0.7114  0.9281 -0.3106
28318SOL     OW87107   0.906   6.872   3.387 -0.8854  0.3535  0.4513
28318SOL    HW187108   0.897   6.908   3.298  0.5141  1.6969  0.8111
28318SOL    HW287109   0.951   6.941   3.436  1.7928 -1.8005  1.2539
28319SOL     OW87110   7.927   2.986   0.734  0.6068  0.0782  0.2174
28319SOL    HW187111   7.841   2.995   0.694  0.4364 -0.5256  0.4406
28319SOL    HW287112   7.957   2.899   0.707  0.6928 -0.1410  0.9918
28320SOL     OW87113   5.987   1.639   3.293 -0.1234 -0.1103 -0.6036
28320SOL    HW187114   5.906   1.686   3.274  0.2625  1.9802  2.2328
28320SOL    HW287115   5.968   1.590   3.372  1.3273  0.4314  0.1173
28321SOL     OW87116   5.103   1.965   8.403 -0.5403  0.0458  0.1564
28321SOL    HW187117   5.095   2.060   8.399 -0.3153  0.1289  1.4341
28321SOL    HW287118   5.041   1.938   8.471  1.3334 -0.4252  1.7786
28322SOL     OW87119   8.943   6.686   2.292  0.2472  0.2700 -0.7319
28322SOL    HW187120   9.033   6.697   2.261  0.2175  1.5700 -0.3883
28322SOL    HW287121   8.934   6.748   2.364 -0.6310 -0.5512 -0.1136
28323SOL     OW87122   6.905   2.361   7.772 -0.5404 -0.2209 -0.1970
28323SOL    HW187123   6.845   2.353   7.846 -1.2290 -1.7693 -0.8666
28323SOL    HW287124   6.861   2.420   7.712  0.1448  1.2601  0.7012
28324SOL     OW87125   1.967   3.492   4.871 -0.2767 -0.3833 -0.6049
28324SOL    HW187126   1.875   3.509   4.851 -0.1127  1.6547  0.1269
28324SOL    HW287127   1.975   3.397   4.871 -3.2093 -0.8303  2.6016
28325SOL     OW87128   3.601   1.708   1.935  0.1670  0.1133 -0.2427
28325SOL    HW187129   3.508   1.709   1.957 -0.0467 -0.9335 -0.9927
28325SOL    HW287130   3.635   1.631   1.981  0.5041  0.0845 -0.5327
28326SOL     OW87131   5.967   8.568   5.914  0.5556  0.0509 -0.4485
28326SOL    HW187132   5.902   8.599   5.851  0.6980  0.1129 -0.5671
28326SOL    HW287133   5.935   8.482   5.942  1.1585 -0.5831 -1.6184
28327SOL     OW87134   5.197   5.513   6.525  0.5723 -0.1632 -0.3675
28327SOL    HW187135   5.137   5.567   6.474  1.7594  2.0818  0.4451
28327SOL    HW287136   5.276   5.508   6.471  0.4392 -1.1865 -0.4719
28328SOL     OW87137   2.552   2.847   0.581 -0.0320 -0.2272 -0.0649
28328SOL    HW187138   2.498   2.783   0.627  1.2565 -0.9993  0.4204
28328SOL    HW287139   2.593   2.898   0.651  0.6232 -0.3023 -0.3855
28329SOL     OW87140   4.539   8.668   6.924  0.1147  0.6171  0.1877
28329SOL    HW187141   4.504   8.579   6.923  1.5079 -0.0205 -2.6490
28329SOL    HW287142   4.481   8.716   6.983 -0.9129 -2.0441  1.4991
28330SOL     OW87143   4.286   2.415   2.572 -0.2278 -0.1011  0.3585
28330SOL    HW187144   4.342   2.346   2.538 -1.4033 -0.4221 -1.0186
28330SOL    HW287145   4.326   2.496   2.541 -0.1277 -0.2899 -0.0072
28331SOL     OW87146   0.562   9.347   4.061  0.1685  0.7461 -0.3479
28331SOL    HW187147   0.582   9.271   4.008  0.8198  1.2436 -0.8317
28331SOL    HW287148   0.471   9.368   4.040 -0.5020 -0.7346  0.8743
28332SOL     OW87149   8.884   0.502   1.927  0.2865 -0.6405  0.0125
28332SOL    HW187150   8.917   0.582   1.968 -1.5052 -0.1973  0.6899
28332SOL    HW287151   8.936   0.432   1.967  0.7175  0.0490  0.7013
28333SOL     OW87152   3.488   6.608   4.018  0.4420 -0.3265  0.3804
28333SOL    HW187153   3.498   6.525   4.064 -1.2693 -1.9767 -1.9662
28333SOL    HW287154   3.554   6.606   3.949 -1.1194 -0.9086 -1.1632
28334SOL     OW87155   0.866   3.862   9.377 -0.1951 -0.0684  0.6949
28334SOL    HW187156   0.773   3.840   9.373 -0.6122  1.4094  1.3348
28334SOL    HW287157   0.891   3.840   9.467  0.3108 -1.2272  0.2923
28335SOL     OW87158   9.016   5.992   8.656 -0.0875 -0.1785  0.0468
28335SOL    HW187159   8.973   6.036   8.729 -0.7644 -0.6425 -0.0613
28335SOL    HW287160   9.098   5.958   8.694  0.3644  0.9975  0.1687
28336SOL     OW87161   1.275   0.514   4.314 -0.4647 -0.1886  0.4445
28336SOL    HW187162   1.300   0.435   4.265 -1.3917 -0.6586  0.7073
28336SOL    HW287163   1.275   0.486   4.405  0.9447  0.6020  0.7167
28337SOL     OW87164   3.538   0.269   5.610 -0.2437 -0.4591  0.6091
28337SOL    HW187165   3.631   0.248   5.610  0.1582  1.1878 -0.1612
28337SOL    HW287166   3.495   0.187   5.586  1.1592 -0.7433 -1.0963
28338SOL     OW87167   4.851   4.559   4.813  0.0239  0.1863 -0.3380
28338SOL    HW187168   4.819   4.503   4.883 -0.7780  0.3481 -0.5711
28338SOL    HW287169   4.848   4.647   4.850  1.2750  0.0941  0.0254
28339SOL     OW87170   0.773   1.476   5.678 -0.0126 -0.7418  0.2435
28339SOL    HW187171   0.865   1.452   5.666 -0.0510 -0.4456 -0.6905
28339SOL    HW287172   0.776   1.549   5.741  0.4681 -0.1491 -0.4519
28340SOL     OW87173   8.807   7.250   1.373 -0.1708  0.1892 -0.4125
28340SOL    HW187174   8.724   7.205   1.357 -0.9134  1.5266 -0.5278
28340SOL    HW287175   8.781   7.331   1.418  1.1405  0.3148  0.1560
28341SOL     OW87176   7.521   2.471   8.929 -0.5941  0.1630  0.0149
28341SOL    HW187177   7.520   2.394   8.985 -1.3215  1.1549  1.4038
28341SOL    HW287178   7.472   2.445   8.851 -0.9068 -0.7351  0.4999
28342SOL     OW87179   3.592   0.690   3.796 -0.1906 -0.4467 -0.1173
28342SOL    HW187180   3.684   0.709   3.782 -0.4276  1.8368  0.9643
28342SOL    HW287181   3.550   0.714   3.713 -0.0752  0.9851  0.2011
28343SOL     OW87182   7.297   9.453   7.743 -1.0081 -0.4177 -0.1632
28343SOL    HW187183   7.261   9.438   7.655 -3.4586  0.5317  0.6014
28343SOL    HW287184   7.231   9.505   7.788  0.6982  0.1241  1.9127
28344SOL     OW87185   1.148   4.652   6.802  0.8050  0.2880 -0.6384
28344SOL    HW187186   1.199   4.721   6.759  0.5499 -0.0867 -1.5806
28344SOL    HW287187   1.070   4.697   6.834  1.9381  0.9799  1.3275
28345SOL     OW87188   0.626   7.191   5.508  0.1177  0.0148  0.1900
28345SOL    HW187189   0.600   7.141   5.586 -1.0775 -1.6532 -1.2138
28345SOL    HW287190   0.549   7.190   5.452  1.4572 -0.2426 -1.7445
28346SOL     OW87191   0.490   2.331   5.997  0.0992  0.6060  0.0635
28346SOL    HW187192   0.528   2.244   5.984 -0.4295  0.3306  0.3319
28346SOL    HW287193   0.515   2.380   5.918 -0.6402 -0.1642 -0.6654
28347SOL     OW87194   5.412   1.724   9.592  0.6829 -0.0761 -0.0812
28347SOL    HW187195   5.368   1.800   9.630  0.0015  0.0275 -1.0480
28347SOL    HW287196   5.355   1.696   9.520 -0.8453 -3.5018  2.1773
28348SOL     OW87197   8.509   8.332   0.462 -0.2364  0.1621  0.1422
28348SOL    HW187198   8.534   8.378   0.382  0.8181 -1.0729 -0.2788
28348SOL    HW287199   8.570   8.258   0.467 -1.8278 -1.1785  0.7985
28349SOL     OW87200   1.530   9.286   4.958  0.2402 -0.2074 -0.2860
28349SOL    HW187201   1.537   9.323   5.045 -0.4676  0.9687 -0.7059
28349SOL    HW287202   1.554   9.194   4.969  0.3592 -0.0323  1.0958
28350SOL     OW87203   6.065   1.652   8.548 -0.1741 -0.3634  0.2856
28350SOL    HW187204   6.013   1.629   8.625 -1.2576  1.6158  0.1988
28350SOL    HW287205   6.102   1.569   8.519 -0.3930 -1.2903  2.4517
28351SOL     OW87206   7.368   1.257   3.043  0.1442  0.5013 -0.1935
28351SOL    HW187207   7.352   1.351   3.034 -0.5871  0.2407 -2.3991
28351SOL    HW287208   7.309   1.217   2.978 -2.6013 -1.8208  3.3197
28352SOL     OW87209   5.656   6.364   6.347 -0.4963  0.3408  0.5075
28352SOL    HW187210   5.648   6.438   6.406 -1.4628  0.6890 -0.0426
28352SOL    HW287211   5.638   6.400   6.260 -1.2222 -0.5712  0.2592
28353SOL     OW87212   7.636   4.064   0.223 -0.0008  0.1384  0.2448
28353SOL    HW187213   7.707   4.116   0.185  0.4011 -0.7688 -0.2869
28353SOL    HW287214   7.595   4.021   0.148  0.3847 -1.1566  0.7411
28354SOL     OW87215   1.807   8.423   2.781  0.0663  0.1750  0.5626
28354SOL    HW187216   1.884   8.367   2.784 -0.5118 -0.6804 -0.0422
28354SOL    HW287217   1.734   8.366   2.808 -0.5614  0.5730 -0.2512
28355SOL     OW87218   9.133   5.364   7.465  0.5477  0.3192  0.4354
28355SOL    HW187219   9.124   5.297   7.397 -0.2470 -0.7704  1.5672
28355SOL    HW287220   9.049   5.363   7.511  1.0143  1.1159  1.3417
28356SOL     OW87221   3.524   9.301   1.176  0.2428 -0.6948  0.2129
28356SOL    HW187222   3.587   9.231   1.162 -0.6068 -1.4199 -0.0396
28356SOL    HW287223   3.514   9.342   1.090 -0.9214 -1.6889 -0.1340
28357SOL     OW87224   6.641   4.842   1.363 -0.0193 -0.1009  0.5738
28357SOL    HW187225   6.676   4.769   1.312 -1.4379 -0.0836 -0.4878
28357SOL    HW287226   6.718   4.885   1.400  1.1229  0.2746 -2.0639
28358SOL     OW87227   6.167   8.331   3.414 -0.5200 -0.1391 -0.2154
28358SOL    HW187228   6.235   8.342   3.346 -0.0383 -0.2152  0.2468
28358SOL    HW287229   6.086   8.323   3.365 -0.2938  0.7445 -0.7466
28359SOL     OW87230   5.711   2.142   3.889 -0.4646 -0.1572 -0.0015
28359SOL    HW187231   5.625   2.143   3.931 -0.4780 -1.3737  0.0460
28359SOL    HW287232   5.769   2.187   3.951 -0.7742 -0.6408  0.6467
28360SOL     OW87233   2.549   7.291   1.820  0.4956  0.1496  0.6214
28360SOL    HW187234   2.644   7.298   1.809  0.5615  1.5934  1.8271
28360SOL    HW287235   2.512   7.342   1.749  0.4711 -2.7537 -1.6294
28361SOL     OW87236   8.247   0.420   1.073  0.6020 -0.3918 -0.2044
28361SOL    HW187237   8.183   0.489   1.054  2.3802  0.8846 -1.9605
28361SOL    HW287238   8.211   0.341   1.032  0.4643  0.4723 -1.8358
28362SOL     OW87239   9.024   7.399   8.060 -0.2139  0.5275 -0.2961
28362SOL    HW187240   9.059   7.388   7.971  0.7058 -0.4924  0.1774
28362SOL    HW287241   8.934   7.369   8.054  0.4633 -1.6802 -0.4363
28363SOL     OW87242   9.158   9.292   4.635 -0.0279  0.3758  0.0772
28363SOL    HW187243   9.197   9.355   4.575  0.0627 -0.6230 -0.9564
28363SOL    HW287244   9.081   9.260   4.589  1.2586 -2.0639 -0.5671
28364SOL     OW87245   7.251   4.048   8.957 -0.2453  0.4986  0.2111
28364SOL    HW187246   7.305   3.972   8.979 -1.2221  0.3540  2.3088
28364SOL    HW287247   7.278   4.115   9.021  1.4908  2.4446 -2.3387
28365SOL     OW87248   7.308   3.800   4.450  0.1113  0.3320 -0.2830
28365SOL    HW187249   7.267   3.886   4.458 -0.8619 -0.2106  0.8360
28365SOL    HW287250   7.238   3.737   4.470  1.0267 -0.6801 -0.1390
28366SOL     OW87251   1.953   4.694   5.651 -0.6552  0.0584  0.0502
28366SOL    HW187252   1.956   4.738   5.736 -0.9461  0.3464 -0.0888
28366SOL    HW287253   1.942   4.601   5.672 -1.3332  0.1926  0.3167
28367SOL     OW87254   6.987   0.418   5.640  0.4252 -0.6658 -0.2667
28367SOL    HW187255   6.900   0.420   5.601  0.7743  1.4258 -1.0536
28367SOL    HW287256   7.011   0.510   5.649  2.7051 -1.1988 -0.3873
28368SOL     OW87257   7.601   3.911   4.352  0.3660 -0.0685 -0.2802
28368SOL    HW187258   7.547   3.832   4.350  0.9330 -0.4581 -1.8307
28368SOL    HW287259   7.587   3.952   4.267 -1.0227  2.3165  0.9794
28369SOL     OW87260   0.101   5.024   7.972 -0.0547 -0.6252 -0.8311
28369SOL    HW187261   0.014   5.058   7.992 -0.2478 -1.4902 -0.1174
28369SOL    HW287262   0.154   5.044   8.049  0.0676 -1.1238 -0.7825
28370SOL     OW87263   2.934   4.491   6.227  0.4482  0.0687 -0.3763
28370SOL    HW187264   3.026   4.470   6.245  0.2953  0.6256  1.1551
28370SOL    HW287265   2.934   4.583   6.202  0.1051  0.6329  1.5756
28371SOL     OW87266   6.575   8.847   5.423 -0.0521 -0.0390 -0.4314
28371SOL    HW187267   6.553   8.754   5.419 -0.8433  0.1652 -0.9789
28371SOL    HW287268   6.493   8.892   5.401 -0.1607  0.8368  1.5619
28372SOL     OW87269   1.314   4.517   3.042 -0.3884  0.4452  0.0056
28372SOL    HW187270   1.282   4.582   2.980 -0.1137 -0.2070 -0.8478
28372SOL    HW287271   1.253   4.444   3.034 -0.1877  0.2420  0.2981
28373SOL     OW87272   4.377   5.095   4.652 -0.1528  0.0289  0.2532
28373SOL    HW187273   4.320   5.144   4.712 -0.1248 -1.0177  1.1464
28373SOL    HW287274   4.352   5.127   4.565  0.5870  2.4086  0.8210
28374SOL     OW87275   0.872   6.207   7.810  0.0016 -0.2092 -0.0464
28374SOL    HW187276   0.836   6.126   7.846 -0.9997 -0.2603 -1.0886
28374SOL    HW287277   0.960   6.184   7.782  0.2534 -0.5424  0.9933
28375SOL     OW87278   2.436   9.321   1.431 -0.4550  0.1385  0.6023
28375SOL    HW187279   2.440   9.382   1.357  0.4172 -1.5327 -0.8178
28375SOL    HW287280   2.492   9.248   1.404  0.7115 -0.0966  3.3598
28376SOL     OW87281   0.095   6.160   2.034 -0.4980 -0.3172 -0.1988
28376SOL    HW187282   0.001   6.180   2.042 -0.0665  1.9012 -0.0306
28376SOL    HW287283   0.136   6.212   2.102  0.7945 -2.1852  0.5055
28377SOL     OW87284   4.572   7.585   6.235  0.1562  0.3116 -0.2259
28377SOL    HW187285   4.492   7.582   6.287 -0.4079 -1.3337 -1.0876
28377SOL    HW287286   4.541   7.600   6.145  0.5687 -2.1843 -0.8620
28378SOL     OW87287   9.409   9.604   8.503  0.0200  0.5659 -0.6194
28378SOL    HW187288   9.366   9.690   8.511 -0.3029  0.6285 -2.5078
28378SOL    HW287289   9.397   9.564   8.589  0.0279  2.3387  0.2634
28379SOL     OW87290   3.922   5.694   4.786 -0.0873 -0.2072 -0.1733
28379SOL    HW187291   3.973   5.692   4.867  0.1452 -1.4016 -0.3425
28379SOL    HW287292   3.975   5.645   4.723  0.3088  1.6773 -1.4157
28380SOL     OW87293   2.609   2.545   2.860 -0.4512  0.2429  0.0125
28380SOL    HW187294   2.670   2.550   2.933 -0.4373  1.7191 -0.0815
28380SOL    HW287295   2.628   2.460   2.819 -0.5556 -0.6777  1.7765
28381SOL     OW87296   8.140   6.674   2.830 -0.2544 -0.3603  0.3103
28381SOL    HW187297   8.050   6.698   2.806 -0.6139 -0.1636  1.7248
28381SOL    HW287298   8.183   6.653   2.747 -1.2396  0.7695 -0.5208
28382SOL     OW87299   1.047   9.022   0.607  0.2052  0.4553  0.1141
28382SOL    HW187300   1.056   9.098   0.666 -0.2248  1.6675 -1.3056
28382SOL    HW287301   1.070   9.057   0.521 -1.3333 -0.6763 -0.8039
28383SOL     OW87302   1.964   9.021   5.638  0.3950  0.4727 -0.3443
28383SOL    HW187303   1.964   9.117   5.635  0.4623  0.4464 -1.7243
28383SOL    HW287304   2.021   8.995   5.565  0.3888 -0.6178  0.0324
28384SOL     OW87305   2.124   1.242   2.000  1.1439 -0.7599 -0.5774
28384SOL    HW187306   2.199   1.290   2.036  1.4682 -1.3416 -0.4747
28384SOL    HW287307   2.096   1.294   1.924 -0.0077  0.9036  0.8924
28385SOL     OW87308   9.523   5.039   3.839 -0.6897 -0.3202 -0.1278
28385SOL    HW187309   9.578   5.074   3.909  0.2970 -0.7332 -0.6692
28385SOL    HW287310   9.441   5.088   3.845 -0.4060  0.0412  0.9482
28386SOL     OW87311   1.082   8.495   2.758 -0.1628  0.5097  0.0818
28386SOL    HW187312   1.153   8.435   2.777 -1.7418 -1.1123  1.2456
28386SOL    HW287313   1.069   8.489   2.664 -0.0189 -0.6717  0.1271
28387SOL     OW87314   0.276   7.938   5.084 -0.2325 -0.6970 -0.3504
28387SOL    HW187315   0.264   7.894   5.169  2.5051  0.5414  0.8103
28387SOL    HW287316   0.328   8.016   5.105 -1.3139  0.8153 -2.9200
28388SOL     OW87317   5.842   4.971   7.022 -0.2687  0.5674 -0.0799
28388SOL    HW187318   5.844   5.064   7.001  0.2266  0.9145  1.4036
28388SOL    HW287319   5.818   4.967   7.114 -0.9368 -0.8179 -0.2869
28389SOL     OW87320   7.535   5.375   1.345  0.1314 -0.7807  0.2251
28389SOL    HW187321   7.543   5.462   1.306  0.2825 -0.2170  1.4639
28389SOL    HW287322   7.624   5.350   1.368  0.2635 -1.8612 -1.3088
28390SOL     OW87323   3.242   0.876   2.852  0.1136  0.1177 -0.2824
28390SOL    HW187324   3.233   0.935   2.776  2.4816  2.2300  0.9225
28390SOL    HW287325   3.179   0.910   2.915  0.8562  0.8540  0.0826
28391SOL     OW87326   6.048   6.084   2.317 -0.2200 -0.0820 -0.4912
28391SOL    HW187327   6.125   6.133   2.346 -0.3603  1.0518 -1.9188
28391SOL    HW287328   6.074   5.992   2.326 -0.2407  0.1225  3.0036
28392SOL     OW87329   6.562   9.559   8.139 -0.1804 -0.3162 -0.3442
28392SOL    HW187330   6.475   9.600   8.135  0.2118  0.4442 -1.7910
28392SOL    HW287331   6.617   9.615   8.084  0.6644 -2.1153 -1.3997
28393SOL     OW87332   8.361   6.544   8.782 -0.5861  0.2107  0.3142
28393SOL    HW187333   8.300   6.605   8.823 -0.8178 -0.2379  0.6534
28393SOL    HW287334   8.403   6.594   8.712 -0.7531  0.7602  0.6041
28394SOL     OW87335   6.002   5.333   1.300 -0.0681  1.0782  0.2722
28394SOL    HW187336   6.036   5.264   1.243 -0.9230 -0.0327  1.0684
28394SOL    HW287337   5.931   5.373   1.249  0.4309  1.3871 -0.1919
28395SOL     OW87338   6.763   3.009   0.826 -0.0229 -0.0333  0.3201
28395SOL    HW187339   6.721   3.094   0.818  0.0817 -0.0944 -1.1496
28395SOL    HW287340   6.715   2.953   0.765  0.7130 -0.7013  0.3364
28396SOL     OW87341   7.108   5.913   4.331  0.0662  0.0404 -0.3231
28396SOL    HW187342   7.176   5.903   4.263  0.7307  1.7090  0.0375
28396SOL    HW287343   7.027   5.924   4.281  0.1429 -1.2651 -0.7768
28397SOL     OW87344   2.111   2.588   3.795 -0.2606  0.2729 -0.1789
28397SOL    HW187345   2.029   2.547   3.765 -0.3087 -0.4385  0.8672
28397SOL    HW287346   2.108   2.581   3.890  1.1848 -0.0819 -0.1377
28398SOL     OW87347   0.373   1.816   1.475 -0.0941  0.3710  0.3939
28398SOL    HW187348   0.455   1.781   1.511 -0.0092  1.0672  0.8998
28398SOL    HW287349   0.328   1.854   1.550  0.0266  1.7377 -0.1855
28399SOL     OW87350   3.409   9.055   6.813 -0.0490  0.6131  0.0098
28399SOL    HW187351   3.330   9.002   6.797 -0.3513  1.6270 -2.1805
28399SOL    HW287352   3.471   8.993   6.851 -1.1593 -0.7747 -0.3256
28400SOL     OW87353   4.564   9.015   5.680  0.1193  0.5691 -0.0535
28400SOL    HW187354   4.471   8.996   5.691  0.0152  1.3244  0.3911
28400SOL    HW287355   4.571   9.109   5.692  0.8230  0.6461 -0.9266
28401SOL     OW87356   0.004   8.909   6.003  0.0697 -0.3270 -0.3478
28401SOL    HW187357   0.060   8.849   6.051  0.2266  0.5878  0.6436
28401SOL    HW287358  -0.061   8.939   6.067 -1.4837 -1.2317 -1.4207
28402SOL     OW87359   3.739   1.244   3.365 -0.3749 -0.5722 -0.3030
28402SOL    HW187360   3.690   1.274   3.442 -0.6536  0.7148 -0.9588
28402SOL    HW287361   3.807   1.187   3.401 -1.1219 -0.8091  0.7977
28403SOL     OW87362   3.267   5.873   3.649 -0.0247 -0.0431  0.0230
28403SOL    HW187363   3.292   5.783   3.626  1.6538  0.0294  1.3736
28403SOL    HW287364   3.227   5.907   3.570  0.9330 -1.4233 -1.1189
28404SOL     OW87365   5.885   3.692   8.644 -0.3357 -0.6483  0.1770
28404SOL    HW187366   5.939   3.768   8.620 -0.3653 -1.1002 -1.4402
28404SOL    HW287367   5.938   3.616   8.620 -1.0579 -1.1140  0.0251
28405SOL     OW87368   6.884   4.550   9.080  0.5285 -0.4093 -0.4770
28405SOL    HW187369   6.865   4.505   8.998  2.5322 -0.9442 -0.6952
28405SOL    HW287370   6.888   4.643   9.056 -0.0159 -0.4461 -0.7354
28406SOL     OW87371   6.835   3.492   1.263  0.2183 -0.4571  0.2370
28406SOL    HW187372   6.897   3.523   1.197 -0.5597 -0.5887 -0.5798
28406SOL    HW287373   6.884   3.496   1.346  1.2973 -0.5335 -0.3763
28407SOL     OW87374   6.762   6.314   4.780  0.3988  0.1369  0.3774
28407SOL    HW187375   6.854   6.307   4.807  0.7992  1.9164 -0.4140
28407SOL    HW287376   6.757   6.262   4.700  0.4842 -0.7010  0.9034
28408SOL     OW87377   3.245   8.657   0.411  0.2974  0.2337 -0.5478
28408SOL    HW187378   3.279   8.732   0.364  0.7537 -0.7699 -1.8657
28408SOL    HW287379   3.227   8.591   0.343 -1.3194 -0.3940  0.4185
28409SOL     OW87380   1.831   1.972   2.463  0.1187  0.2588  0.2320
28409SOL    HW187381   1.896   1.902   2.463  1.6509  1.5774 -1.0761
28409SOL    HW287382   1.883   2.052   2.458 -1.6060  1.4195  0.2245
28410SOL     OW87383   5.012   5.816   5.054 -0.3097  0.5508  0.4273
28410SOL    HW187384   5.097   5.797   5.093  0.1365 -0.0275 -0.7494
28410SOL    HW287385   4.948   5.782   5.117  0.4017 -3.1258 -0.5515
28411SOL     OW87386   9.377   4.060   6.030 -0.2209 -0.2814  0.0387
28411SOL    HW187387   9.327   4.035   5.953  0.5225  0.6829 -0.7881
28411SOL    HW287388   9.335   4.141   6.060  1.3929  1.1294 -1.2837
28412SOL     OW87389   7.877   6.140   3.016  0.6988  0.6180 -0.7553
28412SOL    HW187390   7.953   6.140   3.075  0.1658  1.1373 -0.0565
28412SOL    HW287391   7.873   6.051   2.983  1.1804  0.3925 -0.2282
28413SOL     OW87392   1.139   7.896   4.774 -0.1341  0.0203  0.1029
28413SOL    HW187393   1.127   7.845   4.693 -0.9950 -0.0763  0.2783
28413SOL    HW287394   1.183   7.976   4.746 -0.5042  0.0264 -0.4875
28414SOL     OW87395   4.720   1.863   1.281  0.2933 -0.0027  0.2752
28414SOL    HW187396   4.722   1.933   1.347  1.8628  1.8497 -1.5666
28414SOL    HW287397   4.678   1.904   1.205  0.5008 -1.3463 -0.5864
28415SOL     OW87398   2.391   9.168   2.882 -0.5587  0.0780 -0.2371
28415SOL    HW187399   2.457   9.101   2.900 -0.7998 -0.4935 -1.3514
28415SOL    HW287400   2.382   9.168   2.787 -2.8327 -0.5439 -0.0986
28416SOL     OW87401   1.145   0.242   1.161  0.4629  0.5889 -0.6081
28416SOL    HW187402   1.097   0.211   1.084  3.1610 -1.0671 -1.7789
28416SOL    HW287403   1.195   0.317   1.130  1.6088 -0.1198 -0.5552
28417SOL     OW87404   3.102   6.214   3.833  0.1280  0.0370 -0.4516
28417SOL    HW187405   3.103   6.118   3.828 -0.0162  0.0813 -1.6359
28417SOL    HW287406   3.022   6.239   3.787 -1.6874  0.6172  2.7445
28418SOL     OW87407   8.914   2.514   7.080  0.7417  0.4465  0.4284
28418SOL    HW187408   9.007   2.511   7.101  0.5611  1.7743  1.5850
28418SOL    HW287409   8.873   2.549   7.158 -0.5335  1.4096 -0.6215
28419SOL     OW87410   4.221   5.749   3.989  0.3602 -0.3221  0.4374
28419SOL    HW187411   4.238   5.691   3.915 -0.8322 -1.3739  0.9434
28419SOL    HW287412   4.248   5.836   3.960 -0.3179 -0.6723 -1.3268
28420SOL     OW87413   2.999   8.624   7.026  0.4017 -0.0874 -0.3787
28420SOL    HW187414   2.931   8.690   7.032  0.6734  0.1187  0.5645
28420SOL    HW287415   2.977   8.573   6.948 -0.0995  0.7790 -0.8124
28421SOL     OW87416   7.848   8.470   7.407 -0.1078  0.4169  0.2899
28421SOL    HW187417   7.897   8.415   7.468 -1.2122 -0.4924  0.4058
28421SOL    HW287418   7.773   8.502   7.458 -0.1670  0.9858 -0.1412
28422SOL     OW87419   0.775   8.745   8.974 -0.6875  0.1163  0.2007
28422SOL    HW187420   0.762   8.825   8.923 -3.0833 -0.8700 -0.8682
28422SOL    HW287421   0.805   8.681   8.909  2.0432  0.2424  1.1922
28423SOL     OW87422   0.753   1.147   4.416  0.2165 -0.3239 -0.3794
28423SOL    HW187423   0.784   1.057   4.407  1.1887  0.0694 -1.2386
28423SOL    HW287424   0.699   1.161   4.339 -0.9407 -0.5344  0.3694
28424SOL     OW87425   6.356   3.203   3.006 -0.0447 -0.2997 -0.2293
28424SOL    HW187426   6.302   3.129   2.978  1.6877 -1.1862 -1.4783
28424SOL    HW287427   6.422   3.164   3.063  0.3790  0.4152 -0.2189
28425SOL     OW87428   6.716   3.701   9.477  0.1395 -0.3884  0.3675
28425SOL    HW187429   6.676   3.775   9.522  0.4856  0.6960 -1.0470
28425SOL    HW287430   6.804   3.730   9.454  0.5256 -1.4851  0.3796
28426SOL     OW87431   6.232   8.060   5.430 -0.3179 -0.9273 -0.0980
28426SOL    HW187432   6.273   8.063   5.516 -0.0408  2.6107 -0.2271
28426SOL    HW287433   6.152   8.009   5.443  0.0046 -0.9445  2.1224
28427SOL     OW87434   0.385   0.492   0.679 -0.4340  0.5004  0.2726
28427SOL    HW187435   0.312   0.534   0.725 -1.7989  0.7920 -2.0371
28427SOL    HW287436   0.412   0.555   0.613  0.9575 -0.2199  0.1188
28428SOL     OW87437   4.194   6.389   4.005  0.0302 -0.1380  0.2351
28428SOL    HW187438   4.231   6.315   4.054  0.6406  0.8056  1.2446
28428SOL    HW287439   4.202   6.364   3.913  0.6278 -1.1418  0.5479
28429SOL     OW87440   9.533   6.930   0.367  0.0370  0.4909  0.9859
28429SOL    HW187441   9.509   6.883   0.447 -0.9618 -0.4691  0.1439
28429SOL    HW287442   9.587   6.869   0.318 -0.0107  0.7918  0.5560
28430SOL     OW87443   9.009   1.769   2.988 -0.5244  0.1442  0.1983
28430SOL    HW187444   8.941   1.820   2.943  0.3116  1.1103 -0.0046
28430SOL    HW287445   8.966   1.735   3.066 -0.9476  1.7171  0.6871
28431SOL     OW87446   1.833   2.228   0.895 -0.3156  0.3035 -0.0597
28431SOL    HW187447   1.877   2.148   0.922 -0.1710  0.7017  0.9070
28431SOL    HW287448   1.904   2.286   0.868 -0.2816  0.7159  0.8883
28432SOL     OW87449   7.831   6.994   3.547 -0.0290 -0.1289  0.2212
28432SOL    HW187450   7.785   6.944   3.480  0.6743  1.8645 -1.8735
28432SOL    HW287451   7.924   6.977   3.530  0.1456 -0.4637  1.4320
28433SOL     OW87452   1.490   4.643   7.772 -0.0109  0.2201  0.0589
28433SOL    HW187453   1.490   4.652   7.868 -1.6398  0.3553  0.0603
28433SOL    HW287454   1.398   4.636   7.748  0.2622  1.8462 -1.6774
28434SOL     OW87455   8.881   0.169   8.065  0.1628  0.2822 -0.1751
28434SOL    HW187456   8.866   0.143   7.974 -1.5287  2.7067 -0.6886
28434SOL    HW287457   8.826   0.110   8.116  1.6604 -1.5777 -0.5603
28435SOL     OW87458   3.713   8.933   4.558 -0.0805  0.8556 -0.0435
28435SOL    HW187459   3.748   9.000   4.498 -0.9105  1.0328 -0.3545
28435SOL    HW287460   3.655   8.982   4.616 -0.8879  0.3798 -0.4290
28436SOL     OW87461   4.178   3.615   4.379  0.2832 -0.1244  0.4169
28436SOL    HW187462   4.206   3.617   4.471  2.2263  0.0364 -0.1282
28436SOL    HW287463   4.255   3.585   4.332 -0.8106 -0.5980 -1.1445
28437SOL     OW87464   1.762   0.894   1.326  0.0497  0.1446 -0.3373
28437SOL    HW187465   1.748   0.835   1.251 -1.2583 -1.1410  0.8379
28437SOL    HW287466   1.680   0.944   1.332  0.3888  0.6812 -0.1239
28438SOL     OW87467   2.578   6.105   2.630  0.3415 -0.1996  0.2641
28438SOL    HW187468   2.573   6.182   2.687 -0.7531 -1.9253  2.6689
28438SOL    HW287469   2.654   6.057   2.661  0.2450 -0.7526 -0.3306
28439SOL     OW87470   6.349   7.462   3.553 -0.1328  0.4070 -0.3742
28439SOL    HW187471   6.443   7.453   3.539 -0.0222  2.5822 -1.5961
28439SOL    HW287472   6.322   7.379   3.591  2.3030 -0.2012  0.2100
28440SOL     OW87473   4.899   9.168   6.949  0.2496  0.0720  0.1338
28440SOL    HW187474   4.830   9.126   6.897 -1.1743  0.7876  1.3727
28440SOL    HW287475   4.890   9.262   6.930  1.4125  0.1224 -0.2765
28441SOL     OW87476   8.542   9.156   1.141  0.2738  0.2199 -0.3601
28441SOL    HW187477   8.521   9.131   1.231 -0.2837  1.0628 -0.2445
28441SOL    HW287478   8.522   9.078   1.089  0.3668 -0.1897  0.2075
28442SOL     OW87479   1.149   5.460   1.547 -0.6106  0.0181 -0.3563
28442SOL    HW187480   1.102   5.477   1.629  0.2280 -2.0538  0.6252
28442SOL    HW287481   1.190   5.544   1.525  0.1357  0.3347  2.0129
28443SOL     OW87482   4.250   6.214   0.064  0.3650  0.1294 -0.3203
28443SOL    HW187483   4.211   6.212  -0.023  0.6094  2.2360 -0.5327
28443SOL    HW287484   4.279   6.304   0.075  3.0430 -0.7568  0.7689
28444SOL     OW87485   0.924   0.887   2.173 -0.0763  0.1152 -0.5908
28444SOL    HW187486   1.011   0.887   2.212  0.1697 -1.0453 -1.1030
28444SOL    HW287487   0.884   0.806   2.205 -1.0131  0.6751 -0.2897
28445SOL     OW87488   4.640   2.425   3.965 -0.0510  0.2158 -0.1523
28445SOL    HW187489   4.578   2.497   3.967  2.1353  2.3626 -2.1495
28445SOL    HW287490   4.714   2.455   4.019  0.9534 -0.4543 -1.1091
28446SOL     OW87491   8.656   5.953   3.173  0.1305  0.2305  0.0493
28446SOL    HW187492   8.749   5.977   3.169  0.8490 -2.3631 -0.2013
28446SOL    HW287493   8.610   6.037   3.165  2.4268  1.5994  0.2969
28447SOL     OW87494   0.865   8.332   7.912  0.0641  0.4273  0.0591
28447SOL    HW187495   0.777   8.338   7.948  0.9927  1.1046  2.3886
28447SOL    HW287496   0.876   8.239   7.891 -1.2142  0.3545 -0.4073
28448SOL     OW87497   0.121   6.731   5.208 -0.0977 -0.5447 -0.3000
28448SOL    HW187498   0.141   6.818   5.174  0.7037  0.3808  2.2860
28448SOL    HW287499   0.090   6.746   5.298  1.2541 -2.9599  0.6912
28449SOL     OW87500   7.904   3.664   6.769 -0.3030 -0.1015  0.2049
28449SOL    HW187501   7.811   3.675   6.787 -0.9767 -3.6438 -0.4013
28449SOL    HW287502   7.919   3.717   6.690 -1.1537  2.3270  1.5443
28450SOL     OW87503   6.098   1.114   6.905 -0.2877 -0.7999  0.3603
28450SOL    HW187504   6.157   1.184   6.878 -2.6376  1.3631  0.4577
28450SOL    HW287505   6.137   1.034   6.868 -0.0338  1.1327 -4.1741
28451SOL     OW87506   4.181   2.344   7.028 -0.4415 -0.4793 -0.0729
28451SOL    HW187507   4.205   2.367   7.117 -1.9584 -0.7741  0.4468
28451SOL    HW287508   4.264   2.337   6.981  0.4103 -0.8208  1.4357
28452SOL     OW87509   6.765   2.961   8.161 -0.2464  0.4488  0.3975
28452SOL    HW187510   6.825   2.902   8.206 -0.7741 -0.7224 -0.3805
28452SOL    HW287511   6.813   2.988   8.082 -0.4289  0.1526  0.1829
28453SOL     OW87512   1.831   0.834   1.596  0.3180  0.3435  0.1218
28453SOL    HW187513   1.783   0.868   1.521  0.4604  2.7565  1.0511
28453SOL    HW287514   1.807   0.741   1.599 -0.3935  0.3767 -2.3241
28454SOL     OW87515   6.909   5.454   3.108 -0.6227 -0.2996 -0.0998
28454SOL    HW187516   6.997   5.478   3.137 -0.9006  1.6411 -0.7158
28454SOL    HW287517   6.924   5.401   3.029  0.0414  1.5181 -1.2736
28455SOL     OW87518   6.069   2.230   2.486 -0.0655  0.3499 -1.2017
28455SOL    HW187519   5.987   2.232   2.535  0.8980  0.0425  0.5142
28455SOL    HW287520   6.113   2.312   2.509  0.2129  0.4100 -1.9204
28456SOL     OW87521   4.527   3.614   8.739  0.3859 -0.1337  0.3456
28456SOL    HW187522   4.614   3.632   8.776 -0.3998  2.5213  1.2023
28456SOL    HW287523   4.545   3.582   8.651  2.2693  0.9992  0.2343
28457SOL     OW87524   1.840   1.343   7.949  0.2230  0.5192 -0.4133
28457SOL    HW187525   1.849   1.268   7.890 -2.5846  2.1340 -3.2230
28457SOL    HW287526   1.896   1.322   8.023 -0.3991 -4.3440 -0.9741
28458SOL     OW87527   4.198   4.656   0.787 -0.5331 -0.0623  0.1032
28458SOL    HW187528   4.256   4.729   0.768 -0.3510 -0.6281 -1.7839
28458SOL    HW287529   4.137   4.654   0.713 -1.1383 -1.2199  0.5956
28459SOL     OW87530   1.366   1.306   6.962 -0.4171  0.0369  0.2743
28459SOL    HW187531   1.410   1.222   6.952  0.3503  0.5137 -0.4761
28459SOL    HW287532   1.429   1.371   6.931 -1.9086  0.6756 -1.6817
28460SOL     OW87533   2.314   0.534   0.865  0.5519 -0.1921 -0.3346
28460SOL    HW187534   2.336   0.521   0.958  0.5319 -0.6123 -0.3840
28460SOL    HW287535   2.363   0.612   0.839  0.6886 -0.1686 -0.0127
28461SOL     OW87536   6.083   4.423   9.121  0.6770 -0.0331 -0.2303
28461SOL    HW187537   6.061   4.494   9.181  0.0244  1.7211 -2.4305
28461SOL    HW287538   5.998   4.387   9.094  0.9396 -0.4927 -0.4653
28462SOL     OW87539   7.979   3.280   9.221 -0.0485 -0.4244  0.3387
28462SOL    HW187540   7.915   3.284   9.293 -0.0007 -0.6673  0.3943
28462SOL    HW287541   7.967   3.194   9.183 -0.0895 -0.2854  0.0366
28463SOL     OW87542   5.305   9.559   7.373 -0.2286  0.2667  0.3637
28463SOL    HW187543   5.323   9.489   7.436 -1.2773 -0.3063  0.0367
28463SOL    HW287544   5.326   9.521   7.288 -1.7164 -0.0027  0.0912
28464SOL     OW87545   1.264   2.561   8.845 -0.2535 -0.4593 -0.6126
28464SOL    HW187546   1.194   2.499   8.822 -1.2691 -0.0028  1.0885
28464SOL    HW287547   1.301   2.526   8.926 -0.2260  0.6720 -0.1255
28465SOL     OW87548   2.748   2.589   7.103  0.2241 -0.1130 -0.5861
28465SOL    HW187549   2.700   2.508   7.118 -0.6431  0.3010 -1.0069
28465SOL    HW287550   2.679   2.655   7.089  0.8681  0.9733  1.0708
28466SOL     OW87551   5.173   3.438   6.452  0.3759  0.7019  0.4142
28466SOL    HW187552   5.134   3.448   6.539  0.6104  0.0599  0.5986
28466SOL    HW287553   5.125   3.364   6.413  1.0698  0.2233  0.4568
28467SOL     OW87554   4.695   1.328   7.172 -0.2265 -0.0686  0.6690
28467SOL    HW187555   4.628   1.387   7.206 -1.7264 -0.5321 -1.2352
28467SOL    HW287556   4.763   1.385   7.137  0.3080  0.4192  2.4464
28468SOL     OW87557   9.061   9.333   3.760 -0.5770 -0.0261  0.2946
28468SOL    HW187558   9.072   9.242   3.788  2.3077  0.4124  0.8886
28468SOL    HW287559   9.105   9.337   3.675  0.1422  0.9774  0.6931
28469SOL     OW87560   7.295   2.081   6.010 -0.2158 -0.4566  0.3528
28469SOL    HW187561   7.273   1.988   5.999  1.6534 -0.7264 -1.6666
28469SOL    HW287562   7.374   2.080   6.064 -1.5685  0.1787  2.4816
28470SOL     OW87563   2.307   6.995   4.188  0.3718 -0.7897  0.0571
28470SOL    HW187564   2.322   6.926   4.124 -0.4918 -2.7077  1.8156
28470SOL    HW287565   2.395   7.026   4.211  0.6806  0.4663 -2.4901
28471SOL     OW87566   6.026   0.310   3.745  0.1672 -0.2914 -0.5173
28471SOL    HW187567   6.071   0.231   3.716 -0.4433 -0.7469 -0.2450
28471SOL    HW287568   6.028   0.368   3.669 -0.6188 -1.1207 -1.1901
28472SOL     OW87569   4.521   1.708   2.520  0.0154  0.0568  0.1480
28472SOL    HW187570   4.461   1.745   2.455 -0.0984  2.1487  1.3429
28472SOL    HW287571   4.584   1.658   2.470 -0.9381  0.3670 -1.4237
28473SOL     OW87572   6.101   0.459   5.659 -0.1001 -0.1831  0.3847
28473SOL    HW187573   6.178   0.515   5.671 -0.9160  1.1448 -0.3586
28473SOL    HW287574   6.027   0.512   5.690 -0.7316 -1.5079  1.2746
28474SOL     OW87575   8.533   9.549   3.712  0.5959 -0.3670  0.4341
28474SOL    HW187576   8.511   9.477   3.772  0.8275 -1.5716 -0.8569
28474SOL    HW287577   8.466   9.544   3.643  0.4818  0.8211  0.4380
28475SOL     OW87578   7.602   8.138   5.453 -0.0371  0.1190 -0.0405
28475SOL    HW187579   7.680   8.111   5.503  0.3737 -1.9626 -1.6654
28475SOL    HW287580   7.632   8.210   5.398 -0.0255  1.1870  1.3054
28476SOL     OW87581   7.407   1.658   5.811 -0.1333 -0.1770 -0.2123
28476SOL    HW187582   7.412   1.704   5.727  0.2947 -0.7023 -0.4768
28476SOL    HW287583   7.493   1.618   5.822  0.3786  1.2241  1.2556
28477SOL     OW87584   6.532   6.854   0.653  0.1297 -0.1515 -0.5501
28477SOL    HW187585   6.567   6.936   0.620 -2.4143  1.0005 -0.6467
28477SOL    HW287586   6.571   6.845   0.740  0.9258  0.8352 -0.7836
28478SOL     OW87587   4.095   0.074   3.292 -0.4268  0.1291  0.3675
28478SOL    HW187588   4.044   0.122   3.227 -0.4688 -0.3286  0.0632
28478SOL    HW287589   4.186   0.092   3.268 -0.4187  1.5444  1.3460
28479SOL     OW87590   3.273   1.435   1.597 -0.8074 -0.2166  0.1945
28479SOL    HW187591   3.277   1.529   1.617  1.2153 -0.1371 -0.3437
28479SOL    HW287592   3.230   1.430   1.512  0.5636  0.4016 -0.5660
28480SOL     OW87593   3.718   7.339   1.699 -0.2967 -0.2056 -0.4495
28480SOL    HW187594   3.634   7.314   1.662 -1.2650 -0.1719  1.6345
28480SOL    HW287595   3.718   7.302   1.787  1.1282  1.2779  0.2327
28481SOL     OW87596   4.712   5.609   1.905 -0.2739 -0.5324 -0.3714
28481SOL    HW187597   4.709   5.572   1.993 -0.5208 -0.9745 -0.5677
28481SOL    HW287598   4.643   5.565   1.857 -0.1911 -0.2374 -0.7710
28482SOL     OW87599   4.829   0.116   1.194 -0.7419  0.3242  0.2350
28482SOL    HW187600   4.816   0.141   1.103 -0.4890 -0.7335 -0.1074
28482SOL    HW287601   4.837   0.021   1.192  0.8621  0.4068  1.1646
28483SOL     OW87602   0.508   3.176   5.180 -0.3493 -0.4308 -0.2212
28483SOL    HW187603   0.441   3.181   5.113  0.2709 -1.6667 -0.9850
28483SOL    HW287604   0.461   3.187   5.263 -1.4015 -0.6777 -0.7712
28484SOL     OW87605   6.155   5.320   9.340  0.3449  0.4579 -0.0290
28484SOL    HW187606   6.246   5.344   9.322  0.2783 -0.1236 -1.3087
28484SOL    HW287607   6.131   5.263   9.267 -0.8578  0.1036  0.6172
28485SOL     OW87608   4.309   8.476   5.519  0.5153 -0.2867 -0.2096
28485SOL    HW187609   4.299   8.418   5.443  0.9684  0.7901 -1.1111
28485SOL    HW287610   4.319   8.563   5.481  1.2509  0.2082  1.0755
28486SOL     OW87611   3.912   8.590   5.484  0.2136 -0.3459 -0.1277
28486SOL    HW187612   3.845   8.636   5.535  0.3272 -0.4965  0.1573
28486SOL    HW287613   3.918   8.504   5.525 -0.3556 -0.7983 -0.9715
28487SOL     OW87614   4.496   9.524   7.804 -0.2488 -0.1204  0.2817
28487SOL    HW187615   4.591   9.524   7.813 -0.3941 -0.0786  2.0824
28487SOL    HW287616   4.475   9.437   7.770  0.5802  0.7149 -2.6461
28488SOL     OW87617   2.130   6.339   3.351 -0.4711 -0.2812 -0.4603
28488SOL    HW187618   2.099   6.249   3.347  0.1323 -0.5964  1.2108
28488SOL    HW287619   2.191   6.341   3.425 -1.3833  1.7491  0.3308
28489SOL     OW87620   4.630   8.571   2.890  0.3684 -0.0278  0.0549
28489SOL    HW187621   4.633   8.664   2.869 -1.6365  0.1728  0.4065
28489SOL    HW287622   4.570   8.565   2.964  2.6550 -1.3389  1.9267
28490SOL     OW87623   6.849   2.669   1.462  0.4332  0.0648 -0.6373
28490SOL    HW187624   6.788   2.668   1.388  0.6876  2.0454 -0.9114
28490SOL    HW287625   6.810   2.731   1.524  1.7604  0.7343 -0.4501
28491SOL     OW87626   1.506   4.016   2.532  0.4310  0.6220  0.4594
28491SOL    HW187627   1.591   3.971   2.531  0.1857  0.1660 -0.2495
28491SOL    HW287628   1.523   4.097   2.580  1.7038  1.3985 -1.2146
28492SOL     OW87629   0.562   4.019   1.144 -0.3542  0.2589  0.1257
28492SOL    HW187630   0.655   4.007   1.161 -0.2737 -0.5395 -0.7569
28492SOL    HW287631   0.518   3.961   1.206 -0.1457 -1.1956 -1.0320
28493SOL     OW87632   5.567   0.623   9.184 -0.6777 -0.1245  0.0388
28493SOL    HW187633   5.479   0.585   9.185 -1.2550  0.8312 -3.2587
28493SOL    HW287634   5.625   0.550   9.162 -0.3620 -0.9660  3.1122
28494SOL     OW87635   7.792   9.427   1.415 -0.0360  0.6226 -0.0732
28494SOL    HW187636   7.834   9.442   1.500  1.5448 -2.3447 -0.1682
28494SOL    HW287637   7.851   9.466   1.351  1.6983 -1.7447 -0.0562
28495SOL     OW87638   8.529   8.322   0.851  0.0504 -0.5196  0.0049
28495SOL    HW187639   8.603   8.328   0.912 -1.0814  1.2377  1.2766
28495SOL    HW287640   8.568   8.288   0.771  1.9273 -1.2069  1.1341
28496SOL     OW87641   2.112   2.706   3.515 -0.3790 -0.1529  0.4475
28496SOL    HW187642   2.086   2.694   3.606 -0.5018 -1.7803  0.2162
28496SOL    HW287643   2.208   2.706   3.517 -0.3792 -0.8300  0.5025
28497SOL     OW87644   8.429   6.873   8.071 -0.1774 -0.3931  0.2179
28497SOL    HW187645   8.333   6.879   8.069 -0.2029 -0.8386 -0.0713
28497SOL    HW287646   8.447   6.796   8.125 -0.0048 -0.8000 -0.4134
28498SOL     OW87647   0.744   3.844   6.588  0.0524 -0.6498 -0.3606
28498SOL    HW187648   0.745   3.792   6.668  2.4941 -0.8762 -0.4548
28498SOL    HW287649   0.677   3.911   6.603 -0.0162 -1.1023  1.5779
28499SOL     OW87650   1.831   9.149   3.634  0.1066  0.3532  0.0896
28499SOL    HW187651   1.889   9.132   3.709  0.6898  0.2354 -0.3751
28499SOL    HW287652   1.889   9.140   3.558 -0.4949  0.4056 -0.3752
28500SOL     OW87653   1.979   1.682   1.014 -0.9475 -0.1222 -0.2108
28500SOL    HW187654   1.891   1.682   0.976 -0.4647 -0.5278 -1.3795
28500SOL    HW287655   1.969   1.641   1.100 -1.8677 -0.2826 -0.3900
28501SOL     OW87656   4.632   4.677   5.051 -0.1983 -0.0284 -0.1302
28501SOL    HW187657   4.694   4.686   5.123 -0.6929  0.8971  0.1962
28501SOL    HW287658   4.608   4.584   5.051  0.9729 -0.3420 -0.0987
28502SOL     OW87659   9.611   6.250   0.877  0.0294 -0.0775  0.1218
28502SOL    HW187660   9.543   6.202   0.924 -0.2637 -0.7954 -0.9875
28502SOL    HW287661   9.562   6.309   0.820  0.3605  0.2245  0.1502
28503SOL     OW87662   0.846   6.144   2.704 -0.3489 -0.7799 -0.0490
28503SOL    HW187663   0.876   6.140   2.794 -0.6017 -1.1896  0.0231
28503SOL    HW287664   0.818   6.054   2.684 -0.2068 -0.7148 -0.5647
28504SOL     OW87665   6.956   3.554   2.869 -0.1220  0.4882 -0.1353
28504SOL    HW187666   7.007   3.536   2.790  1.0079 -0.6764  0.8063
28504SOL    HW287667   6.990   3.638   2.900 -1.8545  1.8975 -1.8219
28505SOL     OW87668   8.643   3.183   6.082 -0.7313  0.0444 -0.2851
28505SOL    HW187669   8.616   3.149   6.167 -3.1095  2.8393  0.2370
28505SOL    HW287670   8.738   3.190   6.088 -0.9050  1.2432  2.6294
28506SOL     OW87671   5.983   3.185   7.161 -0.1024 -0.0963  0.0400
28506SOL    HW187672   6.037   3.109   7.184  0.0376  0.2082  0.7450
28506SOL    HW287673   5.900   3.148   7.131 -0.5565 -0.5079  1.7273
28507SOL     OW87674   5.369   7.948   6.682 -0.1209  0.3316 -0.1931
28507SOL    HW187675   5.383   7.868   6.632  1.1466  0.9055 -0.7891
28507SOL    HW287676   5.312   8.001   6.626 -2.8096 -0.9531  1.1199
28508SOL     OW87677   1.320   1.923   6.928  0.2671 -0.0953  0.1972
28508SOL    HW187678   1.317   1.872   7.009  2.4987 -1.5911 -0.5676
28508SOL    HW287679   1.320   1.858   6.858 -2.7408  1.1706 -1.1652
28509SOL     OW87680   6.765   0.310   4.454  0.3598 -0.9016  0.6943
28509SOL    HW187681   6.834   0.351   4.505  0.9333 -2.4597  1.2286
28509SOL    HW287682   6.809   0.273   4.378 -0.1535 -0.4633  0.1747
28510SOL     OW87683   8.796   5.505   5.343  0.1187  0.2805 -0.6233
28510SOL    HW187684   8.891   5.511   5.352  0.0728  1.5517 -0.7682
28510SOL    HW287685   8.762   5.571   5.403 -0.8050 -1.8143  1.2877
28511SOL     OW87686   5.163   4.349   3.260 -0.1300 -0.2144  0.0406
28511SOL    HW187687   5.224   4.359   3.186 -0.5547 -0.1903 -0.3106
28511SOL    HW287688   5.144   4.439   3.286  1.1622 -0.2269  1.1459
28512SOL     OW87689   2.673   9.426   2.668  0.0569 -0.0015  0.1695
28512SOL    HW187690   2.625   9.447   2.748 -0.1764 -2.4703  0.7453
28512SOL    HW287691   2.732   9.356   2.693  0.2901 -0.5430 -1.7444
28513SOL     OW87692   8.568   7.119   8.061 -0.0946  0.5931 -0.4008
28513SOL    HW187693   8.522   7.145   7.982  0.6481 -0.7633 -1.3123
28513SOL    HW287694   8.537   7.030   8.079  0.2491  0.6337  0.4356
28514SOL     OW87695   3.083   5.659   7.732 -0.1744 -0.5026 -0.0195
28514SOL    HW187696   3.046   5.734   7.685 -0.6974 -0.0275  1.1192
28514SOL    HW287697   3.169   5.689   7.762  0.4656 -1.0434 -1.2314
28515SOL     OW87698   3.182   1.038   0.971 -0.2935  0.0436 -0.0955
28515SOL    HW187699   3.246   0.967   0.969  0.3532  0.6056  0.3058
28515SOL    HW287700   3.115   1.011   0.908  0.6523 -0.2651 -1.0013
28516SOL     OW87701   2.955   1.193   4.068  0.5681  0.4542  0.2859
28516SOL    HW187702   2.898   1.208   3.992 -0.7143 -2.8137  0.4499
28516SOL    HW287703   2.908   1.233   4.141 -1.7154 -2.1103  0.4022
28517SOL     OW87704   7.948   7.678   8.537  0.0437  0.4072  0.6587
28517SOL    HW187705   7.965   7.667   8.631  1.4187  0.9384  0.4966
28517SOL    HW287706   7.977   7.595   8.498  0.2588  0.5001  0.6188
28518SOL     OW87707   2.369   5.388   7.788 -0.0416 -0.0790 -0.0793
28518SOL    HW187708   2.274   5.384   7.781  0.0437 -0.7881 -0.9720
28518SOL    HW287709   2.387   5.385   7.882 -0.8930 -0.0766  0.0836
28519SOL     OW87710   7.095   5.806   4.765  0.0107 -0.3049 -0.0599
28519SOL    HW187711   7.179   5.844   4.737  0.3621  0.0076  1.3065
28519SOL    HW287712   7.030   5.850   4.711  0.6527  0.1551 -0.4886
28520SOL     OW87713   3.535   2.903   5.254  0.3172  0.0697  0.0322
28520SOL    HW187714   3.445   2.871   5.250  0.8376 -1.3866 -0.6409
28520SOL    HW287715   3.556   2.927   5.164  0.5794  0.4907  0.2030
28521SOL     OW87716   7.482   2.450   8.451 -0.1024  0.7009 -0.0929
28521SOL    HW187717   7.419   2.496   8.507  0.8992  1.1688  0.6934
28521SOL    HW287718   7.456   2.358   8.457 -2.0704  1.0889 -1.6050
28522SOL     OW87719   4.715   6.956   8.491  0.5409  0.0900 -0.4883
28522SOL    HW187720   4.794   7.009   8.482  0.0426  0.7138 -1.2558
28522SOL    HW287721   4.650   7.016   8.528 -0.2192  0.2192 -1.9783
28523SOL     OW87722   5.196   8.354   4.680  0.2478  0.2080  0.1838
28523SOL    HW187723   5.206   8.341   4.586  1.7004 -1.1846  0.4960
28523SOL    HW287724   5.279   8.394   4.707 -0.4848  1.3850  0.7592
28524SOL     OW87725   7.467   8.758   6.270 -0.2353 -0.0516 -0.2046
28524SOL    HW187726   7.464   8.708   6.351  0.4263  0.6675  0.2759
28524SOL    HW287727   7.544   8.726   6.225 -0.8515 -0.7696 -0.7779
28525SOL     OW87728   2.096   1.889   9.619 -0.2438  0.0209  0.2707
28525SOL    HW187729   2.082   1.828   9.692  0.5942 -0.2025  0.2574
28525SOL    HW287730   2.191   1.886   9.604 -0.5215 -0.6446 -1.4588
28526SOL     OW87731   6.198   3.669   2.498 -0.0015  0.3114 -0.2607
28526SOL    HW187732   6.186   3.759   2.470 -1.8089  0.2184  0.0870
28526SOL    HW287733   6.110   3.631   2.498  0.8838 -2.0155 -2.1516
28527SOL     OW87734   6.980   1.178   3.583  0.6487  0.8477 -0.0784
28527SOL    HW187735   6.927   1.167   3.504 -1.4880  0.2969  1.3345
28527SOL    HW287736   7.035   1.099   3.586 -3.2068 -2.1259  1.6921
28528SOL     OW87737   5.060   7.807   5.853 -0.5221 -0.0992  0.7006
28528SOL    HW187738   5.121   7.838   5.920  0.4269  0.5278 -0.4171
28528SOL    HW287739   5.106   7.821   5.770 -0.5428 -3.3458  0.0221
28529SOL     OW87740   0.445   5.046   7.357 -1.0004  0.0937 -0.2835
28529SOL    HW187741   0.422   5.036   7.450 -1.6487  0.0635 -0.4483
28529SOL    HW287742   0.526   4.996   7.348 -0.9504  0.0663  0.2593
28530SOL     OW87743   3.377   0.521   6.316 -0.3751  0.8803  0.0884
28530SOL    HW187744   3.425   0.441   6.339 -1.6480  0.0957  0.1079
28530SOL    HW287745   3.398   0.535   6.223  0.4843  0.9960  0.2862
28531SOL     OW87746   8.663   4.133   5.570 -0.2387 -0.2767 -0.3566
28531SOL    HW187747   8.736   4.087   5.529 -1.0792 -2.0462  0.0314
28531SOL    HW287748   8.655   4.215   5.521  1.0443 -0.7332 -1.3672
28532SOL     OW87749   9.580   0.699   4.363 -0.4634  0.1836  0.4387
28532SOL    HW187750   9.649   0.754   4.326  1.0653 -2.3264 -0.6908
28532SOL    HW287751   9.587   0.713   4.458  2.1916 -0.5347  0.4464
28533SOL     OW87752   1.978   0.688   8.300  0.4994  0.4669  0.1004
28533SOL    HW187753   2.063   0.711   8.264  1.6897 -0.1733  2.3259
28533SOL    HW287754   1.958   0.602   8.264  1.1509  0.3104  0.1040
28534SOL     OW87755   0.364   3.790   4.498  0.4025 -0.1473 -0.0141
28534SOL    HW187756   0.294   3.727   4.481  0.7346 -0.5065 -0.0730
28534SOL    HW287757   0.444   3.745   4.470  0.6057  0.4369 -0.3949
28535SOL     OW87758   6.689   3.363   6.917  0.4651 -0.9784  0.0264
28535SOL    HW187759   6.717   3.426   6.851 -0.5279 -4.0971 -3.7194
28535SOL    HW287760   6.604   3.331   6.886  0.1552 -3.0078  2.6046
28536SOL     OW87761   9.364   7.218   7.404  0.0762  0.0403  0.0183
28536SOL    HW187762   9.294   7.283   7.396  0.2721  0.2148 -0.2846
28536SOL    HW287763   9.323   7.144   7.448 -0.5939 -0.2987 -1.1443
28537SOL     OW87764   2.590   0.353   6.603 -0.0017 -0.1072 -0.2188
28537SOL    HW187765   2.503   0.320   6.625  0.0538  0.5899  1.1275
28537SOL    HW287766   2.647   0.276   6.606 -0.3631 -0.3636  0.0703
28538SOL     OW87767   3.508   6.669   1.329  0.1537 -0.1859  0.1679
28538SOL    HW187768   3.570   6.685   1.400  0.3549 -3.0194  0.7485
28538SOL    HW287769   3.528   6.580   1.299 -2.2826 -0.4288 -1.0185
28539SOL     OW87770   8.874   9.590   4.253  0.0314 -0.3642 -0.4968
28539SOL    HW187771   8.798   9.640   4.281  0.7439 -0.7256  2.4801
28539SOL    HW287772   8.840   9.501   4.238 -0.4026 -0.1363 -0.8751
28540SOL     OW87773   7.641   2.254   5.532  0.5472 -0.5362  0.0396
28540SOL    HW187774   7.719   2.206   5.502  1.1416  1.5129 -2.0123
28540SOL    HW287775   7.568   2.194   5.515  1.2871 -0.9524 -2.0587
28541SOL     OW87776   2.043   8.803   9.123  0.1780  0.1915 -0.0254
28541SOL    HW187777   2.071   8.894   9.129  1.5864 -0.1631 -0.6623
28541SOL    HW287778   2.125   8.753   9.119 -0.3298 -0.7583 -4.6093
28542SOL     OW87779   4.996   1.158   3.540  0.1696  0.2892  0.1533
28542SOL    HW187780   4.995   1.251   3.563  1.5366  0.5643 -0.8111
28542SOL    HW287781   5.040   1.116   3.614  0.4621  0.5529  0.1312
28543SOL     OW87782   0.629   7.487   4.632  0.8580 -0.3347 -0.0814
28543SOL    HW187783   0.552   7.536   4.603  0.1387 -1.0758  0.5446
28543SOL    HW287784   0.688   7.553   4.666  0.3256  0.1996 -0.1838
28544SOL     OW87785   9.386   0.978   7.989  0.3001 -0.1662 -0.1677
28544SOL    HW187786   9.316   0.943   7.934 -0.2963  0.5361  0.1139
28544SOL    HW287787   9.345   1.051   8.035  1.0635 -0.1171  0.4550
28545SOL     OW87788   2.433   7.360   4.557  0.1897  0.0638  0.2722
28545SOL    HW187789   2.357   7.347   4.501 -0.1558 -0.4436  0.8445
28545SOL    HW287790   2.486   7.281   4.547 -0.0206 -0.1604  0.8753
28546SOL     OW87791   2.897   7.117   1.343  0.3167 -0.3464 -0.2201
28546SOL    HW187792   2.812   7.073   1.338  0.1733  0.0339 -2.7927
28546SOL    HW287793   2.941   7.094   1.261  0.2688  3.9915 -1.7668
28547SOL     OW87794   4.013   5.074   8.435 -0.2875  0.4893 -0.2304
28547SOL    HW187795   4.049   5.049   8.350  1.1141 -1.2975  0.8200
28547SOL    HW287796   3.918   5.073   8.422 -0.0902  0.7273 -1.8835
28548SOL     OW87797   1.792   8.766   6.547 -0.6900  0.0180 -0.2217
28548SOL    HW187798   1.866   8.750   6.606  0.0460  1.1286 -0.8255
28548SOL    HW287799   1.824   8.739   6.461 -0.9111  0.6908 -0.5205
28549SOL     OW87800   6.576   5.990   7.277  0.2854 -0.9918  0.4415
28549SOL    HW187801   6.500   6.022   7.229  1.0138  1.0749  0.5801
28549SOL    HW287802   6.551   5.901   7.303 -1.7973 -0.6354 -0.0993
28550SOL     OW87803   3.552   1.356   1.953  0.3465  0.7817 -0.0475
28550SOL    HW187804   3.466   1.383   1.983  0.0742 -0.0372 -0.0551
28550SOL    HW287805   3.614   1.405   2.007 -0.1190  1.6359 -0.2860
28551SOL     OW87806   9.021   4.960   2.825  0.0608  0.3987  0.5337
28551SOL    HW187807   8.998   5.040   2.872  1.2734  0.3791  1.2056
28551SOL    HW287808   9.095   4.924   2.874  0.0087 -0.7432 -0.1888
28552SOL     OW87809   0.333   4.661   1.089  0.5889  0.0384 -0.0274
28552SOL    HW187810   0.385   4.596   1.043  0.6194 -0.7868  1.1455
28552SOL    HW287811   0.325   4.628   1.178 -2.9383 -0.4987 -0.4000
28553SOL     OW87812   5.156   8.109   6.136  0.5161 -0.2700  0.1980
28553SOL    HW187813   5.120   8.083   6.052  1.0575 -0.5705  0.0550
28553SOL    HW287814   5.150   8.031   6.190 -1.2759  0.3375  0.9556
28554SOL     OW87815   4.831   6.055   9.066  0.0843 -0.0416 -0.2052
28554SOL    HW187816   4.744   6.074   9.031 -0.0152 -3.0270 -1.9507
28554SOL    HW287817   4.889   6.117   9.022 -0.7992 -0.0127 -1.3844
28555SOL     OW87818   2.592   4.131   9.471 -0.0316  0.3310 -0.3704
28555SOL    HW187819   2.545   4.110   9.390 -0.0329 -0.2840 -0.2177
28555SOL    HW287820   2.671   4.076   9.467 -0.0750  0.2340  0.0848
28556SOL     OW87821   5.787   2.653   7.353 -0.4951 -0.6375 -0.3851
28556SOL    HW187822   5.717   2.666   7.288 -0.0842  0.9569 -0.5534
28556SOL    HW287823   5.745   2.604   7.424 -1.5088 -0.6136 -0.9452
28557SOL     OW87824   4.051   4.125   7.567  0.3747  0.2560 -0.6226
28557SOL    HW187825   4.033   4.216   7.590 -1.9863  0.0001 -1.1720
28557SOL    HW287826   4.145   4.121   7.553  1.1127  1.7478  3.0095
28558SOL     OW87827   2.767   9.579   4.654  0.0815  0.9026  0.6827
28558SOL    HW187828   2.748   9.648   4.717 -0.9422  3.5682 -2.3020
28558SOL    HW287829   2.859   9.556   4.670  0.7143  3.5587  1.2832
28559SOL     OW87830   6.172   2.750   9.261 -0.5072  0.1010  0.3685
28559SOL    HW187831   6.157   2.744   9.167  0.7734 -0.9237  0.1997
28559SOL    HW287832   6.266   2.766   9.270 -0.7169  0.8218  1.4665
28560SOL     OW87833   0.733   3.985   3.474  0.0243  0.2445 -0.5391
28560SOL    HW187834   0.792   3.956   3.543  0.7522  2.4261 -0.1479
28560SOL    HW287835   0.704   3.905   3.432  2.3622 -1.0006  0.0173
28561SOL     OW87836   3.926   0.188   1.332 -0.0832  0.1182  0.3938
28561SOL    HW187837   3.895   0.225   1.250 -1.2306 -0.7952  0.3941
28561SOL    HW287838   3.885   0.101   1.337  0.8804 -0.3066  1.3784
28562SOL     OW87839   6.454   0.596   8.464 -0.0074 -0.0108  0.4156
28562SOL    HW187840   6.367   0.608   8.425 -1.6226 -0.8886  3.4577
28562SOL    HW287841   6.477   0.506   8.443 -0.2620 -0.0796  0.4228
28563SOL     OW87842   2.153   5.445   1.109  0.6930 -0.5897 -0.0402
28563SOL    HW187843   2.186   5.454   1.199 -0.2621  0.3299  0.2451
28563SOL    HW287844   2.207   5.376   1.070  1.9084 -0.1948  0.8713
28564SOL     OW87845   2.184   8.584   2.980  0.0833 -0.3054 -0.3079
28564SOL    HW187846   2.162   8.530   3.057 -1.3695  0.4477 -0.1459
28564SOL    HW287847   2.182   8.674   3.013 -3.8074  0.3409 -1.7764
28565SOL     OW87848   3.903   6.090   7.030 -0.2975 -0.2677  0.1978
28565SOL    HW187849   3.970   6.153   7.056  0.1683 -0.4461 -0.5566
28565SOL    HW287850   3.931   6.008   7.071  1.4192 -0.9865 -2.2176
28566SOL     OW87851   0.211   2.387   1.930  0.1418  0.1561 -0.0054
28566SOL    HW187852   0.271   2.314   1.945 -2.8912 -2.0774  2.9078
28566SOL    HW287853   0.155   2.357   1.858 -0.7493 -0.2922  0.8288
28567SOL     OW87854   6.499   3.953   8.449  0.2622 -0.0953  0.0818
28567SOL    HW187855   6.525   3.987   8.363  1.3592  0.6276  0.6749
28567SOL    HW287856   6.462   4.029   8.494  0.4896 -0.2642  0.5547
28568SOL     OW87857   6.719   4.209   2.927 -0.3630 -0.5000 -0.1729
28568SOL    HW187858   6.753   4.228   3.014  1.3514  0.8322 -1.0626
28568SOL    HW287859   6.781   4.145   2.891 -0.7778 -0.6737 -0.5811
28569SOL     OW87860   0.826   7.106   2.718 -0.1812 -0.7319  0.5854
28569SOL    HW187861   0.758   7.140   2.776  0.2942 -0.3677  0.9343
28569SOL    HW287862   0.855   7.181   2.668  0.2762 -0.7880  0.7574
28570SOL     OW87863   1.621   5.539   0.280 -0.3498  0.0550 -0.2790
28570SOL    HW187864   1.673   5.498   0.350  0.2487  0.8622 -0.2393
28570SOL    HW287865   1.546   5.576   0.326  0.8036  1.9291  0.2134
28571SOL     OW87866   0.908   3.737   7.411 -0.0734  0.2647 -0.1630
28571SOL    HW187867   0.819   3.709   7.431 -0.9157  1.6410 -1.8470
28571SOL    HW287868   0.920   3.818   7.461 -0.1956  0.7278 -0.8853
28572SOL     OW87869   2.947   5.828   4.417  0.0042 -0.0445 -0.3918
28572SOL    HW187870   2.892   5.770   4.469  0.4095  1.2378  1.5693
28572SOL    HW287871   3.034   5.821   4.456  0.6520 -0.0438 -1.7622
28573SOL     OW87872   3.211   6.312   9.280 -0.5213 -0.1820 -0.2061
28573SOL    HW187873   3.260   6.386   9.246 -1.1119  1.6294  2.5331
28573SOL    HW287874   3.124   6.320   9.241 -1.1029  1.6727  1.3094
28574SOL     OW87875   2.572   2.679   1.753  0.2086  0.4011 -0.4383
28574SOL    HW187876   2.591   2.757   1.804  0.6337  1.7415 -2.5266
28574SOL    HW287877   2.616   2.694   1.669 -0.0724 -1.8851 -1.0648
28575SOL     OW87878   3.835   8.798   8.851 -0.3959  0.0065  0.0158
28575SOL    HW187879   3.870   8.820   8.764  1.0078  1.5817  0.8976
28575SOL    HW287880   3.890   8.726   8.881 -1.5018 -1.1893 -0.7435
28576SOL     OW87881   1.388   7.194   1.504  0.1270  0.1710  0.3763
28576SOL    HW187882   1.464   7.159   1.457 -0.2744  0.8220 -0.8017
28576SOL    HW287883   1.424   7.264   1.558  0.3899  0.4466 -0.1400
28577SOL     OW87884   7.164   0.827   9.308 -0.2770 -0.5786  0.0538
28577SOL    HW187885   7.149   0.764   9.238  2.0765 -0.4782 -0.6466
28577SOL    HW287886   7.231   0.886   9.273  2.2131 -1.4903  2.8840
28578SOL     OW87887   3.330   5.878   0.560 -0.2891  0.0179 -0.0027
28578SOL    HW187888   3.249   5.894   0.609 -0.0011 -1.0519  0.8612
28578SOL    HW287889   3.367   5.966   0.547 -1.6721  0.5430 -0.6074
28579SOL     OW87890   5.285   7.365   8.769  0.4471  0.2787  0.6267
28579SOL    HW187891   5.252   7.434   8.825  0.2755  0.2405  0.5732
28579SOL    HW287892   5.339   7.310   8.827 -0.7002 -0.4475  1.0315
28580SOL     OW87893   9.148   4.402   1.088  0.5333  0.1265  0.3647
28580SOL    HW187894   9.171   4.491   1.064 -0.7471  0.6034  0.8046
28580SOL    HW287895   9.186   4.389   1.175 -0.1564  0.6179  0.7441
28581SOL     OW87896   7.126   4.602   0.724 -0.2105 -0.5093 -0.0821
28581SOL    HW187897   7.049   4.565   0.681  0.0758 -2.0590  0.6813
28581SOL    HW287898   7.102   4.608   0.816 -0.3498  1.5675 -0.2128
28582SOL     OW87899   8.781   9.431   4.808  0.1723  0.2708  0.2869
28582SOL    HW187900   8.802   9.406   4.718 -0.8873  0.1384  0.0739
28582SOL    HW287901   8.687   9.417   4.816  0.4946 -1.2911  1.9168
28583SOL     OW87902   8.977   3.188   9.297  0.0413 -0.0753 -0.0154
28583SOL    HW187903   8.882   3.187   9.281 -0.2600 -1.2575  1.5537
28583SOL    HW287904   9.016   3.170   9.211 -1.2898 -2.5126 -0.2036
28584SOL     OW87905   6.038   5.902   2.590  0.0827  0.5316  0.1013
28584SOL    HW187906   6.065   5.834   2.653 -0.5489 -0.7781 -0.9817
28584SOL    HW287907   6.088   5.882   2.511 -0.0624  1.3791 -0.2124
28585SOL     OW87908   4.090   3.915   4.390  0.0903 -1.0138 -0.0594
28585SOL    HW187909   4.104   3.820   4.394  1.2423 -0.8637 -0.3091
28585SOL    HW287910   4.156   3.946   4.328 -0.2769 -0.0438  0.0305
28586SOL     OW87911   7.657   4.689   9.388 -0.1906 -0.5090  0.4668
28586SOL    HW187912   7.729   4.724   9.440  1.3162  2.5189 -3.1859
28586SOL    HW287913   7.578   4.724   9.430  0.9004  1.3836  1.0828
28587SOL     OW87914   9.262   8.443   1.717  0.1906 -0.1527  0.2268
28587SOL    HW187915   9.189   8.443   1.779  1.0324 -0.5349  1.2465
28587SOL    HW287916   9.268   8.353   1.686 -1.5812  0.4264 -2.1257
28588SOL     OW87917   2.096   5.449   6.925 -0.0327 -0.1300 -0.3527
28588SOL    HW187918   2.043   5.437   6.846  0.6445 -2.1641 -0.5415
28588SOL    HW287919   2.185   5.427   6.898  0.4263  0.3775  0.6874
28589SOL     OW87920   5.027   2.789   3.356 -0.4519  0.0092  0.1891
28589SOL    HW187921   4.950   2.760   3.405 -0.4120  1.0158  0.8705
28589SOL    HW287922   5.000   2.871   3.315 -0.7496 -1.2009 -2.1912
28590SOL     OW87923   2.486   3.284   1.288  0.1606 -0.6914 -0.2388
28590SOL    HW187924   2.530   3.363   1.317 -1.6556 -0.2318  1.4633
28590SOL    HW287925   2.516   3.216   1.348  0.5364 -0.9626 -0.7260
28591SOL     OW87926   2.316   1.486   3.391  0.4118 -0.4437 -0.3556
28591SOL    HW187927   2.338   1.498   3.299 -0.2653 -2.1355 -0.7731
28591SOL    HW287928   2.401   1.487   3.436  0.8826 -0.9744 -1.1862
28592SOL     OW87929   4.363   6.981   0.259  0.3275 -0.4717 -0.3622
28592SOL    HW187930   4.354   7.070   0.293 -1.5359 -0.6500 -0.2889
28592SOL    HW287931   4.400   6.931   0.332  1.3719  0.2052 -0.4005
28593SOL     OW87932   2.848   8.579   2.935 -0.8322  0.0673  0.1394
28593SOL    HW187933   2.897   8.506   2.897 -0.8503  0.3942 -0.5382
28593SOL    HW287934   2.776   8.537   2.981 -3.2940 -0.3308 -3.6163
28594SOL     OW87935   8.280   3.730   8.932  0.1066  0.4337 -0.6428
28594SOL    HW187936   8.193   3.695   8.952 -0.8471  0.3735 -4.1339
28594SOL    HW287937   8.329   3.655   8.898  2.5093 -0.0900  3.3560
28595SOL     OW87938   0.939   2.138   0.038  0.4495  0.1450 -0.0561
28595SOL    HW187939   0.929   2.056   0.086  0.8721 -0.1169 -0.4125
28595SOL    HW287940   0.999   2.117  -0.034  2.2735  1.2474  1.0445
28596SOL     OW87941   7.971   4.865   6.143  0.5834 -0.3960  0.3215
28596SOL    HW187942   7.919   4.854   6.063  1.1765  0.4849 -0.1856
28596SOL    HW287943   7.955   4.784   6.192 -0.2288 -0.7050 -0.4218
28597SOL     OW87944   1.631   6.408   0.942  0.2437 -0.4676 -0.4891
28597SOL    HW187945   1.678   6.418   0.859 -0.2106 -0.2573 -0.7217
28597SOL    HW287946   1.545   6.448   0.926 -0.1074 -1.0766 -0.1467
28598SOL     OW87947   7.991   1.410   3.705  1.0925  1.2521  0.2641
28598SOL    HW187948   8.034   1.470   3.644  1.4798 -0.0147 -0.7372
28598SOL    HW287949   7.917   1.375   3.657  1.0133  0.7355  0.7447
28599SOL     OW87950   5.435   2.936   7.219 -0.1047 -0.1496  0.5335
28599SOL    HW187951   5.474   2.972   7.139 -0.7089 -0.4834  0.0770
28599SOL    HW287952   5.361   2.993   7.237  0.6678  0.5914  1.5025
28600SOL     OW87953   5.444   3.575   2.701  0.4535 -0.1156 -0.2971
28600SOL    HW187954   5.426   3.590   2.609  1.5509  0.1375 -0.4840
28600SOL    HW287955   5.427   3.481   2.713  0.6664 -0.2343 -0.8571
28601SOL     OW87956   9.540   7.526   1.385  0.1619 -0.1351 -0.1110
28601SOL    HW187957   9.480   7.480   1.443  1.3724 -0.8247  0.6572
28601SOL    HW287958   9.535   7.618   1.411 -0.1289 -0.2753  0.3229
28602SOL     OW87959   0.212   7.646   7.336 -0.0139 -0.4124  0.2658
28602SOL    HW187960   0.289   7.630   7.391 -0.2376  0.2092  0.7864
28602SOL    HW287961   0.158   7.707   7.388  0.7884  2.0013 -1.5170
28603SOL     OW87962   6.682   4.302   0.647 -0.0221 -0.7710  0.0239
28603SOL    HW187963   6.739   4.226   0.648  0.7789 -0.3017 -2.7284
28603SOL    HW287964   6.595   4.267   0.627  0.4632 -0.9521 -1.9110
28604SOL     OW87965   9.417   3.154   5.473 -0.1028  0.6093  0.5866
28604SOL    HW187966   9.351   3.179   5.409  0.5125 -0.4619 -0.5083
28604SOL    HW287967   9.377   3.173   5.558 -2.2391 -0.9703  0.0135
28605SOL     OW87968   2.506   1.124   9.276  0.4777  0.4753  0.4373
28605SOL    HW187969   2.579   1.068   9.300 -0.1690  0.0337  1.4336
28605SOL    HW287970   2.520   1.205   9.325  0.7956  0.7502 -0.1022
28606SOL     OW87971   4.149   3.057   6.010 -0.6680  0.1333  0.4169
28606SOL    HW187972   4.121   3.018   6.093 -2.2500  1.2593  0.4659
28606SOL    HW287973   4.127   3.150   6.018  0.4464  0.5200 -0.7362
28607SOL     OW87974   4.555   3.119   8.120  0.0737 -0.0323 -0.3423
28607SOL    HW187975   4.608   3.124   8.199  1.3301  0.8843 -1.1962
28607SOL    HW287976   4.488   3.054   8.139  1.0185 -0.6255  1.0698
28608SOL     OW87977   7.606   6.473   1.177 -0.0540  0.1678 -0.2677
28608SOL    HW187978   7.556   6.393   1.161 -0.7190  0.5069  0.1034
28608SOL    HW287979   7.674   6.446   1.239 -0.7249  0.0478  0.4282
28609SOL     OW87980   8.739   8.981   6.050 -0.2084 -0.3312  0.3286
28609SOL    HW187981   8.765   8.949   6.136 -1.9030 -1.3234  0.5132
28609SOL    HW287982   8.736   9.076   6.059  0.2402 -0.3912  1.1677
28610SOL     OW87983   9.590   8.283   4.313 -0.1750  0.6873  0.6638
28610SOL    HW187984   9.541   8.201   4.317 -0.6299  0.9346  0.3007
28610SOL    HW287985   9.675   8.262   4.350 -0.7637  0.4147  1.9130
28611SOL     OW87986   6.079   9.231   3.765  0.0744 -0.2758 -0.4482
28611SOL    HW187987   6.011   9.268   3.708  0.8985  0.3487 -1.0623
28611SOL    HW287988   6.087   9.295   3.836  1.2434  0.5996 -1.3187
28612SOL     OW87989   5.378   8.308   2.384 -0.0450 -0.3943  0.7046
28612SOL    HW187990   5.359   8.218   2.413  0.6506 -0.9953 -0.6498
28612SOL    HW287991   5.324   8.362   2.441 -2.0863 -1.7735  0.2027
28613SOL     OW87992   7.715   1.781   3.930  0.3750  0.1677 -0.0459
28613SOL    HW187993   7.713   1.692   3.895  0.0913 -0.0679  0.5635
28613SOL    HW287994   7.806   1.809   3.921  0.5884 -0.4072  0.3294
28614SOL     OW87995   7.842   2.850   9.262  0.0654  0.5546  0.0094
28614SOL    HW187996   7.785   2.923   9.288 -0.0581 -0.1421  1.7833
28614SOL    HW287997   7.802   2.773   9.302  0.5141 -0.4311 -1.3709
28615SOL     OW87998   4.562   7.581   8.952 -0.6168  0.6589 -0.6491
28615SOL    HW187999   4.612   7.503   8.928  0.9770  1.3345  0.3430
28615SOL    HW288000   4.533   7.618   8.868  1.4117  0.7849 -1.3518
28616SOL     OW88001   8.327   9.440   4.906  0.3582  0.2073 -0.6173
28616SOL    HW188002   8.317   9.359   4.955 -0.7383 -0.9337 -2.5955
28616SOL    HW288003   8.238   9.462   4.878  0.5119  2.5633  0.5414
28617SOL     OW88004   8.122   1.109   9.165  0.3812 -0.2247  0.3594
28617SOL    HW188005   8.209   1.125   9.128  1.1639  0.2847  2.2761
28617SOL    HW288006   8.075   1.192   9.153  0.0897 -0.5299 -0.7621
28618SOL     OW88007   7.239   3.310   3.904  0.2907  0.4439 -0.4626
28618SOL    HW188008   7.312   3.300   3.843 -0.5183 -0.0302 -1.3875
28618SOL    HW288009   7.168   3.257   3.865 -0.0067 -0.5271  1.2875
28619SOL     OW88010   4.176   5.991   4.289  0.5205 -0.1473  0.2766
28619SOL    HW188011   4.260   5.970   4.249  1.2260  0.5369  1.3452
28619SOL    HW288012   4.141   5.906   4.317  0.1480 -0.6094 -1.4333
28620SOL     OW88013   8.048   1.451   6.871 -0.2464 -0.0322 -0.1183
28620SOL    HW188014   8.002   1.490   6.945 -0.3918  0.3292 -0.3976
28620SOL    HW288015   8.109   1.389   6.912 -1.3033 -0.8806  0.2318
28621SOL     OW88016   2.438   8.002   3.412  0.4800  0.0286 -0.1005
28621SOL    HW188017   2.401   7.936   3.354 -0.0951  0.5222 -0.3039
28621SOL    HW288018   2.459   8.075   3.354 -0.9427  0.8866  0.4124
28622SOL     OW88019   1.704   1.921   1.213  0.4055 -0.3122  0.2278
28622SOL    HW188020   1.621   1.900   1.256  0.6336 -1.5216  0.1117
28622SOL    HW288021   1.712   2.016   1.221 -2.7912  0.4517 -3.0262
28623SOL     OW88022   1.361   5.724   5.111 -0.2265  0.5660 -0.3974
28623SOL    HW188023   1.455   5.720   5.091 -0.3564 -0.8858 -0.8185
28623SOL    HW288024   1.345   5.646   5.163 -1.2244  0.7478 -0.4242
28624SOL     OW88025   7.809   5.116   0.813  0.0835 -0.1654 -0.1960
28624SOL    HW188026   7.826   5.141   0.904  0.0197  0.7651 -0.4295
28624SOL    HW288027   7.876   5.050   0.794  1.9685  1.6878 -0.3447
28625SOL     OW88028   3.240   6.787   3.992 -0.1729  0.3111  0.1770
28625SOL    HW188029   3.213   6.821   3.907 -0.8058  0.7924  0.5647
28625SOL    HW288030   3.331   6.759   3.978 -0.1292  0.7683 -0.5433
28626SOL     OW88031   7.290   1.667   8.699  0.2353 -0.0310  0.4759
28626SOL    HW188032   7.273   1.760   8.714 -1.7038 -0.1400 -0.7353
28626SOL    HW288033   7.210   1.623   8.725  0.9433 -1.3349  0.5456
28627SOL     OW88034   9.143   4.180   3.921  0.1926 -0.4200  0.0305
28627SOL    HW188035   9.071   4.210   3.977 -0.7155 -2.5674  0.0837
28627SOL    HW288036   9.181   4.261   3.886 -1.1753  0.8371  1.3073
28628SOL     OW88037   5.925   7.159   2.225  0.0338 -0.3971 -0.5288
28628SOL    HW188038   6.011   7.122   2.245  0.0226  0.0779  0.4627
28628SOL    HW288039   5.919   7.154   2.130  1.3088 -0.1140 -0.6502
28629SOL     OW88040   6.051   5.772   5.444 -0.0767  0.3903  0.0423
28629SOL    HW188041   6.143   5.755   5.466  1.5505  3.1953 -3.6061
28629SOL    HW288042   6.012   5.805   5.525  2.6050  0.7916  1.2620
28630SOL     OW88043   9.213   4.886   7.136  0.1711 -0.5865  0.4267
28630SOL    HW188044   9.214   4.930   7.221 -1.4811 -0.3114  0.3359
28630SOL    HW288045   9.297   4.840   7.132  0.9516  0.6605  1.5190
28631SOL     OW88046   4.214   8.514   4.444 -0.2671  0.4579  0.6073
28631SOL    HW188047   4.128   8.485   4.414 -0.8090  1.3353  1.2438
28631SOL    HW288048   4.275   8.454   4.404 -1.1252  0.2582 -0.4489
28632SOL     OW88049   4.034   6.928   3.423  0.5884  0.2036 -0.1236
28632SOL    HW188050   4.008   7.001   3.367 -3.1921 -0.4669  0.4596
28632SOL    HW288051   4.056   6.969   3.506  0.0617  0.8175 -0.2704
28633SOL     OW88052   1.949   8.660   4.678 -0.5864  0.6538  0.4745
28633SOL    HW188053   1.902   8.726   4.729  0.7887  1.6357  0.5142
28633SOL    HW288054   2.027   8.640   4.730 -0.4347 -0.2042 -0.0585
28634SOL     OW88055   9.321   6.168   5.241 -0.1161  0.3893  0.3212
28634SOL    HW188056   9.283   6.080   5.232  0.5604  0.0445  0.7767
28634SOL    HW288057   9.377   6.178   5.165 -0.4884  0.5888  0.0658
28635SOL     OW88058   6.259   7.565   8.882 -0.2982  0.5958 -0.0795
28635SOL    HW188059   6.287   7.517   8.803 -0.0731  1.5772 -0.6077
28635SOL    HW288060   6.184   7.616   8.854 -1.2094 -0.2470  0.7614
28636SOL     OW88061   8.169   4.065   6.489  0.3628 -0.0810  0.3674
28636SOL    HW188062   8.179   4.054   6.584  2.5436  1.1007  0.3280
28636SOL    HW288063   8.234   4.007   6.451 -0.7762 -0.8523 -0.4723
28637SOL     OW88064   4.467   7.038   3.169 -0.2578  0.1918 -0.3090
28637SOL    HW188065   4.475   6.961   3.113 -0.6026 -2.0562  2.5185
28637SOL    HW288066   4.375   7.063   3.164  0.3298  2.2746 -3.3318
28638SOL     OW88067   4.046   4.291   8.968  0.1251  0.8603 -0.2514
28638SOL    HW188068   3.990   4.368   8.972 -0.0248  0.7102  1.4618
28638SOL    HW288069   4.003   4.233   8.905  0.5511  2.3599 -2.0076
28639SOL     OW88070   1.900   2.397   5.139  0.2681  0.1636 -0.3091
28639SOL    HW188071   1.943   2.340   5.075  0.4889  0.4988 -0.4600
28639SOL    HW288072   1.848   2.337   5.193  0.1306 -0.1294 -0.7579
28640SOL     OW88073   0.531   6.633   8.365 -0.2994  0.5946  0.4715
28640SOL    HW188074   0.516   6.545   8.332  2.6141 -0.5859  1.9705
28640SOL    HW288075   0.593   6.672   8.303  0.0830  0.7869  0.9679
28641SOL     OW88076   0.277   5.878   5.363  0.2875  0.2796 -0.7763
28641SOL    HW188077   0.320   5.851   5.444 -0.6450  2.0211  0.3824
28641SOL    HW288078   0.192   5.834   5.365  0.1483  0.5504 -0.6451
28642SOL     OW88079   4.376   4.630   3.365 -0.0452 -0.9796 -0.2383
28642SOL    HW188080   4.367   4.540   3.333 -0.2927 -1.8013  1.9614
28642SOL    HW288081   4.293   4.672   3.344  0.6398 -0.7105 -2.7134
28643SOL     OW88082   9.610   3.008   7.251  0.2107 -0.3061 -0.2068
28643SOL    HW188083   9.523   3.017   7.290 -0.1946 -0.1365 -1.1205
28643SOL    HW288084   9.593   3.004   7.157  1.2603  0.6006 -0.4404
28644SOL     OW88085   5.028   6.352   8.503 -0.5545  0.1444 -0.2131
28644SOL    HW188086   4.983   6.431   8.531 -1.6895 -1.3146  2.4384
28644SOL    HW288087   4.975   6.318   8.430 -1.6664  0.3822  0.4708
28645SOL     OW88088   8.278   2.900   1.336  0.7314  0.5763 -0.2595
28645SOL    HW188089   8.334   2.856   1.400 -0.1681 -1.0393 -0.5202
28645SOL    HW288090   8.337   2.922   1.264  1.1222 -0.7984 -0.3879
28646SOL     OW88091   6.676   9.136   1.831 -0.1249  0.8817  0.1934
28646SOL    HW188092   6.653   9.046   1.809  1.6988  0.3069  0.4397
28646SOL    HW288093   6.613   9.163   1.897  0.5313 -0.9565  1.6313
28647SOL     OW88094   8.107   5.476   1.303 -0.1123  0.3890 -0.2482
28647SOL    HW188095   8.045   5.548   1.316  1.3046  1.6363 -0.1033
28647SOL    HW288096   8.081   5.436   1.220 -0.5628  1.4678 -0.6415
28648SOL     OW88097   6.812   3.586   6.458 -0.4016 -0.3115  0.2289
28648SOL    HW188098   6.835   3.496   6.483  0.4162 -0.6835 -1.7065
28648SOL    HW288099   6.889   3.619   6.412 -1.6018  0.4814 -1.3084
28649SOL     OW88100   9.474   5.284   7.795  0.0399  0.2406  0.0858
28649SOL    HW188101   9.416   5.218   7.833  1.1612 -1.3645 -0.8703
28649SOL    HW288102   9.424   5.322   7.724 -0.6670  0.5384  0.7295
28650SOL     OW88103   0.506   3.487   6.938 -0.0973  0.4082  0.4569
28650SOL    HW188104   0.455   3.538   6.875 -0.4895 -0.5149  0.0161
28650SOL    HW288105   0.442   3.432   6.983  0.6098 -2.1337 -1.3701
28651SOL     OW88106   8.492   3.525   2.024  0.3859 -0.2321  0.3746
28651SOL    HW188107   8.486   3.513   2.119 -1.6439 -1.3415  0.1662
28651SOL    HW288108   8.409   3.567   2.000  2.1423  3.0354 -0.5778
28652SOL     OW88109   8.085   5.443   5.710 -0.1352 -0.1423 -0.0966
28652SOL    HW188110   8.050   5.416   5.795  1.2211 -2.5113 -0.2222
28652SOL    HW288111   8.175   5.471   5.729 -0.4945  1.4009 -0.4843
28653SOL     OW88112   5.512   2.728   8.857  0.0541  0.8867 -0.1926
28653SOL    HW188113   5.481   2.642   8.883 -0.4314  1.1247  0.0180
28653SOL    HW288114   5.592   2.742   8.909 -1.1216  1.5380  1.5058
28654SOL     OW88115   2.536   1.177   6.605  0.4196 -1.1242 -0.3146
28654SOL    HW188116   2.506   1.179   6.696  0.7023  0.0697 -0.2399
28654SOL    HW288117   2.456   1.191   6.553  0.4844 -0.2417 -0.1895
28655SOL     OW88118   3.561   8.189   8.690  0.0135  0.1135 -0.2818
28655SOL    HW188119   3.537   8.273   8.729 -0.9254  0.0015 -0.5998
28655SOL    HW288120   3.502   8.180   8.615  0.1227 -0.8256 -0.2619
28656SOL     OW88121   6.410   0.578   2.897 -0.1047 -0.5197 -0.1836
28656SOL    HW188122   6.389   0.664   2.935 -0.3197 -1.0592  0.9539
28656SOL    HW288123   6.505   0.571   2.906 -0.0577 -0.3184 -0.4849
28657SOL     OW88124   3.101   4.317   1.906  0.0861  0.1638 -0.8092
28657SOL    HW188125   3.136   4.228   1.907  0.6810  0.3915 -0.2669
28657SOL    HW288126   3.107   4.344   1.815  3.2160  0.8933 -0.5000
28658SOL     OW88127   1.443   5.634   7.192  0.1277  0.6597 -0.0285
28658SOL    HW188128   1.352   5.635   7.162  0.2753  2.3165 -0.5166
28658SOL    HW288129   1.437   5.624   7.287 -0.5579  0.5572 -0.0777
28659SOL     OW88130   8.006   3.559   1.684  0.5742 -0.2657 -0.1778
28659SOL    HW188131   8.064   3.629   1.714 -2.2180  1.4739  1.5351
28659SOL    HW288132   8.001   3.499   1.758 -0.8213  0.3051  0.2092
28660SOL     OW88133   4.262   2.809   6.252  0.2274 -0.6885  0.0434
28660SOL    HW188134   4.352   2.811   6.283  0.5649  0.1482 -0.9183
28660SOL    HW288135   4.265   2.757   6.172 -0.1659 -0.7718  0.0815
28661SOL     OW88136   1.707   6.693   6.142  0.1821  0.3216  0.3138
28661SOL    HW188137   1.769   6.639   6.191 -0.5563  0.3434  1.3160
28661SOL    HW288138   1.651   6.630   6.097 -0.3471  0.2285  1.0653
28662SOL     OW88139   2.474   3.298   7.601 -0.0310  0.0782 -0.2887
28662SOL    HW188140   2.532   3.322   7.528 -0.2782 -0.3867 -0.6490
28662SOL    HW288141   2.399   3.356   7.591 -0.7751 -1.0195 -1.3513
28663SOL     OW88142   7.856   0.173   1.654 -0.4533 -0.2050  0.3940
28663SOL    HW188143   7.911   0.111   1.701 -1.4521 -0.9386  0.6504
28663SOL    HW288144   7.770   0.164   1.696 -0.5979  1.4558  0.5212
28664SOL     OW88145   1.149   6.407   5.740  0.2235 -0.1536 -0.2351
28664SOL    HW188146   1.082   6.400   5.672 -0.2484  0.7126  0.1211
28664SOL    HW288147   1.104   6.381   5.821  0.2509  0.6219  0.0352
28665SOL     OW88148   3.770   4.554   1.476  0.0091  0.6688  0.0327
28665SOL    HW188149   3.799   4.568   1.386 -0.4193  0.4945 -0.1369
28665SOL    HW288150   3.677   4.532   1.467  0.4260 -1.4037  0.3484
28666SOL     OW88151   5.120   2.716   2.318  0.2822 -0.7535 -0.1692
28666SOL    HW188152   5.138   2.753   2.405 -0.5379  0.7018 -0.5758
28666SOL    HW288153   5.150   2.626   2.324  1.1165 -0.4261  1.3330
28667SOL     OW88154   6.369   5.802   8.537  0.4484  0.3464 -0.1023
28667SOL    HW188155   6.426   5.846   8.600 -0.3435 -0.0861  0.9491
28667SOL    HW288156   6.283   5.842   8.550 -0.2074 -1.1957  0.6267
28668SOL     OW88157   9.617   0.181   1.499  0.0308  0.2359  0.0193
28668SOL    HW188158   9.586   0.143   1.581  1.5957  0.5862  0.8049
28668SOL    HW288159   9.650   0.267   1.523 -0.3092  0.7166 -1.1543
28669SOL     OW88160   1.833   4.542   8.273 -0.3918 -0.1436  0.0869
28669SOL    HW188161   1.856   4.469   8.330 -0.0076  0.6185  0.9410
28669SOL    HW288162   1.781   4.503   8.203 -0.7386 -1.1375  0.8687
28670SOL     OW88163   4.651   6.079   7.561 -0.1911 -0.3256  0.0642
28670SOL    HW188164   4.615   6.008   7.508 -1.5238  0.7113 -0.4842
28670SOL    HW288165   4.580   6.142   7.568  0.8864  0.8696  0.6964
28671SOL     OW88166   5.839   8.058   1.216  0.0397  0.3469  0.0382
28671SOL    HW188167   5.834   8.140   1.168  2.3206  0.6799  0.2337
28671SOL    HW288168   5.852   8.084   1.308 -1.3607 -0.2747  0.4476
28672SOL     OW88169   6.044   0.654   8.749 -0.2712  0.3897  0.5135
28672SOL    HW188170   6.040   0.657   8.845  2.5318 -0.0926  0.7644
28672SOL    HW288171   6.138   0.653   8.730 -0.7446  1.0408 -2.2931
28673SOL     OW88172   6.869   9.558   6.119 -0.0262 -0.4379  0.0967
28673SOL    HW188173   6.866   9.475   6.165  0.6812 -0.0831  0.8174
28673SOL    HW288174   6.850   9.536   6.028  0.6544 -1.4532  0.1883
28674SOL     OW88175   6.093   6.541   2.566  0.0749  0.4046 -0.3512
28674SOL    HW188176   6.011   6.568   2.608  0.2210  0.9885 -0.4316
28674SOL    HW288177   6.161   6.578   2.622  0.2771  0.7523 -0.8268
28675SOL     OW88178   4.210   3.298   0.438  0.3400 -0.0138 -0.2943
28675SOL    HW188179   4.301   3.286   0.463  0.4664 -1.9672 -1.5098
28675SOL    HW288180   4.171   3.211   0.444 -1.6863  0.8816  0.9376
28676SOL     OW88181   5.780   4.632   7.015  0.1889 -0.0585  0.1358
28676SOL    HW188182   5.798   4.565   6.949 -0.5550 -0.3394  0.2029
28676SOL    HW288183   5.746   4.706   6.965  0.8795  0.2297  0.0764
28677SOL     OW88184   7.503   2.488   5.701 -0.0534  0.0205 -0.5508
28677SOL    HW188185   7.558   2.436   5.643  0.4805 -0.0976  0.0441
28677SOL    HW288186   7.435   2.427   5.731  0.7537 -0.4529  0.3938
28678SOL     OW88187   7.502   3.942   0.624 -0.6628 -0.1781 -0.0487
28678SOL    HW188188   7.436   3.956   0.557  1.2041  2.4711 -1.5639
28678SOL    HW288189   7.459   3.968   0.706 -1.4566  1.9515 -1.0524
28679SOL     OW88190   1.305   1.935   9.406  0.1388  0.6417  1.0184
28679SOL    HW188191   1.374   1.892   9.355 -0.7549 -1.6556  1.6276
28679SOL    HW288192   1.352   1.990   9.468  1.3827  0.0755  0.6110
28680SOL     OW88193   3.346   8.000   0.161  0.1487 -0.3021 -0.1698
28680SOL    HW188194   3.401   7.981   0.085  1.4916  0.5469  0.5471
28680SOL    HW288195   3.259   8.013   0.125  0.5427 -0.9675 -1.4294
28681SOL     OW88196   3.301   7.884   8.693  0.1637  0.3955 -0.1276
28681SOL    HW188197   3.393   7.890   8.719 -0.9401  1.7619  4.1232
28681SOL    HW288198   3.273   7.798   8.724 -0.6249  1.0853  1.1142
28682SOL     OW88199   4.720   1.012   8.601  0.0024 -0.3919  0.0528
28682SOL    HW188200   4.777   0.972   8.534 -0.2028 -0.6439  0.0288
28682SOL    HW288201   4.633   0.976   8.583 -0.6550  1.7608 -1.3623
28683SOL     OW88202   7.214   3.099   5.441  0.8166  0.4678 -0.1385
28683SOL    HW188203   7.162   3.042   5.499  1.3011 -0.5569 -0.6774
28683SOL    HW288204   7.186   3.076   5.353 -2.0297  4.0343 -0.3965
28684SOL     OW88205   4.886   4.514   1.972  0.1119  0.0343 -0.3747
28684SOL    HW188206   4.979   4.497   1.984 -0.4083 -2.4228  0.9936
28684SOL    HW288207   4.854   4.537   2.059 -0.5522  0.9341 -0.8440
28685SOL     OW88208   2.680   3.401   3.116  0.0273  0.7860 -0.2911
28685SOL    HW188209   2.758   3.344   3.115  0.1678  0.8240  1.9529
28685SOL    HW288210   2.716   3.489   3.123 -0.1945  0.8286  0.3762
28686SOL     OW88211   1.727   0.647   3.479 -0.7708  0.8993  0.3551
28686SOL    HW188212   1.646   0.630   3.528 -0.7253  1.4367  0.6279
28686SOL    HW288213   1.718   0.595   3.399 -1.3475  0.8806  0.4248
28687SOL     OW88214   6.939   8.472   0.349 -0.2317  0.1781 -0.2300
28687SOL    HW188215   6.900   8.405   0.406 -0.9402  0.3418 -0.5140
28687SOL    HW288216   6.895   8.460   0.265  0.2971  0.4102 -0.5419
28688SOL     OW88217   6.881   4.975   1.496 -0.4627  0.0639 -0.1856
28688SOL    HW188218   6.904   4.888   1.529 -0.4803  0.5947  1.3103
28688SOL    HW288219   6.861   5.026   1.575  0.2360  1.6293 -0.9731
28689SOL     OW88220   0.766   6.408   8.934  0.0287  0.2892 -0.0595
28689SOL    HW188221   0.710   6.344   8.978 -0.0008  1.0078  0.9698
28689SOL    HW288222   0.760   6.486   8.988  3.0986  0.0024  0.8649
28690SOL     OW88223   5.281   0.131   8.320 -0.0051  0.2233  0.5323
28690SOL    HW188224   5.337   0.192   8.272  1.0392  0.1995  1.6825
28690SOL    HW288225   5.340   0.062   8.348 -1.1871 -1.4506 -0.8684
28691SOL     OW88226   6.815   5.082   6.153  0.5939  0.6925  0.3570
28691SOL    HW188227   6.729   5.048   6.177 -0.2951  2.9593  0.6105
28691SOL    HW288228   6.800   5.139   6.078  1.6876  1.8925  0.9939
28692SOL     OW88229   0.847   7.730   2.306  0.4098 -0.4033 -0.4963
28692SOL    HW188230   0.940   7.711   2.315  0.6328  1.1947  1.0200
28692SOL    HW288231   0.803   7.658   2.352  0.9791 -0.1451  0.4590
28693SOL     OW88232   0.059   4.158   9.019  0.6407  0.4382 -0.0552
28693SOL    HW188233   0.051   4.140   9.113  2.0240 -1.1788 -0.1873
28693SOL    HW288234  -0.012   4.108   8.979 -1.3258  2.8582  0.2281
28694SOL     OW88235   7.425   0.203   1.325  0.1372 -0.0524 -0.5079
28694SOL    HW188236   7.460   0.124   1.366 -0.7026 -0.4791 -0.5715
28694SOL    HW288237   7.330   0.190   1.327 -0.0306  1.1326 -0.1813
28695SOL     OW88238   3.673   2.552   2.582  0.0298  0.4490  0.3410
28695SOL    HW188239   3.676   2.637   2.538 -1.7849  0.1690 -0.4381
28695SOL    HW288240   3.585   2.518   2.562  1.1430 -2.2125 -0.4708
28696SOL     OW88241   7.121   8.018   1.064  0.1112  0.2578 -0.9887
28696SOL    HW188242   7.105   7.963   0.988  0.4969  1.0685 -1.6701
28696SOL    HW288243   7.210   8.051   1.052  0.7491 -0.7845  0.5849
28697SOL     OW88244   5.021   4.679   5.952 -0.5174 -0.2616  0.6533
28697SOL    HW188245   5.048   4.599   5.908 -1.1494 -1.0931  1.7136
28697SOL    HW288246   5.030   4.659   6.045 -0.1374  1.1101  0.9265
28698SOL     OW88247   7.763   4.920   7.902 -0.6765 -0.1926  0.5685
28698SOL    HW188248   7.754   4.978   7.977 -0.1103 -0.1147  0.5789
28698SOL    HW288249   7.680   4.872   7.899 -0.3588 -0.8485  1.7804
28699SOL     OW88250   8.011   6.634   5.480  0.1735 -0.4415 -0.1611
28699SOL    HW188251   8.009   6.589   5.565 -1.9193  0.7233  0.4682
28699SOL    HW288252   8.054   6.572   5.421  1.8757 -1.1999  1.7684
28700SOL     OW88253   2.174   5.283   4.293 -0.3704 -0.0848  0.2266
28700SOL    HW188254   2.167   5.368   4.336 -0.4605  0.0413 -0.0372
28700SOL    HW288255   2.251   5.292   4.237  0.7150 -0.7711  1.5494
28701SOL     OW88256   4.298   7.463   1.876 -0.0120  0.4685  0.0474
28701SOL    HW188257   4.272   7.404   1.947  1.1806  0.4568  0.4871
28701SOL    HW288258   4.382   7.429   1.846  0.6084  1.8169  0.1869
28702SOL     OW88259   6.072   7.814   0.889 -0.0747  0.0847  0.0841
28702SOL    HW188260   6.110   7.876   0.827  0.1316 -0.6010 -0.4943
28702SOL    HW288261   6.037   7.744   0.834  0.3692 -0.6824  0.7566
28703SOL     OW88262   2.949   3.891   8.759  0.4023 -0.0882 -0.1340
28703SOL    HW188263   3.028   3.945   8.751 -1.2666  2.4011 -1.3018
28703SOL    HW288264   2.903   3.927   8.835 -0.0192 -0.9561  0.0365
28704SOL     OW88265   3.333   0.070   6.740 -0.7183 -0.5126 -0.2397
28704SOL    HW188266   3.338   0.032   6.653 -2.0654 -0.6057 -0.2950
28704SOL    HW288267   3.364   0.161   6.729  1.3247 -1.1586 -0.3370
28705SOL     OW88268   9.309   2.109   6.346 -0.2916 -0.0693 -0.4431
28705SOL    HW188269   9.348   2.053   6.279  0.0658 -0.1877 -0.1401
28705SOL    HW288270   9.368   2.102   6.421 -0.6233  0.1550 -0.1557
28706SOL     OW88271   9.061   8.643   0.265  0.3238  0.6741  0.0463
28706SOL    HW188272   9.121   8.581   0.308  0.0938  0.2933 -0.1772
28706SOL    HW288273   9.089   8.643   0.173  0.3351  0.9192  0.0494
28707SOL     OW88274   5.040   2.847   8.001 -0.0314 -0.2931 -0.9861
28707SOL    HW188275   4.958   2.831   8.048 -1.8055  0.1201 -3.6956
28707SOL    HW288276   5.092   2.768   8.014 -0.8428 -0.5874  0.7535
28708SOL     OW88277   1.638   1.938   4.049  0.4636  0.8430  0.2652
28708SOL    HW188278   1.699   2.006   4.022  1.8862  0.2886  1.8621
28708SOL    HW288279   1.694   1.868   4.083 -1.0069 -0.5372 -0.0175
28709SOL     OW88280   1.022   9.547   3.025  0.1828  0.3839 -0.4166
28709SOL    HW188281   1.082   9.544   3.099  0.3287 -3.3013 -0.5403
28709SOL    HW288282   0.942   9.586   3.061  1.1992  1.4353  0.8178
28710SOL     OW88283   1.503   8.138   2.461 -0.2227  0.0233 -0.2044
28710SOL    HW188284   1.445   8.131   2.537 -1.1347  1.5940 -0.6995
28710SOL    HW288285   1.508   8.049   2.426 -2.9429 -0.0867 -0.5496
28711SOL     OW88286   2.055   6.732   5.084  0.4316  0.0169 -0.6498
28711SOL    HW188287   2.091   6.738   5.173  0.1311 -2.6937 -0.2549
28711SOL    HW288288   1.974   6.683   5.094  1.6432 -2.6512 -2.6289
28712SOL     OW88289   3.626   3.067   7.537  0.4603 -0.1234 -0.0400
28712SOL    HW188290   3.547   3.114   7.561  0.7650  0.0692  0.6033
28712SOL    HW288291   3.596   2.997   7.479 -0.3846 -1.0134  1.4063
28713SOL     OW88292   7.283   4.068   6.283 -0.4649 -0.0498 -0.3163
28713SOL    HW188293   7.219   4.012   6.327  1.0504  0.4105  2.7806
28713SOL    HW288294   7.266   4.155   6.318  1.8282  0.0604  0.7208
28714SOL     OW88295   2.012   2.710   6.511 -0.5810 -0.5041 -0.1198
28714SOL    HW188296   1.917   2.707   6.524 -0.5086  0.8751  0.8995
28714SOL    HW288297   2.044   2.629   6.552 -1.1637 -0.1206  1.1389
28715SOL     OW88298   6.985   0.370   7.436 -0.2951 -0.5545 -0.0862
28715SOL    HW188299   7.052   0.422   7.481  0.4753 -0.8289 -0.8771
28715SOL    HW288300   6.948   0.315   7.504  1.6585 -1.8137  0.0582
28716SOL     OW88301   2.123   6.818   5.346  0.3253  0.4883  0.4434
28716SOL    HW188302   2.175   6.829   5.425  0.5811  0.0985  0.3339
28716SOL    HW288303   2.043   6.869   5.362 -0.5114 -1.1301  1.7511
28717SOL     OW88304   6.171   5.615   3.451  0.2727  0.0599 -0.0708
28717SOL    HW188305   6.115   5.688   3.478  0.7353 -0.1156  1.4591
28717SOL    HW288306   6.251   5.657   3.419 -0.0697  0.2532 -0.7027
28718SOL     OW88307   2.855   5.064   1.876 -0.0517 -0.5630  0.3233
28718SOL    HW188308   2.834   4.984   1.828  0.3725 -1.3839  1.4664
28718SOL    HW288309   2.785   5.073   1.940  0.0486 -0.1725  0.3795
28719SOL     OW88310   3.519   4.350   1.018 -0.1561 -0.2603 -0.1378
28719SOL    HW188311   3.595   4.384   0.972  1.3320 -1.7570  1.0824
28719SOL    HW288312   3.491   4.274   0.967 -1.8007  1.1108 -1.3836
28720SOL     OW88313   7.580   7.413   7.049  0.0378 -0.5591  0.1466
28720SOL    HW188314   7.600   7.413   6.955 -2.2611 -1.4482 -0.4254
28720SOL    HW288315   7.489   7.383   7.054 -0.2645  0.5057  2.6021
28721SOL     OW88316   8.954   8.399   5.970  0.3556  0.2157 -0.6312
28721SOL    HW188317   8.896   8.451   5.915 -0.2075  1.0659  0.7146
28721SOL    HW288318   9.041   8.411   5.931  0.2008  1.9628 -0.5379
28722SOL     OW88319   2.263   5.546   6.264 -0.1853  0.1878  0.1077
28722SOL    HW188320   2.350   5.586   6.269  0.1152 -0.4139 -0.2214
28722SOL    HW288321   2.220   5.571   6.345  0.8861 -0.8466  1.0282
28723SOL     OW88322   5.138   4.690   2.233 -0.2183  0.5493 -0.3083
28723SOL    HW188323   5.080   4.765   2.233  0.3004  0.9620  0.6028
28723SOL    HW288324   5.226   4.727   2.224 -0.0884 -0.0776 -1.9556
28724SOL     OW88325   3.977   3.850   0.719 -0.2431  0.6122  0.0265
28724SOL    HW188326   4.069   3.839   0.745 -0.6416 -1.8098  0.6526
28724SOL    HW288327   3.950   3.933   0.759  1.4527  1.0119  0.4187
28725SOL     OW88328   7.715   8.896   7.933  0.1492  0.0015  0.3794
28725SOL    HW188329   7.772   8.836   7.886  0.2045 -1.0867  1.7928
28725SOL    HW288330   7.675   8.950   7.864  0.2017 -1.5442 -0.9186
28726SOL     OW88331   5.099   5.307   8.695 -0.3342 -0.0629 -0.2625
28726SOL    HW188332   5.044   5.278   8.768 -1.4735  0.0336 -1.0437
28726SOL    HW288333   5.189   5.296   8.726 -0.7879  0.2047  1.2289
28727SOL     OW88334   9.081   0.288   7.111 -0.5577  0.0544  0.1849
28727SOL    HW188335   9.114   0.263   7.025 -1.0820 -0.0875  0.0173
28727SOL    HW288336   9.150   0.264   7.172 -0.1586  0.2115 -0.2044
28728SOL     OW88337   7.738   7.358   7.718  0.0369  0.2323 -0.1933
28728SOL    HW188338   7.793   7.413   7.663  0.5650 -0.1020 -0.0037
28728SOL    HW288339   7.694   7.299   7.657  1.3977 -0.8258 -0.1947
28729SOL     OW88340   8.213   5.291   7.909  0.1484  0.2008  0.0032
28729SOL    HW188341   8.196   5.362   7.971  2.2489  0.2531  0.6004
28729SOL    HW288342   8.142   5.296   7.846 -0.3745  2.0936  0.6933
28730SOL     OW88343   4.946   0.067   6.415 -0.2941 -0.0333  0.0544
28730SOL    HW188344   4.950   0.054   6.510 -0.3090 -0.7590 -0.0372
28730SOL    HW288345   4.947   0.162   6.403 -1.2408  0.0870  0.8290
28731SOL     OW88346   0.044   6.295   3.788 -0.1366  0.3180  0.1368
28731SOL    HW188347   0.108   6.265   3.852 -1.3973  0.4661  1.5459
28731SOL    HW288348   0.085   6.281   3.703  3.1750  3.5804  0.9670
28732SOL     OW88349   5.797   6.006   2.229 -0.2251 -0.5000 -0.1512
28732SOL    HW188350   5.811   5.972   2.141 -0.1500  2.3136 -1.3410
28732SOL    HW288351   5.883   6.039   2.255 -0.6548  0.4330  0.1271
28733SOL     OW88352   6.940   5.061   4.829  0.6886 -0.2926 -0.3337
28733SOL    HW188353   6.863   5.098   4.785  0.8784  0.8110  0.2187
28733SOL    HW288354   6.917   4.970   4.845  0.0437 -0.3333 -1.4019
28734SOL     OW88355   4.695   9.452   8.102  0.0789 -0.5416 -0.1259
28734SOL    HW188356   4.629   9.390   8.133 -0.5049  0.3293  0.4380
28734SOL    HW288357   4.669   9.536   8.141  0.9732  0.0138 -0.6833
28735SOL     OW88358   3.529   8.959   4.094  0.2624  0.2120 -0.1095
28735SOL    HW188359   3.557   8.923   4.178 -2.8442  1.0027  1.4276
28735SOL    HW288360   3.527   9.054   4.108 -0.2337  0.3607 -1.0928
28736SOL     OW88361   0.713   4.885   4.074  0.2590 -0.3273  0.3217
28736SOL    HW188362   0.806   4.866   4.074  0.5291  0.9289  0.2599
28736SOL    HW288363   0.700   4.944   4.149 -0.0120  1.6081 -1.1764
28737SOL     OW88364   4.580   1.165   5.070 -0.0701 -0.1122  0.7329
28737SOL    HW188365   4.547   1.143   4.983 -0.7870 -0.0926  0.9879
28737SOL    HW288366   4.602   1.080   5.109  2.3400 -0.0042 -0.2328
28738SOL     OW88367   6.835   0.192   7.216 -0.1947 -0.2097  0.0997
28738SOL    HW188368   6.881   0.261   7.264  1.2103  0.5588 -2.2176
28738SOL    HW288369   6.903   0.130   7.192 -1.0477 -1.1308 -0.0363
28739SOL     OW88370   9.091   5.060   3.595 -0.6831 -0.0536  0.6047
28739SOL    HW188371   9.112   5.047   3.688 -1.0697  0.6742  0.8018
28739SOL    HW288372   9.039   4.983   3.571 -2.8241  0.9484  1.7072
28740SOL     OW88373   4.796   3.130   2.359 -0.3756  0.5732 -0.5030
28740SOL    HW188374   4.811   3.036   2.368 -1.4082  0.5698  1.8307
28740SOL    HW288375   4.714   3.136   2.309 -1.3950  0.1198  1.0331
28741SOL     OW88376   5.364   4.659   4.870  0.7372 -0.3486  0.5082
28741SOL    HW188377   5.306   4.637   4.797  0.3838  0.1022  0.6482
28741SOL    HW288378   5.452   4.662   4.831  0.5524 -0.1325  0.1083
28742SOL     OW88379   2.041   3.579   0.315  0.2221 -0.6810  0.6257
28742SOL    HW188380   2.116   3.520   0.313  1.2916  0.5498  2.0311
28742SOL    HW288381   2.016   3.590   0.223  2.5998 -0.1352 -0.0174
28743SOL     OW88382   4.537   0.498   7.183  0.1733 -0.3598  0.0487
28743SOL    HW188383   4.574   0.452   7.259  0.1674 -0.3541  0.0553
28743SOL    HW288384   4.612   0.535   7.138  0.1743 -0.3401  0.0669
28744SOL     OW88385   4.650   7.838   9.531  0.2273 -0.0935 -0.0029
28744SOL    HW188386   4.722   7.785   9.566 -1.0914  0.2663  3.7216
28744SOL    HW288387   4.678   7.928   9.544  0.0499  0.0800 -0.7769
28745SOL     OW88388   6.446   2.961   4.317  0.2948  0.2136 -0.2107
28745SOL    HW188389   6.482   2.873   4.329 -0.3089 -0.0170 -0.0927
28745SOL    HW288390   6.506   3.018   4.366 -0.8488 -0.4379  2.0486
28746SOL     OW88391   8.046   1.190   7.486 -0.1443  0.4319 -0.1688
28746SOL    HW188392   7.997   1.166   7.407 -0.2806  1.8330 -0.5472
28746SOL    HW288393   8.117   1.126   7.491 -1.6832 -1.3109  0.0955
28747SOL     OW88394   1.655   2.265   8.178  0.6170 -0.3481 -0.6044
28747SOL    HW188395   1.598   2.328   8.222 -0.7549 -1.4271 -0.7595
28747SOL    HW288396   1.606   2.238   8.101  0.8688 -2.0936 -0.1930
28748SOL     OW88397   7.009   0.516   3.257 -0.5747  0.3537  0.1452
28748SOL    HW188398   6.996   0.573   3.332  2.2052  1.7290 -0.2535
28748SOL    HW288399   7.028   0.430   3.294 -1.0360  0.5930  0.9392
28749SOL     OW88400   4.501   4.550   6.919 -0.3034  0.0551 -0.1681
28749SOL    HW188401   4.474   4.479   6.860 -0.2636 -1.0837  1.1295
28749SOL    HW288402   4.423   4.567   6.973  0.4684 -0.8698  1.2968
28750SOL     OW88403   0.055   7.900   4.035 -0.6286 -0.5418 -0.3920
28750SOL    HW188404   0.137   7.944   4.015 -1.1264  0.9234  0.5415
28750SOL    HW288405   0.080   7.822   4.084  0.2258 -0.3608 -0.5315
28751SOL     OW88406   6.997   6.325   6.068  0.3748 -0.0344  0.3390
28751SOL    HW188407   7.052   6.249   6.080 -0.7000 -0.7414  0.9568
28751SOL    HW288408   7.058   6.398   6.055  1.5349 -0.3660  3.1960
28752SOL     OW88409   3.310   0.684   9.597 -0.1919 -0.1572  0.3021
28752SOL    HW188410   3.298   0.611   9.536  1.1038  0.5456 -0.8520
28752SOL    HW288411   3.268   0.759   9.554 -0.1093  0.1387  0.7231
28753SOL     OW88412   7.528   4.141   1.191  0.2732  0.4527 -0.7874
28753SOL    HW188413   7.615   4.180   1.192  0.0869  0.8684  0.1625
28753SOL    HW288414   7.468   4.216   1.197 -0.1018  0.0755  0.4886
28754SOL     OW88415   9.581   0.639   1.734  0.5266  0.8599  0.0158
28754SOL    HW188416   9.610   0.648   1.825  2.9098 -2.1195 -0.2855
28754SOL    HW288417   9.489   0.667   1.735 -1.1060 -3.1695  4.4181
28755SOL     OW88418   1.127   0.134   2.338 -0.6392 -0.3308 -0.2501
28755SOL    HW188419   1.096   0.072   2.404 -1.4458 -1.4278 -1.5794
28755SOL    HW288420   1.099   0.220   2.369  1.6119 -0.4051  2.2789
28756SOL     OW88421   7.645   8.999   3.183 -0.2488 -0.1074  0.2429
28756SOL    HW188422   7.729   9.002   3.139  0.2334  1.4531  1.1900
28756SOL    HW288423   7.635   8.908   3.211  1.2594 -0.2564  0.3497
28757SOL     OW88424   6.909   0.635   7.398 -0.4248  0.5100 -0.5722
28757SOL    HW188425   6.936   0.545   7.414 -0.4449  0.6932  0.6575
28757SOL    HW288426   6.833   0.628   7.340  0.4528 -0.1648 -1.6749
28758SOL     OW88427   1.209   6.817   0.563 -0.4278 -0.1537 -0.2310
28758SOL    HW188428   1.199   6.819   0.468 -1.5850 -0.5077 -0.1291
28758SOL    HW288429   1.261   6.895   0.584 -1.2211  0.6081 -1.0300
28759SOL     OW88430   4.380   9.270   3.487  0.5357 -0.2810  0.1683
28759SOL    HW188431   4.317   9.326   3.442  0.5248 -1.5423 -1.5076
28759SOL    HW288432   4.464   9.316   3.480 -0.0187  1.0451  1.7407
28760SOL     OW88433   8.658   0.199   0.395 -0.0072 -0.1288  0.1434
28760SOL    HW188434   8.593   0.234   0.333 -1.3917 -1.1450  0.9415
28760SOL    HW288435   8.674   0.271   0.456 -0.5913  0.0633  0.0803
28761SOL     OW88436   7.562   2.169   5.035  0.3298 -0.0965  0.2583
28761SOL    HW188437   7.631   2.154   4.970  0.5060 -0.2073  0.4686
28761SOL    HW288438   7.603   2.226   5.100  0.0906  0.1780  0.1668
28762SOL     OW88439   5.510   3.848   0.091 -0.0949  0.3150 -0.3307
28762SOL    HW188440   5.574   3.826   0.159  1.3435  0.8326 -1.4743
28762SOL    HW288441   5.484   3.764   0.054 -0.0266  0.1101  0.0835
28763SOL     OW88442   6.732   8.905   3.759 -0.0426 -0.3510 -0.3055
28763SOL    HW188443   6.676   8.979   3.784  0.2148  0.4123 -1.8256
28763SOL    HW288444   6.813   8.947   3.728 -0.2716 -1.1980 -2.1384
28764SOL     OW88445   7.134   2.974   6.261 -0.2933  0.2560 -0.4283
28764SOL    HW188446   7.045   3.009   6.261 -0.5522 -0.3812 -0.2954
28764SOL    HW288447   7.188   3.046   6.231 -0.8086  0.7788 -0.1319
28765SOL     OW88448   6.550   8.286   8.460 -0.7987  0.3038  0.0563
28765SOL    HW188449   6.604   8.362   8.482 -0.0656  0.0614 -0.8404
28765SOL    HW288450   6.612   8.214   8.451 -1.7120 -1.2239  3.9432
28766SOL     OW88451   6.906   7.792   6.827 -0.1809 -0.2313  0.0635
28766SOL    HW188452   6.830   7.758   6.874  0.0256 -0.5352  0.1778
28766SOL    HW288453   6.932   7.869   6.877  0.6390 -1.1012  1.0423
28767SOL     OW88454   4.123   8.193   4.623 -0.1282  0.0495  0.2923
28767SOL    HW188455   4.071   8.268   4.654 -2.6849 -0.8716 -1.4094
28767SOL    HW288456   4.087   8.118   4.670  1.1370 -0.3923  0.5902
28768SOL     OW88457   3.176   2.310   3.221  0.3361  0.9109  0.0508
28768SOL    HW188458   3.121   2.242   3.260  1.4747  0.0967  0.2821
28768SOL    HW288459   3.165   2.385   3.279  0.4021  0.3785  0.7731
28769SOL     OW88460   7.430   5.535   7.251  0.5591  0.0278 -0.2509
28769SOL    HW188461   7.409   5.455   7.202  0.7531 -0.4365  0.4205
28769SOL    HW288462   7.396   5.606   7.196  0.0978 -0.5308 -0.6944
28770SOL     OW88463   6.353   4.397   8.383 -0.1464 -0.0899  0.7350
28770SOL    HW188464   6.280   4.349   8.344  0.4477 -0.3218 -0.1173
28770SOL    HW288465   6.338   4.489   8.359 -0.1086 -0.1504  0.4804
28771SOL     OW88466   1.372   4.889   1.630  0.2098  0.1488  0.3401
28771SOL    HW188467   1.391   4.803   1.666  0.0791  0.9418  2.4101
28771SOL    HW288468   1.423   4.950   1.684 -1.0989  1.5109  0.1050
28772SOL     OW88469   3.317   1.299   5.150 -0.5587 -0.0716 -0.0680
28772SOL    HW188470   3.327   1.345   5.233  0.6617 -1.8478  0.8260
28772SOL    HW288471   3.310   1.207   5.174 -3.3442 -0.3917 -1.7712
28773SOL     OW88472   4.345   8.124   6.788  0.7743  0.6948 -0.3160
28773SOL    HW188473   4.323   8.075   6.709  1.0606  1.0547 -0.6213
28773SOL    HW288474   4.267   8.176   6.807 -0.2302 -1.2117  1.0491
28774SOL     OW88475   6.468   7.242   8.307  0.5192 -0.1933 -0.2722
28774SOL    HW188476   6.524   7.228   8.384  0.9289  1.5840 -0.2003
28774SOL    HW288477   6.528   7.276   8.240 -0.1939  0.2605 -0.6890
28775SOL     OW88478   2.554   8.368   5.832  0.2715  0.2923 -0.3159
28775SOL    HW188479   2.531   8.432   5.764 -0.0156  0.5018 -0.0236
28775SOL    HW288480   2.521   8.406   5.913 -1.8311 -1.1648 -0.3851
28776SOL     OW88481   5.946   1.351   4.029 -0.2270 -0.1532 -0.3145
28776SOL    HW188482   5.975   1.288   4.096  0.3199  0.2941 -0.1196
28776SOL    HW288483   6.028   1.385   3.992 -0.5004  0.9572  0.0690
28777SOL     OW88484   7.240   6.419   8.437 -0.6272  0.0450 -0.0519
28777SOL    HW188485   7.321   6.456   8.472  0.0353 -3.4961  2.7392
28777SOL    HW288486   7.262   6.393   8.348  1.5914 -1.3678  0.8316
28778SOL     OW88487   1.178   7.280   9.116  0.0511  0.3985 -0.0128
28778SOL    HW188488   1.258   7.233   9.091  0.2141 -0.3519  1.7802
28778SOL    HW288489   1.187   7.365   9.074  2.0438  0.5140  0.5049
28779SOL     OW88490   2.693   5.252   9.045 -0.2743 -0.4586 -0.1052
28779SOL    HW188491   2.767   5.304   9.075  0.3076 -0.8300 -0.8677
28779SOL    HW288492   2.712   5.235   8.953 -1.4729 -0.2775 -0.4010
28780SOL     OW88493   1.688   4.240   8.711  0.2670  0.6164 -0.0881
28780SOL    HW188494   1.755   4.202   8.653 -0.0695 -0.4902  0.2219
28780SOL    HW288495   1.665   4.169   8.771 -0.1837  1.4143  0.7097
28781SOL     OW88496   3.079   3.233   0.508 -0.2984  0.6579  0.3247
28781SOL    HW188497   3.021   3.169   0.549 -2.6484  1.8889 -0.9206
28781SOL    HW288498   3.160   3.228   0.560 -1.1837 -1.6958  1.6224
28782SOL     OW88499   6.805   9.610   2.457 -0.0311  0.2096 -0.6718
28782SOL    HW188500   6.769   9.645   2.538 -1.4399  2.0093 -1.9940
28782SOL    HW288501   6.894   9.643   2.454  0.0789  0.0155  0.1843
28783SOL     OW88502   4.362   6.104   3.198 -0.5649 -0.1086 -0.1776
28783SOL    HW188503   4.416   6.126   3.122 -1.7162 -0.7247 -1.2035
28783SOL    HW288504   4.350   6.188   3.243  0.5522  0.1790 -0.3789
28784SOL     OW88505   2.017   1.688   0.162 -0.4344 -0.4432 -0.0567
28784SOL    HW188506   1.928   1.672   0.129 -0.5839 -0.4037  0.3289
28784SOL    HW288507   2.049   1.602   0.186  0.1730 -0.6668 -1.5344
28785SOL     OW88508   1.058   0.688   6.494 -0.2879  0.0467  0.2957
28785SOL    HW188509   1.049   0.651   6.407  0.4927 -0.0569  0.2545
28785SOL    HW288510   1.147   0.725   6.496 -0.5202  0.5933  0.8346
28786SOL     OW88511   3.460   6.661   9.334  0.0332  0.0964  0.0353
28786SOL    HW188512   3.433   6.633   9.247  1.0934  2.1195 -1.0316
28786SOL    HW288513   3.529   6.599   9.359  0.9241  0.4651 -1.3643
28787SOL     OW88514   0.670   3.975   4.273 -0.0300 -0.6322  0.3196
28787SOL    HW188515   0.619   3.921   4.213 -0.0396  0.1845 -0.4240
28787SOL    HW288516   0.604   4.025   4.321 -0.0060 -1.0370  0.7849
28788SOL     OW88517   1.696   2.503   3.473 -0.2637 -0.2390 -0.4008
28788SOL    HW188518   1.762   2.572   3.465 -0.3464  0.2225  2.0472
28788SOL    HW288519   1.613   2.550   3.482 -0.6417 -0.7525 -1.1275
28789SOL     OW88520   8.175   5.938   1.032 -0.1379  0.0466 -0.2226
28789SOL    HW188521   8.239   5.867   1.043 -0.9882 -1.0065 -1.7600
28789SOL    HW288522   8.151   5.935   0.940 -1.0044  1.6670 -0.0888
28790SOL     OW88523   4.297   3.270   2.225  0.6341 -0.3721  0.2501
28790SOL    HW188524   4.316   3.227   2.142 -1.3497 -0.3729 -0.2706
28790SOL    HW288525   4.286   3.197   2.287  1.2124 -0.4160  0.3037
28791SOL     OW88526   4.701   6.749   6.760  0.0559  0.4353 -0.4691
28791SOL    HW188527   4.703   6.813   6.689 -0.4506 -0.3308 -1.1973
28791SOL    HW288528   4.615   6.708   6.753  0.2591 -0.1228  0.1603
28792SOL     OW88529   5.517   6.492   5.233  0.1821 -0.6176 -0.3779
28792SOL    HW188530   5.444   6.478   5.174 -1.0274 -0.9472  1.1363
28792SOL    HW288531   5.508   6.583   5.262 -1.5106 -1.4726  2.1309
28793SOL     OW88532   1.059   4.553   3.715 -0.0881 -0.2555  0.6504
28793SOL    HW188533   1.152   4.575   3.705 -0.6815  1.7254 -1.0132
28793SOL    HW288534   1.038   4.505   3.635 -0.5651 -0.5010  0.9230
28794SOL     OW88535   3.475   8.019   6.183  0.1255  0.1522 -0.1131
28794SOL    HW188536   3.393   8.041   6.228 -0.3328  0.4153 -1.0636
28794SOL    HW288537   3.500   7.934   6.219 -0.9858 -0.3040 -0.3821
28795SOL     OW88538   4.848   6.720   6.293 -0.1396 -0.5703  0.2108
28795SOL    HW188539   4.911   6.648   6.285 -0.1817 -0.4916 -0.8648
28795SOL    HW288540   4.901   6.799   6.288 -0.2275 -0.5080  0.2596
28796SOL     OW88541   8.523   7.184   1.065  0.0279  0.5055  0.4569
28796SOL    HW188542   8.436   7.219   1.045 -0.4905  0.4456  2.3773
28796SOL    HW288543   8.580   7.262   1.068 -0.5276  0.8874  1.8228
28797SOL     OW88544   2.112   5.372   2.995 -0.3783 -0.3416  0.2559
28797SOL    HW188545   2.203   5.372   2.965 -0.3913  0.7976  0.1867
28797SOL    HW288546   2.093   5.280   3.014  0.8306 -0.5733  0.4124
28798NA      NA88547   3.670   7.695   4.641  0.1527 -0.4077 -0.1126
28799NA      NA88548   9.089   7.440   0.251  0.1958 -0.5731  0.0516
28800NA      NA88549   0.466   7.677   0.931 -0.1451  0.2264  0.6491
28801NA      NA88550   1.827   8.791   8.770  0.3353  0.0556  0.4020
28802NA      NA88551   9.466   4.329   8.493  0.0368  0.5696  0.2282
28803NA      NA88552   5.057   0.164   4.979 -0.2527 -0.2126 -0.4137
28804NA      NA88553   4.147   4.105   4.740 -0.1144 -0.1456 -0.3350
28805NA      NA88554   8.714   5.722   8.470 -0.5008 -0.0806  0.2343
28806NA      NA88555   0.214   1.798   7.581 -0.1917  0.3063  0.4393
28807NA      NA88556   6.161   2.034   2.498  0.0977  0.4869 -0.3694
28808NA      NA88557   1.886   1.203   4.702 -0.2732  0.2632  0.2658
28809NA      NA88558   3.856   1.166   4.799 -0.0788 -0.2731  0.0173
28810NA      NA88559   7.151   9.200   9.095  0.0575 -0.2390 -0.0187
28811NA      NA88560   6.316   2.101   0.601 -0.1782 -0.4690 -0.1648
28812NA      NA88561   7.531   2.539   2.769 -0.2156  0.2693 -0.5320
28813NA      NA88562   0.412   3.878   0.684 -0.5425  0.0032 -0.2200
28814NA      NA88563   0.745   7.300   4.574 -0.2933  0.1248 -0.4496
28815NA      NA88564   0.744   0.823   1.820  0.0648 -0.1635  0.0526
28816NA      NA88565   6.289   0.811   3.682  0.2954 -0.1813  0.1747
28817NA      NA88566   3.979   1.715   6.696  0.3451  0.0544  0.0269
28818NA      NA88567   2.005   6.152   8.745 -0.0714  0.6245 -0.2726
28819NA      NA88568   8.478   4.269   9.417 -0.4951 -0.4660  0.5113
28820NA      NA88569   3.202   8.729   2.734  0.3501  0.2408 -0.3372
28821NA      NA88570   7.589   0.878   8.715  0.2959  0.4478  0.0056
28822NA      NA88571   6.102   6.322   4.560 -0.1300  0.1951  0.2545
28823NA      NA88572   0.860   6.761   8.166 -0.3906 -0.2452  0.9092
28824NA      NA88573   6.840   8.757   3.307  0.0230  0.3891 -0.0504
28825NA      NA88574   0.163   2.391   2.672 -0.3987 -0.6130  0.3462
28826NA      NA88575   2.597   0.917   1.944  0.5204  0.0730  0.2184
28827NA      NA88576   7.426   5.506   9.232 -0.7009 -0.0260 -0.0126
28828NA      NA88577   0.975   8.822   9.057 -0.0520  0.2748 -0.4978
28829NA      NA88578   0.525   0.228   2.912 -0.5425  0.3494  0.1115
28830NA      NA88579   7.762   8.387   6.710 -0.4910 -0.6320  0.5287
28831NA      NA88580   0.555   6.268   4.972  0.6551 -0.2864 -0.3656
28832NA      NA88581   2.815   3.117   8.293 -0.1267  0.3530 -0.3773
28833NA      NA88582   5.688   8.276   9.361  0.3350 -0.3929 -0.0795
28834NA      NA88583   7.454   2.707   5.624 -0.3225  0.3000 -0.1475
28835NA      NA88584   3.946   7.599   1.958  0.4035  0.3721  0.0042
28836NA      NA88585   8.031   4.263   0.820 -0.0306 -0.0612 -0.5552
28837NA      NA88586   5.097   6.068   7.154  0.0828 -0.0096  0.4023
28838NA      NA88587   8.109   1.397   3.896 -0.0982  0.4090 -0.3132
28839NA      NA88588   1.841   3.380   6.325  0.0311 -0.5114  0.0229
28840NA      NA88589   8.976   4.726   5.915  0.1307  0.4121 -0.0859
28841NA      NA88590   1.212   3.046   5.070  0.2095  0.5464  0.1455
28842NA      NA88591   7.064   2.401   6.856  0.3371 -0.2327  0.1358
28843NA      NA88592   2.205   0.652   4.897  0.3353  0.4639  0.6221
28844NA      NA88593   5.169   3.248   1.914  0.1436 -0.2497  0.0879
28845NA      NA88594   9.346   4.038   7.772 -0.3085  0.0079  0.0782
28846NA      NA88595   8.295   9.084   1.699  0.1195 -0.3723 -0.2668
28847NA      NA88596   1.724   5.208   0.652 -0.1925  0.1816 -0.0936
28848NA      NA88597   7.202   8.099   4.596 -0.4555  0.0510 -0.2054
28849NA      NA88598   3.695   7.425   2.421 -0.2405  0.7277  0.4451
28850NA      NA88599   4.067   8.351   2.463 -0.1126  0.5334 -0.1861
28851NA      NA88600   1.918   7.516   5.908 -0.0183 -0.2453 -0.0195
28852NA      NA88601   6.666   6.484   4.856  0.1249  0.8391  0.4674
28853NA      NA88602   3.749   4.996   8.203 -0.2771  0.2763  0.1540
28854NA      NA88603   4.402   3.583   0.580  0.0171 -0.3841  0.3327
28855NA      NA88604   6.977   7.046   1.590 -0.0370  0.4130 -0.1301
28856NA      NA88605   3.748   8.969   8.977  0.0285 -0.0830 -0.2836
28857NA      NA88606   0.026   0.393   4.834  0.4779  0.3383  0.2750
28858NA      NA88607   6.201   4.478   4.179 -0.1572  0.4142  0.4984
28859NA      NA88608   1.473   4.416   2.898  0.5396 -0.3752 -0.0640
28860NA      NA88609   1.764   5.111   5.933 -0.8099  0.1272 -0.0779
28861NA      NA88610   8.192   4.457   5.678 -0.2535 -0.0901  0.2402
28862NA      NA88611   7.980   5.726   6.155  0.2499 -0.3105  0.1970
28863NA      NA88612   9.324   8.887   1.576  0.4052 -0.0749 -0.1995
28864NA      NA88613   7.708   1.198   0.463 -0.0367  0.0816 -0.1836
28865NA      NA88614   1.814   5.603   1.436 -0.0762 -0.4046  0.2332
28866NA      NA88615   7.692   8.901   8.136 -0.0396 -0.0642 -0.7647
28867NA      NA88616   9.305   9.617   4.864  0.2097  0.4504  0.2820
28868NA      NA88617   3.057   5.927   5.440  0.1816 -0.0404 -0.0756
28869NA      NA88618   5.590   9.457   1.956 -0.5734 -0.1144  0.1552
28870NA      NA88619   3.536   2.973   5.897  0.0510 -0.0937  0.3942
28871NA      NA88620   4.227   9.291   2.126 -0.0879 -0.2238  0.2201
28872NA      NA88621   9.613   8.745   4.193  0.0963  0.1568  0.0127
28873NA      NA88622   0.264   6.009   2.063 -0.3718  0.3650 -0.3340
28874NA      NA88623   8.919   0.292   0.696 -0.0439 -0.0170 -0.0525
28875NA      NA88624   9.459   3.924   7.249  0.3168 -0.2435  0.1358
28876NA      NA88625   5.765   7.155   8.275  0.0727  0.7080  0.0851
28877NA      NA88626   7.132   8.675   9.554  0.0564 -0.6657  0.0504
28878NA      NA88627   1.264   3.510   3.947 -0.2555  0.2139 -0.3632
28879NA      NA88628   6.867   6.265   0.675 -0.2407  0.0165  0.4313
28880CL      CL88629   2.057   1.000   5.956  0.0304  0.1249 -0.2040
28881CL      CL88630   7.371   2.040   5.423  0.2332 -0.1217  0.5244
28882CL      CL88631   1.392   1.864   5.548 -0.1091  0.0198 -0.5530
28883CL      CL88632   5.443   6.174   5.876 -0.3002  0.1414  0.1192
28884CL      CL88633   0.369   9.182   9.135  0.0103  0.4257  0.5208
28885CL      CL88634   2.325   8.255   8.004 -0.0139 -0.1549  0.2897
28886CL      CL88635   5.954   3.858   4.161  0.2942  0.3060 -0.4575
28887CL      CL88636   0.290   0.892   1.401 -0.2269  0.0849 -0.2290
28888CL      CL88637   8.292   6.236   5.506 -0.2820 -0.0253  0.0223
28889CL      CL88638   3.213   5.734   5.162  0.3919 -0.2491  0.1814
28890CL      CL88639   5.868   0.907   2.887 -0.1311  0.1198 -0.1626
28891CL      CL88640   7.787   0.213   4.350  0.0341 -0.1869 -0.0009
28892CL      CL88641   8.762   4.190   7.070 -0.1255  0.1160 -0.1721
28893CL      CL88642   0.773   3.850   8.845  0.1999 -0.1806 -0.4746
28894CL      CL88643   4.281   0.796   4.010 -0.0583  0.0265 -0.1970
28895CL      CL88644   9.544   7.993   1.823  0.1843  0.3862  0.1255
28896CL      CL88645   2.629   5.471   6.866 -0.1076  0.4624  0.5103
28897CL      CL88646   0.986   5.008   7.022  0.4158 -0.2972  0.3515
28898CL      CL88647   5.675   0.332   8.614  0.2032 -0.3106  0.2168
28899CL      CL88648   2.401   9.217   8.458  0.2603  0.0269 -0.4378
28900CL      CL88649   4.818   8.953   5.310  0.2102 -0.1532 -0.1669
28901CL      CL88650   4.315   7.517   0.424 -0.1605  0.1456 -0.2140
28902CL      CL88651   1.432   9.513   0.780 -0.3598 -0.0196 -0.3227
28903CL      CL88652   9.109   8.956   1.518  0.5106  0.7470  0.0052
28904CL      CL88653   5.759   2.639   4.129  0.0259  0.3240 -0.5639
28905CL      CL88654   5.610   3.943   1.427 -0.0116 -0.5669 -0.3837
28906CL      CL88655   0.611   2.614   2.655 -0.3616 -0.3397  0.0805
28907CL      CL88656   3.511   2.576   6.548  0.2643  0.0361  0.0958
28908CL      CL88657   1.202   4.051   2.918 -0.2703 -0.0547  0.0642
28909CL      CL88658   3.863   0.992   1.890 -0.3927  0.3187  0.2553
28910CL      CL88659   9.219   4.000   3.453  0.0766 -0.0447  0.4318
28911CL      CL88660   9.225   4.461   7.618  0.1642 -0.2145 -0.0163
28912CL      CL88661   8.803   7.983   4.203 -0.0427  0.3525 -0.0752
28913CL      CL88662   4.231   4.872   7.752  0.1516 -0.0087 -0.2209
28914CL      CL88663   3.129   9.366   7.046  0.1881  0.2115  0.0403
28915CL      CL88664   4.723   1.672   5.732 -0.2274  0.2724  0.2820
28916CL      CL88665   1.396   7.059   3.443  0.0993  0.3287  0.0187
28917CL      CL88666   7.864   4.898   0.421  0.0094 -0.2662 -0.2786
28918CL      CL88667   4.389   3.278   5.097 -0.0865 -0.1648 -0.4111
28919CL      CL88668   2.289   4.932   1.010  0.4551 -0.2350  0.0126
28920CL      CL88669   8.193   7.652   5.196 -0.2016  0.1063 -0.5095
28921CL      CL88670   7.277   4.655   1.999  0.0455 -0.0426 -0.2190
28922CL      CL88671   7.757   8.028   8.343 -0.0743 -0.1853 -0.0760
28923CL      CL88672   0.799   5.833   4.133  0.2817 -0.1252  0.5243
28924CL      CL88673   5.359   7.943   4.213  0.2607 -0.1640  0.4013
28925CL      CL88674   7.126   6.270   0.658 -0.0931  0.0037  0.2011
28926CL      CL88675   5.648   8.140   3.841 -0.0114 -0.0713 -0.6636
28927CL      CL88676   7.024   3.959   6.419 -0.0959  0.0708 -0.2240
28928CL      CL88677   0.591   5.326   0.662  0.4140 -0.0291  0.0710
28929CL      CL88678   2.670   0.064   4.937 -0.3585 -0.4072  0.0053
28930CL      CL88679   4.686   6.026   7.138 -0.0978 -0.1635  0.1648
28931CL      CL88680   3.134   7.711   8.339  0.2394 -0.3404 -0.1913
28932CL      CL88681   1.898   7.473   4.266 -0.0182  0.0611 -0.2283
28933CL      CL88682   2.987   4.594   0.619 -0.3115  0.2391 -0.2880
28934CL      CL88683   0.286   8.290   3.523 -0.1251 -0.1851 -0.0252
28935CL      CL88684   2.184   3.602   7.295 -0.2675  0.2541  0.2897
28936CL      CL88685   8.882   5.158   7.229 -0.0717 -0.1620  0.6060
28937CL      CL88686   1.035   6.910   8.242  0.2137  0.3276  0.1110
28938CL      CL88687   1.960   2.339   6.286  0.1233  0.1395  0.2149
28939CL      CL88688   7.514   6.505   8.560 -0.0443  0.1410  0.0470
28940CL      CL88689   0.755   0.053   8.918  0.3204 -0.0018  0.1521
28941CL      CL88690   6.600   3.731   5.229  0.0938  0.1435  0.0302
28942CL      CL88691   1.603   8.196   5.307  0.0920  0.1458  0.2477
28943CL      CL88692   2.705   6.969   2.357 -0.0457 -0.0485 -0.5299
28944CL      CL88693   3.162   2.080   9.363 -0.4301 -0.3279  0.1826
28945CL      CL88694   1.150   6.090   7.759  0.0995 -0.1348 -0.3062
28946CL      CL88695   2.473   1.269   0.635 -0.0531 -0.0284  0.0253
28947CL      CL88696   5.898   8.613   1.538  0.0806  0.1451 -0.1249
28948CL      CL88697   5.738   0.400   1.634 -0.2754 -0.0932 -0.1277
28949CL      CL88698   7.442   3.959   9.297 -0.1384  0.0009  0.2703
28950CL      CL88699   8.852   8.125   8.053  0.2051  0.2382 -0.4519
28951CL      CL88700   6.260   7.903   0.206  0.0065 -0.0117  0.6139
28952CL      CL88701   4.655   6.191   8.192  0.0428 -0.4311  0.2976
28953CL      CL88702   3.393   5.273   8.166 -0.1397 -0.1815  0.3863
28954CL      CL88703   8.967   7.579   0.706 -0.3424  0.2328  0.1422
28955CL      CL88704   0.377   9.107   2.399  0.2934 -0.5003  0.0973
28956CL      CL88705   6.242   0.696   5.264  0.1540 -0.0649  0.2833
28957CL      CL88706   5.872   2.310   0.126 -0.2878 -0.2510  0.3076
28958CL      CL88707   9.622   4.042   4.528  0.3126 -0.1176  0.5538
28959CL      CL88708   6.462   8.932   8.612  0.0635  0.1532  0.0162
28960CL      CL88709   7.740   2.336   1.835  0.0020  0.0346 -0.2780
28961CL      CL88710   8.281   2.053   2.780  0.1173  0.1811 -0.0310
   9.63432   9.63432   9.63432
