;
;   File g5p_pamam.itp  was generated
;   By user: sairam (1000)
;   On host: sairam
;   At date: Wed. August  3 19:45:02 2023
;
;   This is a standalone topology file
;
;   Created by:
;   ParmEd:       amb2gro_top_gro.py, VERSION 3.4.1
;   Executable:   amb2gro_top_gro.py
;   Library dir:  /usr/local/gromacs/share/gromacs/top
;   Command line:
;     ./amb2gro_top_gro.py -p g5p_pamam.prmtop -c g5p_pamam.inpcrd -t g5p_pamam.itp -g g5p_pamam.gro -b g5p_pamam.pdb
;

;[ defaults ]
;; nbfunc        comb-rule       gen-pairs       fudgeLJ fudgeQQ
;1               2               yes             0.5          0.83333333  
;
;[ atomtypes ]
;; name    at.num    mass    charge ptype  sigma      epsilon
;c3             6  12.010000  0.00000000  A     0.33996695      0.4577296
;h1             1   1.008000  0.00000000  A      0.2471353      0.0656888
;n3             7  14.010000  0.00000000  A     0.32499985        0.71128
;hc             1   1.008000  0.00000000  A     0.26495328      0.0656888
;c              6  12.010000  0.00000000  A     0.33996695       0.359824
;o              8  16.000000  0.00000000  A     0.29599219        0.87864
;n              7  14.010000  0.00000000  A     0.32499985        0.71128
;hn             1   1.008000  0.00000000  A     0.10690785      0.0656888
;hx             1   1.008000  0.00000000  A     0.19599772      0.0656888
;n4             7  14.010000  0.00000000  A     0.32499985        0.71128


[ moleculetype ]
; Name            nrexcl
g5p_pamam          3

[ atoms ]
;   nr       type  resnr residue  atom   cgnr    charge       mass  typeB    chargeB      massB
; residue    1 aaa rtp aaa q -0.0
    1         c3      1    aaa     C1      1 0.02890000  12.010000   ; qtot 0.028900
    2         h1      1    aaa     H1      2 0.08460000   1.008000   ; qtot 0.113500
    3         h1      1    aaa     H2      3 0.08460000   1.008000   ; qtot 0.198100
    4         c3      1    aaa     C2      4 0.02890000  12.010000   ; qtot 0.227000
    5         h1      1    aaa     H3      5 0.08460000   1.008000   ; qtot 0.311600
    6         h1      1    aaa     H4      6 0.08460000   1.008000   ; qtot 0.396200
    7         n3      1    aaa     N1      7 -0.65770000  14.010000   ; qtot -0.261500
    8         n3      1    aaa     N2      8 -0.65770000  14.010000   ; qtot -0.919200
    9         c3      1    aaa     C3      9 0.36940000  12.010000   ; qtot -0.549800
   10         h1      1    aaa     H5     10 0.00650000   1.008000   ; qtot -0.543300
   11         h1      1    aaa     H6     11 0.00650000   1.008000   ; qtot -0.536800
   12         c3      1    aaa     C4     12 0.36940000  12.010000   ; qtot -0.167400
   13         h1      1    aaa     H7     13 0.00650000   1.008000   ; qtot -0.160900
   14         h1      1    aaa     H8     14 0.00650000   1.008000   ; qtot -0.154400
   15         c3      1    aaa     C5     15 0.36940000  12.010000   ; qtot 0.215000
   16         h1      1    aaa     H9     16 0.00650000   1.008000   ; qtot 0.221500
   17         h1      1    aaa    H10     17 0.00650000   1.008000   ; qtot 0.228000
   18         c3      1    aaa     C6     18 0.36940000  12.010000   ; qtot 0.597400
   19         h1      1    aaa    H11     19 0.00650000   1.008000   ; qtot 0.603900
   20         h1      1    aaa    H12     20 0.00650000   1.008000   ; qtot 0.610400
   21         c3      1    aaa     C7     21 -0.54350000  12.010000   ; qtot 0.066900
   22         hc      1    aaa    H13     22 0.15890000   1.008000   ; qtot 0.225800
   23         hc      1    aaa    H14     23 0.15890000   1.008000   ; qtot 0.384700
   24         c3      1    aaa     C8     24 -0.54350000  12.010000   ; qtot -0.158800
   25         hc      1    aaa    H15     25 0.15890000   1.008000   ; qtot 0.000100
   26         hc      1    aaa    H16     26 0.15890000   1.008000   ; qtot 0.159000
   27         c3      1    aaa     C9     27 -0.54350000  12.010000   ; qtot -0.384500
   28         hc      1    aaa    H17     28 0.15890000   1.008000   ; qtot -0.225600
   29         hc      1    aaa    H18     29 0.15890000   1.008000   ; qtot -0.066700
   30         c3      1    aaa    C10     30 -0.54350000  12.010000   ; qtot -0.610200
   31         hc      1    aaa    H19     31 0.15890000   1.008000   ; qtot -0.451300
   32         hc      1    aaa    H20     32 0.15890000   1.008000   ; qtot -0.292400
   33          c      1    aaa    C11     33 0.67800000  12.010000   ; qtot 0.385600
   34          c      1    aaa    C12     34 0.67800000  12.010000   ; qtot 1.063600
   35          c      1    aaa    C13     35 0.67800000  12.010000   ; qtot 1.741600
   36          c      1    aaa    C14     36 0.67800000  12.010000   ; qtot 2.419600
   37          o      1    aaa     O1     37 -0.60490000  16.000000   ; qtot 1.814700
   38          o      1    aaa     O2     38 -0.60490000  16.000000   ; qtot 1.209800
   39          o      1    aaa     O3     39 -0.60490000  16.000000   ; qtot 0.604900
   40          o      1    aaa     O4     40 -0.60490000  16.000000   ; qtot -0.000000
; residue    2 bbb rtp bbb q -0.0
   41         c3      2    bbb     C1     41 0.44180000  12.010000   ; qtot 0.441800
   42         h1      2    bbb     H1     42 -0.03530000   1.008000   ; qtot 0.406500
   43         h1      2    bbb     H2     43 -0.03530000   1.008000   ; qtot 0.371200
   44         c3      2    bbb     C2     44 -0.28250000  12.010000   ; qtot 0.088700
   45         h1      2    bbb     H3     45 0.15710000   1.008000   ; qtot 0.245800
   46         h1      2    bbb     H4     46 0.15710000   1.008000   ; qtot 0.402900
   47         n3      2    bbb     N1     47 -0.74090000  14.010000   ; qtot -0.338000
   48         c3      2    bbb     C3     48 0.51680000  12.010000   ; qtot 0.178800
   49         h1      2    bbb     H5     49 -0.05230000   1.008000   ; qtot 0.126500
   50         h1      2    bbb     H6     50 -0.05230000   1.008000   ; qtot 0.074200
   51         c3      2    bbb     C4     51 0.51680000  12.010000   ; qtot 0.591000
   52         h1      2    bbb     H7     52 -0.05230000   1.008000   ; qtot 0.538700
   53         h1      2    bbb     H8     53 -0.05230000   1.008000   ; qtot 0.486400
   54         c3      2    bbb     C5     54 -0.60390000  12.010000   ; qtot -0.117500
   55         hc      2    bbb     H9     55 0.16730000   1.008000   ; qtot 0.049800
   56         hc      2    bbb    H10     56 0.16730000   1.008000   ; qtot 0.217100
   57         c3      2    bbb     C6     57 -0.60390000  12.010000   ; qtot -0.386800
   58         hc      2    bbb    H11     58 0.16730000   1.008000   ; qtot -0.219500
   59         hc      2    bbb    H12     59 0.16730000   1.008000   ; qtot -0.052200
   60          c      2    bbb     C7     60 0.72110000  12.010000   ; qtot 0.668900
   61          c      2    bbb     C8     61 0.72110000  12.010000   ; qtot 1.390000
   62          o      2    bbb     O1     62 -0.61950000  16.000000   ; qtot 0.770500
   63          o      2    bbb     O2     63 -0.61950000  16.000000   ; qtot 0.151000
   64          n      2    bbb     N4     64 -0.46580000  14.010000   ; qtot -0.314800
   65         hn      2    bbb    H21     65 0.31480000   1.008000   ; qtot -0.000000
; residue    3 bbb rtp bbb q -0.0
   66         c3      3    bbb     C1     66 0.44180000  12.010000   ; qtot 0.441800
   67         h1      3    bbb     H1     67 -0.03530000   1.008000   ; qtot 0.406500
   68         h1      3    bbb     H2     68 -0.03530000   1.008000   ; qtot 0.371200
   69         c3      3    bbb     C2     69 -0.28250000  12.010000   ; qtot 0.088700
   70         h1      3    bbb     H3     70 0.15710000   1.008000   ; qtot 0.245800
   71         h1      3    bbb     H4     71 0.15710000   1.008000   ; qtot 0.402900
   72         n3      3    bbb     N1     72 -0.74090000  14.010000   ; qtot -0.338000
   73         c3      3    bbb     C3     73 0.51680000  12.010000   ; qtot 0.178800
   74         h1      3    bbb     H5     74 -0.05230000   1.008000   ; qtot 0.126500
   75         h1      3    bbb     H6     75 -0.05230000   1.008000   ; qtot 0.074200
   76         c3      3    bbb     C4     76 0.51680000  12.010000   ; qtot 0.591000
   77         h1      3    bbb     H7     77 -0.05230000   1.008000   ; qtot 0.538700
   78         h1      3    bbb     H8     78 -0.05230000   1.008000   ; qtot 0.486400
   79         c3      3    bbb     C5     79 -0.60390000  12.010000   ; qtot -0.117500
   80         hc      3    bbb     H9     80 0.16730000   1.008000   ; qtot 0.049800
   81         hc      3    bbb    H10     81 0.16730000   1.008000   ; qtot 0.217100
   82         c3      3    bbb     C6     82 -0.60390000  12.010000   ; qtot -0.386800
   83         hc      3    bbb    H11     83 0.16730000   1.008000   ; qtot -0.219500
   84         hc      3    bbb    H12     84 0.16730000   1.008000   ; qtot -0.052200
   85          c      3    bbb     C7     85 0.72110000  12.010000   ; qtot 0.668900
   86          c      3    bbb     C8     86 0.72110000  12.010000   ; qtot 1.390000
   87          o      3    bbb     O1     87 -0.61950000  16.000000   ; qtot 0.770500
   88          o      3    bbb     O2     88 -0.61950000  16.000000   ; qtot 0.151000
   89          n      3    bbb     N4     89 -0.46580000  14.010000   ; qtot -0.314800
   90         hn      3    bbb    H21     90 0.31480000   1.008000   ; qtot -0.000000
; residue    4 bbb rtp bbb q -0.0
   91         c3      4    bbb     C1     91 0.44180000  12.010000   ; qtot 0.441800
   92         h1      4    bbb     H1     92 -0.03530000   1.008000   ; qtot 0.406500
   93         h1      4    bbb     H2     93 -0.03530000   1.008000   ; qtot 0.371200
   94         c3      4    bbb     C2     94 -0.28250000  12.010000   ; qtot 0.088700
   95         h1      4    bbb     H3     95 0.15710000   1.008000   ; qtot 0.245800
   96         h1      4    bbb     H4     96 0.15710000   1.008000   ; qtot 0.402900
   97         n3      4    bbb     N1     97 -0.74090000  14.010000   ; qtot -0.338000
   98         c3      4    bbb     C3     98 0.51680000  12.010000   ; qtot 0.178800
   99         h1      4    bbb     H5     99 -0.05230000   1.008000   ; qtot 0.126500
  100         h1      4    bbb     H6    100 -0.05230000   1.008000   ; qtot 0.074200
  101         c3      4    bbb     C4    101 0.51680000  12.010000   ; qtot 0.591000
  102         h1      4    bbb     H7    102 -0.05230000   1.008000   ; qtot 0.538700
  103         h1      4    bbb     H8    103 -0.05230000   1.008000   ; qtot 0.486400
  104         c3      4    bbb     C5    104 -0.60390000  12.010000   ; qtot -0.117500
  105         hc      4    bbb     H9    105 0.16730000   1.008000   ; qtot 0.049800
  106         hc      4    bbb    H10    106 0.16730000   1.008000   ; qtot 0.217100
  107         c3      4    bbb     C6    107 -0.60390000  12.010000   ; qtot -0.386800
  108         hc      4    bbb    H11    108 0.16730000   1.008000   ; qtot -0.219500
  109         hc      4    bbb    H12    109 0.16730000   1.008000   ; qtot -0.052200
  110          c      4    bbb     C7    110 0.72110000  12.010000   ; qtot 0.668900
  111          c      4    bbb     C8    111 0.72110000  12.010000   ; qtot 1.390000
  112          o      4    bbb     O1    112 -0.61950000  16.000000   ; qtot 0.770500
  113          o      4    bbb     O2    113 -0.61950000  16.000000   ; qtot 0.151000
  114          n      4    bbb     N4    114 -0.46580000  14.010000   ; qtot -0.314800
  115         hn      4    bbb    H21    115 0.31480000   1.008000   ; qtot -0.000000
; residue    5 bbb rtp bbb q -0.0
  116         c3      5    bbb     C1    116 0.44180000  12.010000   ; qtot 0.441800
  117         h1      5    bbb     H1    117 -0.03530000   1.008000   ; qtot 0.406500
  118         h1      5    bbb     H2    118 -0.03530000   1.008000   ; qtot 0.371200
  119         c3      5    bbb     C2    119 -0.28250000  12.010000   ; qtot 0.088700
  120         h1      5    bbb     H3    120 0.15710000   1.008000   ; qtot 0.245800
  121         h1      5    bbb     H4    121 0.15710000   1.008000   ; qtot 0.402900
  122         n3      5    bbb     N1    122 -0.74090000  14.010000   ; qtot -0.338000
  123         c3      5    bbb     C3    123 0.51680000  12.010000   ; qtot 0.178800
  124         h1      5    bbb     H5    124 -0.05230000   1.008000   ; qtot 0.126500
  125         h1      5    bbb     H6    125 -0.05230000   1.008000   ; qtot 0.074200
  126         c3      5    bbb     C4    126 0.51680000  12.010000   ; qtot 0.591000
  127         h1      5    bbb     H7    127 -0.05230000   1.008000   ; qtot 0.538700
  128         h1      5    bbb     H8    128 -0.05230000   1.008000   ; qtot 0.486400
  129         c3      5    bbb     C5    129 -0.60390000  12.010000   ; qtot -0.117500
  130         hc      5    bbb     H9    130 0.16730000   1.008000   ; qtot 0.049800
  131         hc      5    bbb    H10    131 0.16730000   1.008000   ; qtot 0.217100
  132         c3      5    bbb     C6    132 -0.60390000  12.010000   ; qtot -0.386800
  133         hc      5    bbb    H11    133 0.16730000   1.008000   ; qtot -0.219500
  134         hc      5    bbb    H12    134 0.16730000   1.008000   ; qtot -0.052200
  135          c      5    bbb     C7    135 0.72110000  12.010000   ; qtot 0.668900
  136          c      5    bbb     C8    136 0.72110000  12.010000   ; qtot 1.390000
  137          o      5    bbb     O1    137 -0.61950000  16.000000   ; qtot 0.770500
  138          o      5    bbb     O2    138 -0.61950000  16.000000   ; qtot 0.151000
  139          n      5    bbb     N4    139 -0.46580000  14.010000   ; qtot -0.314800
  140         hn      5    bbb    H21    140 0.31480000   1.008000   ; qtot -0.000000
; residue    6 bbb rtp bbb q -0.0
  141         c3      6    bbb     C1    141 0.44180000  12.010000   ; qtot 0.441800
  142         h1      6    bbb     H1    142 -0.03530000   1.008000   ; qtot 0.406500
  143         h1      6    bbb     H2    143 -0.03530000   1.008000   ; qtot 0.371200
  144         c3      6    bbb     C2    144 -0.28250000  12.010000   ; qtot 0.088700
  145         h1      6    bbb     H3    145 0.15710000   1.008000   ; qtot 0.245800
  146         h1      6    bbb     H4    146 0.15710000   1.008000   ; qtot 0.402900
  147         n3      6    bbb     N1    147 -0.74090000  14.010000   ; qtot -0.338000
  148         c3      6    bbb     C3    148 0.51680000  12.010000   ; qtot 0.178800
  149         h1      6    bbb     H5    149 -0.05230000   1.008000   ; qtot 0.126500
  150         h1      6    bbb     H6    150 -0.05230000   1.008000   ; qtot 0.074200
  151         c3      6    bbb     C4    151 0.51680000  12.010000   ; qtot 0.591000
  152         h1      6    bbb     H7    152 -0.05230000   1.008000   ; qtot 0.538700
  153         h1      6    bbb     H8    153 -0.05230000   1.008000   ; qtot 0.486400
  154         c3      6    bbb     C5    154 -0.60390000  12.010000   ; qtot -0.117500
  155         hc      6    bbb     H9    155 0.16730000   1.008000   ; qtot 0.049800
  156         hc      6    bbb    H10    156 0.16730000   1.008000   ; qtot 0.217100
  157         c3      6    bbb     C6    157 -0.60390000  12.010000   ; qtot -0.386800
  158         hc      6    bbb    H11    158 0.16730000   1.008000   ; qtot -0.219500
  159         hc      6    bbb    H12    159 0.16730000   1.008000   ; qtot -0.052200
  160          c      6    bbb     C7    160 0.72110000  12.010000   ; qtot 0.668900
  161          c      6    bbb     C8    161 0.72110000  12.010000   ; qtot 1.390000
  162          o      6    bbb     O1    162 -0.61950000  16.000000   ; qtot 0.770500
  163          o      6    bbb     O2    163 -0.61950000  16.000000   ; qtot 0.151000
  164          n      6    bbb     N4    164 -0.46580000  14.010000   ; qtot -0.314800
  165         hn      6    bbb    H21    165 0.31480000   1.008000   ; qtot -0.000000
; residue    7 bbb rtp bbb q -0.0
  166         c3      7    bbb     C1    166 0.44180000  12.010000   ; qtot 0.441800
  167         h1      7    bbb     H1    167 -0.03530000   1.008000   ; qtot 0.406500
  168         h1      7    bbb     H2    168 -0.03530000   1.008000   ; qtot 0.371200
  169         c3      7    bbb     C2    169 -0.28250000  12.010000   ; qtot 0.088700
  170         h1      7    bbb     H3    170 0.15710000   1.008000   ; qtot 0.245800
  171         h1      7    bbb     H4    171 0.15710000   1.008000   ; qtot 0.402900
  172         n3      7    bbb     N1    172 -0.74090000  14.010000   ; qtot -0.338000
  173         c3      7    bbb     C3    173 0.51680000  12.010000   ; qtot 0.178800
  174         h1      7    bbb     H5    174 -0.05230000   1.008000   ; qtot 0.126500
  175         h1      7    bbb     H6    175 -0.05230000   1.008000   ; qtot 0.074200
  176         c3      7    bbb     C4    176 0.51680000  12.010000   ; qtot 0.591000
  177         h1      7    bbb     H7    177 -0.05230000   1.008000   ; qtot 0.538700
  178         h1      7    bbb     H8    178 -0.05230000   1.008000   ; qtot 0.486400
  179         c3      7    bbb     C5    179 -0.60390000  12.010000   ; qtot -0.117500
  180         hc      7    bbb     H9    180 0.16730000   1.008000   ; qtot 0.049800
  181         hc      7    bbb    H10    181 0.16730000   1.008000   ; qtot 0.217100
  182         c3      7    bbb     C6    182 -0.60390000  12.010000   ; qtot -0.386800
  183         hc      7    bbb    H11    183 0.16730000   1.008000   ; qtot -0.219500
  184         hc      7    bbb    H12    184 0.16730000   1.008000   ; qtot -0.052200
  185          c      7    bbb     C7    185 0.72110000  12.010000   ; qtot 0.668900
  186          c      7    bbb     C8    186 0.72110000  12.010000   ; qtot 1.390000
  187          o      7    bbb     O1    187 -0.61950000  16.000000   ; qtot 0.770500
  188          o      7    bbb     O2    188 -0.61950000  16.000000   ; qtot 0.151000
  189          n      7    bbb     N4    189 -0.46580000  14.010000   ; qtot -0.314800
  190         hn      7    bbb    H21    190 0.31480000   1.008000   ; qtot -0.000000
; residue    8 bbb rtp bbb q -0.0
  191         c3      8    bbb     C1    191 0.44180000  12.010000   ; qtot 0.441800
  192         h1      8    bbb     H1    192 -0.03530000   1.008000   ; qtot 0.406500
  193         h1      8    bbb     H2    193 -0.03530000   1.008000   ; qtot 0.371200
  194         c3      8    bbb     C2    194 -0.28250000  12.010000   ; qtot 0.088700
  195         h1      8    bbb     H3    195 0.15710000   1.008000   ; qtot 0.245800
  196         h1      8    bbb     H4    196 0.15710000   1.008000   ; qtot 0.402900
  197         n3      8    bbb     N1    197 -0.74090000  14.010000   ; qtot -0.338000
  198         c3      8    bbb     C3    198 0.51680000  12.010000   ; qtot 0.178800
  199         h1      8    bbb     H5    199 -0.05230000   1.008000   ; qtot 0.126500
  200         h1      8    bbb     H6    200 -0.05230000   1.008000   ; qtot 0.074200
  201         c3      8    bbb     C4    201 0.51680000  12.010000   ; qtot 0.591000
  202         h1      8    bbb     H7    202 -0.05230000   1.008000   ; qtot 0.538700
  203         h1      8    bbb     H8    203 -0.05230000   1.008000   ; qtot 0.486400
  204         c3      8    bbb     C5    204 -0.60390000  12.010000   ; qtot -0.117500
  205         hc      8    bbb     H9    205 0.16730000   1.008000   ; qtot 0.049800
  206         hc      8    bbb    H10    206 0.16730000   1.008000   ; qtot 0.217100
  207         c3      8    bbb     C6    207 -0.60390000  12.010000   ; qtot -0.386800
  208         hc      8    bbb    H11    208 0.16730000   1.008000   ; qtot -0.219500
  209         hc      8    bbb    H12    209 0.16730000   1.008000   ; qtot -0.052200
  210          c      8    bbb     C7    210 0.72110000  12.010000   ; qtot 0.668900
  211          c      8    bbb     C8    211 0.72110000  12.010000   ; qtot 1.390000
  212          o      8    bbb     O1    212 -0.61950000  16.000000   ; qtot 0.770500
  213          o      8    bbb     O2    213 -0.61950000  16.000000   ; qtot 0.151000
  214          n      8    bbb     N4    214 -0.46580000  14.010000   ; qtot -0.314800
  215         hn      8    bbb    H21    215 0.31480000   1.008000   ; qtot -0.000000
; residue    9 bbb rtp bbb q -0.0
  216         c3      9    bbb     C1    216 0.44180000  12.010000   ; qtot 0.441800
  217         h1      9    bbb     H1    217 -0.03530000   1.008000   ; qtot 0.406500
  218         h1      9    bbb     H2    218 -0.03530000   1.008000   ; qtot 0.371200
  219         c3      9    bbb     C2    219 -0.28250000  12.010000   ; qtot 0.088700
  220         h1      9    bbb     H3    220 0.15710000   1.008000   ; qtot 0.245800
  221         h1      9    bbb     H4    221 0.15710000   1.008000   ; qtot 0.402900
  222         n3      9    bbb     N1    222 -0.74090000  14.010000   ; qtot -0.338000
  223         c3      9    bbb     C3    223 0.51680000  12.010000   ; qtot 0.178800
  224         h1      9    bbb     H5    224 -0.05230000   1.008000   ; qtot 0.126500
  225         h1      9    bbb     H6    225 -0.05230000   1.008000   ; qtot 0.074200
  226         c3      9    bbb     C4    226 0.51680000  12.010000   ; qtot 0.591000
  227         h1      9    bbb     H7    227 -0.05230000   1.008000   ; qtot 0.538700
  228         h1      9    bbb     H8    228 -0.05230000   1.008000   ; qtot 0.486400
  229         c3      9    bbb     C5    229 -0.60390000  12.010000   ; qtot -0.117500
  230         hc      9    bbb     H9    230 0.16730000   1.008000   ; qtot 0.049800
  231         hc      9    bbb    H10    231 0.16730000   1.008000   ; qtot 0.217100
  232         c3      9    bbb     C6    232 -0.60390000  12.010000   ; qtot -0.386800
  233         hc      9    bbb    H11    233 0.16730000   1.008000   ; qtot -0.219500
  234         hc      9    bbb    H12    234 0.16730000   1.008000   ; qtot -0.052200
  235          c      9    bbb     C7    235 0.72110000  12.010000   ; qtot 0.668900
  236          c      9    bbb     C8    236 0.72110000  12.010000   ; qtot 1.390000
  237          o      9    bbb     O1    237 -0.61950000  16.000000   ; qtot 0.770500
  238          o      9    bbb     O2    238 -0.61950000  16.000000   ; qtot 0.151000
  239          n      9    bbb     N4    239 -0.46580000  14.010000   ; qtot -0.314800
  240         hn      9    bbb    H21    240 0.31480000   1.008000   ; qtot -0.000000
; residue   10 bbb rtp bbb q -0.0
  241         c3     10    bbb     C1    241 0.44180000  12.010000   ; qtot 0.441800
  242         h1     10    bbb     H1    242 -0.03530000   1.008000   ; qtot 0.406500
  243         h1     10    bbb     H2    243 -0.03530000   1.008000   ; qtot 0.371200
  244         c3     10    bbb     C2    244 -0.28250000  12.010000   ; qtot 0.088700
  245         h1     10    bbb     H3    245 0.15710000   1.008000   ; qtot 0.245800
  246         h1     10    bbb     H4    246 0.15710000   1.008000   ; qtot 0.402900
  247         n3     10    bbb     N1    247 -0.74090000  14.010000   ; qtot -0.338000
  248         c3     10    bbb     C3    248 0.51680000  12.010000   ; qtot 0.178800
  249         h1     10    bbb     H5    249 -0.05230000   1.008000   ; qtot 0.126500
  250         h1     10    bbb     H6    250 -0.05230000   1.008000   ; qtot 0.074200
  251         c3     10    bbb     C4    251 0.51680000  12.010000   ; qtot 0.591000
  252         h1     10    bbb     H7    252 -0.05230000   1.008000   ; qtot 0.538700
  253         h1     10    bbb     H8    253 -0.05230000   1.008000   ; qtot 0.486400
  254         c3     10    bbb     C5    254 -0.60390000  12.010000   ; qtot -0.117500
  255         hc     10    bbb     H9    255 0.16730000   1.008000   ; qtot 0.049800
  256         hc     10    bbb    H10    256 0.16730000   1.008000   ; qtot 0.217100
  257         c3     10    bbb     C6    257 -0.60390000  12.010000   ; qtot -0.386800
  258         hc     10    bbb    H11    258 0.16730000   1.008000   ; qtot -0.219500
  259         hc     10    bbb    H12    259 0.16730000   1.008000   ; qtot -0.052200
  260          c     10    bbb     C7    260 0.72110000  12.010000   ; qtot 0.668900
  261          c     10    bbb     C8    261 0.72110000  12.010000   ; qtot 1.390000
  262          o     10    bbb     O1    262 -0.61950000  16.000000   ; qtot 0.770500
  263          o     10    bbb     O2    263 -0.61950000  16.000000   ; qtot 0.151000
  264          n     10    bbb     N4    264 -0.46580000  14.010000   ; qtot -0.314800
  265         hn     10    bbb    H21    265 0.31480000   1.008000   ; qtot -0.000000
; residue   11 bbb rtp bbb q -0.0
  266         c3     11    bbb     C1    266 0.44180000  12.010000   ; qtot 0.441800
  267         h1     11    bbb     H1    267 -0.03530000   1.008000   ; qtot 0.406500
  268         h1     11    bbb     H2    268 -0.03530000   1.008000   ; qtot 0.371200
  269         c3     11    bbb     C2    269 -0.28250000  12.010000   ; qtot 0.088700
  270         h1     11    bbb     H3    270 0.15710000   1.008000   ; qtot 0.245800
  271         h1     11    bbb     H4    271 0.15710000   1.008000   ; qtot 0.402900
  272         n3     11    bbb     N1    272 -0.74090000  14.010000   ; qtot -0.338000
  273         c3     11    bbb     C3    273 0.51680000  12.010000   ; qtot 0.178800
  274         h1     11    bbb     H5    274 -0.05230000   1.008000   ; qtot 0.126500
  275         h1     11    bbb     H6    275 -0.05230000   1.008000   ; qtot 0.074200
  276         c3     11    bbb     C4    276 0.51680000  12.010000   ; qtot 0.591000
  277         h1     11    bbb     H7    277 -0.05230000   1.008000   ; qtot 0.538700
  278         h1     11    bbb     H8    278 -0.05230000   1.008000   ; qtot 0.486400
  279         c3     11    bbb     C5    279 -0.60390000  12.010000   ; qtot -0.117500
  280         hc     11    bbb     H9    280 0.16730000   1.008000   ; qtot 0.049800
  281         hc     11    bbb    H10    281 0.16730000   1.008000   ; qtot 0.217100
  282         c3     11    bbb     C6    282 -0.60390000  12.010000   ; qtot -0.386800
  283         hc     11    bbb    H11    283 0.16730000   1.008000   ; qtot -0.219500
  284         hc     11    bbb    H12    284 0.16730000   1.008000   ; qtot -0.052200
  285          c     11    bbb     C7    285 0.72110000  12.010000   ; qtot 0.668900
  286          c     11    bbb     C8    286 0.72110000  12.010000   ; qtot 1.390000
  287          o     11    bbb     O1    287 -0.61950000  16.000000   ; qtot 0.770500
  288          o     11    bbb     O2    288 -0.61950000  16.000000   ; qtot 0.151000
  289          n     11    bbb     N4    289 -0.46580000  14.010000   ; qtot -0.314800
  290         hn     11    bbb    H21    290 0.31480000   1.008000   ; qtot -0.000000
; residue   12 bbb rtp bbb q -0.0
  291         c3     12    bbb     C1    291 0.44180000  12.010000   ; qtot 0.441800
  292         h1     12    bbb     H1    292 -0.03530000   1.008000   ; qtot 0.406500
  293         h1     12    bbb     H2    293 -0.03530000   1.008000   ; qtot 0.371200
  294         c3     12    bbb     C2    294 -0.28250000  12.010000   ; qtot 0.088700
  295         h1     12    bbb     H3    295 0.15710000   1.008000   ; qtot 0.245800
  296         h1     12    bbb     H4    296 0.15710000   1.008000   ; qtot 0.402900
  297         n3     12    bbb     N1    297 -0.74090000  14.010000   ; qtot -0.338000
  298         c3     12    bbb     C3    298 0.51680000  12.010000   ; qtot 0.178800
  299         h1     12    bbb     H5    299 -0.05230000   1.008000   ; qtot 0.126500
  300         h1     12    bbb     H6    300 -0.05230000   1.008000   ; qtot 0.074200
  301         c3     12    bbb     C4    301 0.51680000  12.010000   ; qtot 0.591000
  302         h1     12    bbb     H7    302 -0.05230000   1.008000   ; qtot 0.538700
  303         h1     12    bbb     H8    303 -0.05230000   1.008000   ; qtot 0.486400
  304         c3     12    bbb     C5    304 -0.60390000  12.010000   ; qtot -0.117500
  305         hc     12    bbb     H9    305 0.16730000   1.008000   ; qtot 0.049800
  306         hc     12    bbb    H10    306 0.16730000   1.008000   ; qtot 0.217100
  307         c3     12    bbb     C6    307 -0.60390000  12.010000   ; qtot -0.386800
  308         hc     12    bbb    H11    308 0.16730000   1.008000   ; qtot -0.219500
  309         hc     12    bbb    H12    309 0.16730000   1.008000   ; qtot -0.052200
  310          c     12    bbb     C7    310 0.72110000  12.010000   ; qtot 0.668900
  311          c     12    bbb     C8    311 0.72110000  12.010000   ; qtot 1.390000
  312          o     12    bbb     O1    312 -0.61950000  16.000000   ; qtot 0.770500
  313          o     12    bbb     O2    313 -0.61950000  16.000000   ; qtot 0.151000
  314          n     12    bbb     N4    314 -0.46580000  14.010000   ; qtot -0.314800
  315         hn     12    bbb    H21    315 0.31480000   1.008000   ; qtot -0.000000
; residue   13 bbb rtp bbb q -0.0
  316         c3     13    bbb     C1    316 0.44180000  12.010000   ; qtot 0.441800
  317         h1     13    bbb     H1    317 -0.03530000   1.008000   ; qtot 0.406500
  318         h1     13    bbb     H2    318 -0.03530000   1.008000   ; qtot 0.371200
  319         c3     13    bbb     C2    319 -0.28250000  12.010000   ; qtot 0.088700
  320         h1     13    bbb     H3    320 0.15710000   1.008000   ; qtot 0.245800
  321         h1     13    bbb     H4    321 0.15710000   1.008000   ; qtot 0.402900
  322         n3     13    bbb     N1    322 -0.74090000  14.010000   ; qtot -0.338000
  323         c3     13    bbb     C3    323 0.51680000  12.010000   ; qtot 0.178800
  324         h1     13    bbb     H5    324 -0.05230000   1.008000   ; qtot 0.126500
  325         h1     13    bbb     H6    325 -0.05230000   1.008000   ; qtot 0.074200
  326         c3     13    bbb     C4    326 0.51680000  12.010000   ; qtot 0.591000
  327         h1     13    bbb     H7    327 -0.05230000   1.008000   ; qtot 0.538700
  328         h1     13    bbb     H8    328 -0.05230000   1.008000   ; qtot 0.486400
  329         c3     13    bbb     C5    329 -0.60390000  12.010000   ; qtot -0.117500
  330         hc     13    bbb     H9    330 0.16730000   1.008000   ; qtot 0.049800
  331         hc     13    bbb    H10    331 0.16730000   1.008000   ; qtot 0.217100
  332         c3     13    bbb     C6    332 -0.60390000  12.010000   ; qtot -0.386800
  333         hc     13    bbb    H11    333 0.16730000   1.008000   ; qtot -0.219500
  334         hc     13    bbb    H12    334 0.16730000   1.008000   ; qtot -0.052200
  335          c     13    bbb     C7    335 0.72110000  12.010000   ; qtot 0.668900
  336          c     13    bbb     C8    336 0.72110000  12.010000   ; qtot 1.390000
  337          o     13    bbb     O1    337 -0.61950000  16.000000   ; qtot 0.770500
  338          o     13    bbb     O2    338 -0.61950000  16.000000   ; qtot 0.151000
  339          n     13    bbb     N4    339 -0.46580000  14.010000   ; qtot -0.314800
  340         hn     13    bbb    H21    340 0.31480000   1.008000   ; qtot -0.000000
; residue   14 bbb rtp bbb q -0.0
  341         c3     14    bbb     C1    341 0.44180000  12.010000   ; qtot 0.441800
  342         h1     14    bbb     H1    342 -0.03530000   1.008000   ; qtot 0.406500
  343         h1     14    bbb     H2    343 -0.03530000   1.008000   ; qtot 0.371200
  344         c3     14    bbb     C2    344 -0.28250000  12.010000   ; qtot 0.088700
  345         h1     14    bbb     H3    345 0.15710000   1.008000   ; qtot 0.245800
  346         h1     14    bbb     H4    346 0.15710000   1.008000   ; qtot 0.402900
  347         n3     14    bbb     N1    347 -0.74090000  14.010000   ; qtot -0.338000
  348         c3     14    bbb     C3    348 0.51680000  12.010000   ; qtot 0.178800
  349         h1     14    bbb     H5    349 -0.05230000   1.008000   ; qtot 0.126500
  350         h1     14    bbb     H6    350 -0.05230000   1.008000   ; qtot 0.074200
  351         c3     14    bbb     C4    351 0.51680000  12.010000   ; qtot 0.591000
  352         h1     14    bbb     H7    352 -0.05230000   1.008000   ; qtot 0.538700
  353         h1     14    bbb     H8    353 -0.05230000   1.008000   ; qtot 0.486400
  354         c3     14    bbb     C5    354 -0.60390000  12.010000   ; qtot -0.117500
  355         hc     14    bbb     H9    355 0.16730000   1.008000   ; qtot 0.049800
  356         hc     14    bbb    H10    356 0.16730000   1.008000   ; qtot 0.217100
  357         c3     14    bbb     C6    357 -0.60390000  12.010000   ; qtot -0.386800
  358         hc     14    bbb    H11    358 0.16730000   1.008000   ; qtot -0.219500
  359         hc     14    bbb    H12    359 0.16730000   1.008000   ; qtot -0.052200
  360          c     14    bbb     C7    360 0.72110000  12.010000   ; qtot 0.668900
  361          c     14    bbb     C8    361 0.72110000  12.010000   ; qtot 1.390000
  362          o     14    bbb     O1    362 -0.61950000  16.000000   ; qtot 0.770500
  363          o     14    bbb     O2    363 -0.61950000  16.000000   ; qtot 0.151000
  364          n     14    bbb     N4    364 -0.46580000  14.010000   ; qtot -0.314800
  365         hn     14    bbb    H21    365 0.31480000   1.008000   ; qtot -0.000000
; residue   15 bbb rtp bbb q -0.0
  366         c3     15    bbb     C1    366 0.44180000  12.010000   ; qtot 0.441800
  367         h1     15    bbb     H1    367 -0.03530000   1.008000   ; qtot 0.406500
  368         h1     15    bbb     H2    368 -0.03530000   1.008000   ; qtot 0.371200
  369         c3     15    bbb     C2    369 -0.28250000  12.010000   ; qtot 0.088700
  370         h1     15    bbb     H3    370 0.15710000   1.008000   ; qtot 0.245800
  371         h1     15    bbb     H4    371 0.15710000   1.008000   ; qtot 0.402900
  372         n3     15    bbb     N1    372 -0.74090000  14.010000   ; qtot -0.338000
  373         c3     15    bbb     C3    373 0.51680000  12.010000   ; qtot 0.178800
  374         h1     15    bbb     H5    374 -0.05230000   1.008000   ; qtot 0.126500
  375         h1     15    bbb     H6    375 -0.05230000   1.008000   ; qtot 0.074200
  376         c3     15    bbb     C4    376 0.51680000  12.010000   ; qtot 0.591000
  377         h1     15    bbb     H7    377 -0.05230000   1.008000   ; qtot 0.538700
  378         h1     15    bbb     H8    378 -0.05230000   1.008000   ; qtot 0.486400
  379         c3     15    bbb     C5    379 -0.60390000  12.010000   ; qtot -0.117500
  380         hc     15    bbb     H9    380 0.16730000   1.008000   ; qtot 0.049800
  381         hc     15    bbb    H10    381 0.16730000   1.008000   ; qtot 0.217100
  382         c3     15    bbb     C6    382 -0.60390000  12.010000   ; qtot -0.386800
  383         hc     15    bbb    H11    383 0.16730000   1.008000   ; qtot -0.219500
  384         hc     15    bbb    H12    384 0.16730000   1.008000   ; qtot -0.052200
  385          c     15    bbb     C7    385 0.72110000  12.010000   ; qtot 0.668900
  386          c     15    bbb     C8    386 0.72110000  12.010000   ; qtot 1.390000
  387          o     15    bbb     O1    387 -0.61950000  16.000000   ; qtot 0.770500
  388          o     15    bbb     O2    388 -0.61950000  16.000000   ; qtot 0.151000
  389          n     15    bbb     N4    389 -0.46580000  14.010000   ; qtot -0.314800
  390         hn     15    bbb    H21    390 0.31480000   1.008000   ; qtot -0.000000
; residue   16 bbb rtp bbb q -0.0
  391         c3     16    bbb     C1    391 0.44180000  12.010000   ; qtot 0.441800
  392         h1     16    bbb     H1    392 -0.03530000   1.008000   ; qtot 0.406500
  393         h1     16    bbb     H2    393 -0.03530000   1.008000   ; qtot 0.371200
  394         c3     16    bbb     C2    394 -0.28250000  12.010000   ; qtot 0.088700
  395         h1     16    bbb     H3    395 0.15710000   1.008000   ; qtot 0.245800
  396         h1     16    bbb     H4    396 0.15710000   1.008000   ; qtot 0.402900
  397         n3     16    bbb     N1    397 -0.74090000  14.010000   ; qtot -0.338000
  398         c3     16    bbb     C3    398 0.51680000  12.010000   ; qtot 0.178800
  399         h1     16    bbb     H5    399 -0.05230000   1.008000   ; qtot 0.126500
  400         h1     16    bbb     H6    400 -0.05230000   1.008000   ; qtot 0.074200
  401         c3     16    bbb     C4    401 0.51680000  12.010000   ; qtot 0.591000
  402         h1     16    bbb     H7    402 -0.05230000   1.008000   ; qtot 0.538700
  403         h1     16    bbb     H8    403 -0.05230000   1.008000   ; qtot 0.486400
  404         c3     16    bbb     C5    404 -0.60390000  12.010000   ; qtot -0.117500
  405         hc     16    bbb     H9    405 0.16730000   1.008000   ; qtot 0.049800
  406         hc     16    bbb    H10    406 0.16730000   1.008000   ; qtot 0.217100
  407         c3     16    bbb     C6    407 -0.60390000  12.010000   ; qtot -0.386800
  408         hc     16    bbb    H11    408 0.16730000   1.008000   ; qtot -0.219500
  409         hc     16    bbb    H12    409 0.16730000   1.008000   ; qtot -0.052200
  410          c     16    bbb     C7    410 0.72110000  12.010000   ; qtot 0.668900
  411          c     16    bbb     C8    411 0.72110000  12.010000   ; qtot 1.390000
  412          o     16    bbb     O1    412 -0.61950000  16.000000   ; qtot 0.770500
  413          o     16    bbb     O2    413 -0.61950000  16.000000   ; qtot 0.151000
  414          n     16    bbb     N4    414 -0.46580000  14.010000   ; qtot -0.314800
  415         hn     16    bbb    H21    415 0.31480000   1.008000   ; qtot -0.000000
; residue   17 bbb rtp bbb q -0.0
  416         c3     17    bbb     C1    416 0.44180000  12.010000   ; qtot 0.441800
  417         h1     17    bbb     H1    417 -0.03530000   1.008000   ; qtot 0.406500
  418         h1     17    bbb     H2    418 -0.03530000   1.008000   ; qtot 0.371200
  419         c3     17    bbb     C2    419 -0.28250000  12.010000   ; qtot 0.088700
  420         h1     17    bbb     H3    420 0.15710000   1.008000   ; qtot 0.245800
  421         h1     17    bbb     H4    421 0.15710000   1.008000   ; qtot 0.402900
  422         n3     17    bbb     N1    422 -0.74090000  14.010000   ; qtot -0.338000
  423         c3     17    bbb     C3    423 0.51680000  12.010000   ; qtot 0.178800
  424         h1     17    bbb     H5    424 -0.05230000   1.008000   ; qtot 0.126500
  425         h1     17    bbb     H6    425 -0.05230000   1.008000   ; qtot 0.074200
  426         c3     17    bbb     C4    426 0.51680000  12.010000   ; qtot 0.591000
  427         h1     17    bbb     H7    427 -0.05230000   1.008000   ; qtot 0.538700
  428         h1     17    bbb     H8    428 -0.05230000   1.008000   ; qtot 0.486400
  429         c3     17    bbb     C5    429 -0.60390000  12.010000   ; qtot -0.117500
  430         hc     17    bbb     H9    430 0.16730000   1.008000   ; qtot 0.049800
  431         hc     17    bbb    H10    431 0.16730000   1.008000   ; qtot 0.217100
  432         c3     17    bbb     C6    432 -0.60390000  12.010000   ; qtot -0.386800
  433         hc     17    bbb    H11    433 0.16730000   1.008000   ; qtot -0.219500
  434         hc     17    bbb    H12    434 0.16730000   1.008000   ; qtot -0.052200
  435          c     17    bbb     C7    435 0.72110000  12.010000   ; qtot 0.668900
  436          c     17    bbb     C8    436 0.72110000  12.010000   ; qtot 1.390000
  437          o     17    bbb     O1    437 -0.61950000  16.000000   ; qtot 0.770500
  438          o     17    bbb     O2    438 -0.61950000  16.000000   ; qtot 0.151000
  439          n     17    bbb     N4    439 -0.46580000  14.010000   ; qtot -0.314800
  440         hn     17    bbb    H21    440 0.31480000   1.008000   ; qtot -0.000000
; residue   18 bbb rtp bbb q -0.0
  441         c3     18    bbb     C1    441 0.44180000  12.010000   ; qtot 0.441800
  442         h1     18    bbb     H1    442 -0.03530000   1.008000   ; qtot 0.406500
  443         h1     18    bbb     H2    443 -0.03530000   1.008000   ; qtot 0.371200
  444         c3     18    bbb     C2    444 -0.28250000  12.010000   ; qtot 0.088700
  445         h1     18    bbb     H3    445 0.15710000   1.008000   ; qtot 0.245800
  446         h1     18    bbb     H4    446 0.15710000   1.008000   ; qtot 0.402900
  447         n3     18    bbb     N1    447 -0.74090000  14.010000   ; qtot -0.338000
  448         c3     18    bbb     C3    448 0.51680000  12.010000   ; qtot 0.178800
  449         h1     18    bbb     H5    449 -0.05230000   1.008000   ; qtot 0.126500
  450         h1     18    bbb     H6    450 -0.05230000   1.008000   ; qtot 0.074200
  451         c3     18    bbb     C4    451 0.51680000  12.010000   ; qtot 0.591000
  452         h1     18    bbb     H7    452 -0.05230000   1.008000   ; qtot 0.538700
  453         h1     18    bbb     H8    453 -0.05230000   1.008000   ; qtot 0.486400
  454         c3     18    bbb     C5    454 -0.60390000  12.010000   ; qtot -0.117500
  455         hc     18    bbb     H9    455 0.16730000   1.008000   ; qtot 0.049800
  456         hc     18    bbb    H10    456 0.16730000   1.008000   ; qtot 0.217100
  457         c3     18    bbb     C6    457 -0.60390000  12.010000   ; qtot -0.386800
  458         hc     18    bbb    H11    458 0.16730000   1.008000   ; qtot -0.219500
  459         hc     18    bbb    H12    459 0.16730000   1.008000   ; qtot -0.052200
  460          c     18    bbb     C7    460 0.72110000  12.010000   ; qtot 0.668900
  461          c     18    bbb     C8    461 0.72110000  12.010000   ; qtot 1.390000
  462          o     18    bbb     O1    462 -0.61950000  16.000000   ; qtot 0.770500
  463          o     18    bbb     O2    463 -0.61950000  16.000000   ; qtot 0.151000
  464          n     18    bbb     N4    464 -0.46580000  14.010000   ; qtot -0.314800
  465         hn     18    bbb    H21    465 0.31480000   1.008000   ; qtot -0.000000
; residue   19 bbb rtp bbb q -0.0
  466         c3     19    bbb     C1    466 0.44180000  12.010000   ; qtot 0.441800
  467         h1     19    bbb     H1    467 -0.03530000   1.008000   ; qtot 0.406500
  468         h1     19    bbb     H2    468 -0.03530000   1.008000   ; qtot 0.371200
  469         c3     19    bbb     C2    469 -0.28250000  12.010000   ; qtot 0.088700
  470         h1     19    bbb     H3    470 0.15710000   1.008000   ; qtot 0.245800
  471         h1     19    bbb     H4    471 0.15710000   1.008000   ; qtot 0.402900
  472         n3     19    bbb     N1    472 -0.74090000  14.010000   ; qtot -0.338000
  473         c3     19    bbb     C3    473 0.51680000  12.010000   ; qtot 0.178800
  474         h1     19    bbb     H5    474 -0.05230000   1.008000   ; qtot 0.126500
  475         h1     19    bbb     H6    475 -0.05230000   1.008000   ; qtot 0.074200
  476         c3     19    bbb     C4    476 0.51680000  12.010000   ; qtot 0.591000
  477         h1     19    bbb     H7    477 -0.05230000   1.008000   ; qtot 0.538700
  478         h1     19    bbb     H8    478 -0.05230000   1.008000   ; qtot 0.486400
  479         c3     19    bbb     C5    479 -0.60390000  12.010000   ; qtot -0.117500
  480         hc     19    bbb     H9    480 0.16730000   1.008000   ; qtot 0.049800
  481         hc     19    bbb    H10    481 0.16730000   1.008000   ; qtot 0.217100
  482         c3     19    bbb     C6    482 -0.60390000  12.010000   ; qtot -0.386800
  483         hc     19    bbb    H11    483 0.16730000   1.008000   ; qtot -0.219500
  484         hc     19    bbb    H12    484 0.16730000   1.008000   ; qtot -0.052200
  485          c     19    bbb     C7    485 0.72110000  12.010000   ; qtot 0.668900
  486          c     19    bbb     C8    486 0.72110000  12.010000   ; qtot 1.390000
  487          o     19    bbb     O1    487 -0.61950000  16.000000   ; qtot 0.770500
  488          o     19    bbb     O2    488 -0.61950000  16.000000   ; qtot 0.151000
  489          n     19    bbb     N4    489 -0.46580000  14.010000   ; qtot -0.314800
  490         hn     19    bbb    H21    490 0.31480000   1.008000   ; qtot -0.000000
; residue   20 bbb rtp bbb q -0.0
  491         c3     20    bbb     C1    491 0.44180000  12.010000   ; qtot 0.441800
  492         h1     20    bbb     H1    492 -0.03530000   1.008000   ; qtot 0.406500
  493         h1     20    bbb     H2    493 -0.03530000   1.008000   ; qtot 0.371200
  494         c3     20    bbb     C2    494 -0.28250000  12.010000   ; qtot 0.088700
  495         h1     20    bbb     H3    495 0.15710000   1.008000   ; qtot 0.245800
  496         h1     20    bbb     H4    496 0.15710000   1.008000   ; qtot 0.402900
  497         n3     20    bbb     N1    497 -0.74090000  14.010000   ; qtot -0.338000
  498         c3     20    bbb     C3    498 0.51680000  12.010000   ; qtot 0.178800
  499         h1     20    bbb     H5    499 -0.05230000   1.008000   ; qtot 0.126500
  500         h1     20    bbb     H6    500 -0.05230000   1.008000   ; qtot 0.074200
  501         c3     20    bbb     C4    501 0.51680000  12.010000   ; qtot 0.591000
  502         h1     20    bbb     H7    502 -0.05230000   1.008000   ; qtot 0.538700
  503         h1     20    bbb     H8    503 -0.05230000   1.008000   ; qtot 0.486400
  504         c3     20    bbb     C5    504 -0.60390000  12.010000   ; qtot -0.117500
  505         hc     20    bbb     H9    505 0.16730000   1.008000   ; qtot 0.049800
  506         hc     20    bbb    H10    506 0.16730000   1.008000   ; qtot 0.217100
  507         c3     20    bbb     C6    507 -0.60390000  12.010000   ; qtot -0.386800
  508         hc     20    bbb    H11    508 0.16730000   1.008000   ; qtot -0.219500
  509         hc     20    bbb    H12    509 0.16730000   1.008000   ; qtot -0.052200
  510          c     20    bbb     C7    510 0.72110000  12.010000   ; qtot 0.668900
  511          c     20    bbb     C8    511 0.72110000  12.010000   ; qtot 1.390000
  512          o     20    bbb     O1    512 -0.61950000  16.000000   ; qtot 0.770500
  513          o     20    bbb     O2    513 -0.61950000  16.000000   ; qtot 0.151000
  514          n     20    bbb     N4    514 -0.46580000  14.010000   ; qtot -0.314800
  515         hn     20    bbb    H21    515 0.31480000   1.008000   ; qtot -0.000000
; residue   21 bbb rtp bbb q -0.0
  516         c3     21    bbb     C1    516 0.44180000  12.010000   ; qtot 0.441800
  517         h1     21    bbb     H1    517 -0.03530000   1.008000   ; qtot 0.406500
  518         h1     21    bbb     H2    518 -0.03530000   1.008000   ; qtot 0.371200
  519         c3     21    bbb     C2    519 -0.28250000  12.010000   ; qtot 0.088700
  520         h1     21    bbb     H3    520 0.15710000   1.008000   ; qtot 0.245800
  521         h1     21    bbb     H4    521 0.15710000   1.008000   ; qtot 0.402900
  522         n3     21    bbb     N1    522 -0.74090000  14.010000   ; qtot -0.338000
  523         c3     21    bbb     C3    523 0.51680000  12.010000   ; qtot 0.178800
  524         h1     21    bbb     H5    524 -0.05230000   1.008000   ; qtot 0.126500
  525         h1     21    bbb     H6    525 -0.05230000   1.008000   ; qtot 0.074200
  526         c3     21    bbb     C4    526 0.51680000  12.010000   ; qtot 0.591000
  527         h1     21    bbb     H7    527 -0.05230000   1.008000   ; qtot 0.538700
  528         h1     21    bbb     H8    528 -0.05230000   1.008000   ; qtot 0.486400
  529         c3     21    bbb     C5    529 -0.60390000  12.010000   ; qtot -0.117500
  530         hc     21    bbb     H9    530 0.16730000   1.008000   ; qtot 0.049800
  531         hc     21    bbb    H10    531 0.16730000   1.008000   ; qtot 0.217100
  532         c3     21    bbb     C6    532 -0.60390000  12.010000   ; qtot -0.386800
  533         hc     21    bbb    H11    533 0.16730000   1.008000   ; qtot -0.219500
  534         hc     21    bbb    H12    534 0.16730000   1.008000   ; qtot -0.052200
  535          c     21    bbb     C7    535 0.72110000  12.010000   ; qtot 0.668900
  536          c     21    bbb     C8    536 0.72110000  12.010000   ; qtot 1.390000
  537          o     21    bbb     O1    537 -0.61950000  16.000000   ; qtot 0.770500
  538          o     21    bbb     O2    538 -0.61950000  16.000000   ; qtot 0.151000
  539          n     21    bbb     N4    539 -0.46580000  14.010000   ; qtot -0.314800
  540         hn     21    bbb    H21    540 0.31480000   1.008000   ; qtot -0.000000
; residue   22 bbb rtp bbb q -0.0
  541         c3     22    bbb     C1    541 0.44180000  12.010000   ; qtot 0.441800
  542         h1     22    bbb     H1    542 -0.03530000   1.008000   ; qtot 0.406500
  543         h1     22    bbb     H2    543 -0.03530000   1.008000   ; qtot 0.371200
  544         c3     22    bbb     C2    544 -0.28250000  12.010000   ; qtot 0.088700
  545         h1     22    bbb     H3    545 0.15710000   1.008000   ; qtot 0.245800
  546         h1     22    bbb     H4    546 0.15710000   1.008000   ; qtot 0.402900
  547         n3     22    bbb     N1    547 -0.74090000  14.010000   ; qtot -0.338000
  548         c3     22    bbb     C3    548 0.51680000  12.010000   ; qtot 0.178800
  549         h1     22    bbb     H5    549 -0.05230000   1.008000   ; qtot 0.126500
  550         h1     22    bbb     H6    550 -0.05230000   1.008000   ; qtot 0.074200
  551         c3     22    bbb     C4    551 0.51680000  12.010000   ; qtot 0.591000
  552         h1     22    bbb     H7    552 -0.05230000   1.008000   ; qtot 0.538700
  553         h1     22    bbb     H8    553 -0.05230000   1.008000   ; qtot 0.486400
  554         c3     22    bbb     C5    554 -0.60390000  12.010000   ; qtot -0.117500
  555         hc     22    bbb     H9    555 0.16730000   1.008000   ; qtot 0.049800
  556         hc     22    bbb    H10    556 0.16730000   1.008000   ; qtot 0.217100
  557         c3     22    bbb     C6    557 -0.60390000  12.010000   ; qtot -0.386800
  558         hc     22    bbb    H11    558 0.16730000   1.008000   ; qtot -0.219500
  559         hc     22    bbb    H12    559 0.16730000   1.008000   ; qtot -0.052200
  560          c     22    bbb     C7    560 0.72110000  12.010000   ; qtot 0.668900
  561          c     22    bbb     C8    561 0.72110000  12.010000   ; qtot 1.390000
  562          o     22    bbb     O1    562 -0.61950000  16.000000   ; qtot 0.770500
  563          o     22    bbb     O2    563 -0.61950000  16.000000   ; qtot 0.151000
  564          n     22    bbb     N4    564 -0.46580000  14.010000   ; qtot -0.314800
  565         hn     22    bbb    H21    565 0.31480000   1.008000   ; qtot -0.000000
; residue   23 bbb rtp bbb q -0.0
  566         c3     23    bbb     C1    566 0.44180000  12.010000   ; qtot 0.441800
  567         h1     23    bbb     H1    567 -0.03530000   1.008000   ; qtot 0.406500
  568         h1     23    bbb     H2    568 -0.03530000   1.008000   ; qtot 0.371200
  569         c3     23    bbb     C2    569 -0.28250000  12.010000   ; qtot 0.088700
  570         h1     23    bbb     H3    570 0.15710000   1.008000   ; qtot 0.245800
  571         h1     23    bbb     H4    571 0.15710000   1.008000   ; qtot 0.402900
  572         n3     23    bbb     N1    572 -0.74090000  14.010000   ; qtot -0.338000
  573         c3     23    bbb     C3    573 0.51680000  12.010000   ; qtot 0.178800
  574         h1     23    bbb     H5    574 -0.05230000   1.008000   ; qtot 0.126500
  575         h1     23    bbb     H6    575 -0.05230000   1.008000   ; qtot 0.074200
  576         c3     23    bbb     C4    576 0.51680000  12.010000   ; qtot 0.591000
  577         h1     23    bbb     H7    577 -0.05230000   1.008000   ; qtot 0.538700
  578         h1     23    bbb     H8    578 -0.05230000   1.008000   ; qtot 0.486400
  579         c3     23    bbb     C5    579 -0.60390000  12.010000   ; qtot -0.117500
  580         hc     23    bbb     H9    580 0.16730000   1.008000   ; qtot 0.049800
  581         hc     23    bbb    H10    581 0.16730000   1.008000   ; qtot 0.217100
  582         c3     23    bbb     C6    582 -0.60390000  12.010000   ; qtot -0.386800
  583         hc     23    bbb    H11    583 0.16730000   1.008000   ; qtot -0.219500
  584         hc     23    bbb    H12    584 0.16730000   1.008000   ; qtot -0.052200
  585          c     23    bbb     C7    585 0.72110000  12.010000   ; qtot 0.668900
  586          c     23    bbb     C8    586 0.72110000  12.010000   ; qtot 1.390000
  587          o     23    bbb     O1    587 -0.61950000  16.000000   ; qtot 0.770500
  588          o     23    bbb     O2    588 -0.61950000  16.000000   ; qtot 0.151000
  589          n     23    bbb     N4    589 -0.46580000  14.010000   ; qtot -0.314800
  590         hn     23    bbb    H21    590 0.31480000   1.008000   ; qtot -0.000000
; residue   24 bbb rtp bbb q -0.0
  591         c3     24    bbb     C1    591 0.44180000  12.010000   ; qtot 0.441800
  592         h1     24    bbb     H1    592 -0.03530000   1.008000   ; qtot 0.406500
  593         h1     24    bbb     H2    593 -0.03530000   1.008000   ; qtot 0.371200
  594         c3     24    bbb     C2    594 -0.28250000  12.010000   ; qtot 0.088700
  595         h1     24    bbb     H3    595 0.15710000   1.008000   ; qtot 0.245800
  596         h1     24    bbb     H4    596 0.15710000   1.008000   ; qtot 0.402900
  597         n3     24    bbb     N1    597 -0.74090000  14.010000   ; qtot -0.338000
  598         c3     24    bbb     C3    598 0.51680000  12.010000   ; qtot 0.178800
  599         h1     24    bbb     H5    599 -0.05230000   1.008000   ; qtot 0.126500
  600         h1     24    bbb     H6    600 -0.05230000   1.008000   ; qtot 0.074200
  601         c3     24    bbb     C4    601 0.51680000  12.010000   ; qtot 0.591000
  602         h1     24    bbb     H7    602 -0.05230000   1.008000   ; qtot 0.538700
  603         h1     24    bbb     H8    603 -0.05230000   1.008000   ; qtot 0.486400
  604         c3     24    bbb     C5    604 -0.60390000  12.010000   ; qtot -0.117500
  605         hc     24    bbb     H9    605 0.16730000   1.008000   ; qtot 0.049800
  606         hc     24    bbb    H10    606 0.16730000   1.008000   ; qtot 0.217100
  607         c3     24    bbb     C6    607 -0.60390000  12.010000   ; qtot -0.386800
  608         hc     24    bbb    H11    608 0.16730000   1.008000   ; qtot -0.219500
  609         hc     24    bbb    H12    609 0.16730000   1.008000   ; qtot -0.052200
  610          c     24    bbb     C7    610 0.72110000  12.010000   ; qtot 0.668900
  611          c     24    bbb     C8    611 0.72110000  12.010000   ; qtot 1.390000
  612          o     24    bbb     O1    612 -0.61950000  16.000000   ; qtot 0.770500
  613          o     24    bbb     O2    613 -0.61950000  16.000000   ; qtot 0.151000
  614          n     24    bbb     N4    614 -0.46580000  14.010000   ; qtot -0.314800
  615         hn     24    bbb    H21    615 0.31480000   1.008000   ; qtot -0.000000
; residue   25 bbb rtp bbb q -0.0
  616         c3     25    bbb     C1    616 0.44180000  12.010000   ; qtot 0.441800
  617         h1     25    bbb     H1    617 -0.03530000   1.008000   ; qtot 0.406500
  618         h1     25    bbb     H2    618 -0.03530000   1.008000   ; qtot 0.371200
  619         c3     25    bbb     C2    619 -0.28250000  12.010000   ; qtot 0.088700
  620         h1     25    bbb     H3    620 0.15710000   1.008000   ; qtot 0.245800
  621         h1     25    bbb     H4    621 0.15710000   1.008000   ; qtot 0.402900
  622         n3     25    bbb     N1    622 -0.74090000  14.010000   ; qtot -0.338000
  623         c3     25    bbb     C3    623 0.51680000  12.010000   ; qtot 0.178800
  624         h1     25    bbb     H5    624 -0.05230000   1.008000   ; qtot 0.126500
  625         h1     25    bbb     H6    625 -0.05230000   1.008000   ; qtot 0.074200
  626         c3     25    bbb     C4    626 0.51680000  12.010000   ; qtot 0.591000
  627         h1     25    bbb     H7    627 -0.05230000   1.008000   ; qtot 0.538700
  628         h1     25    bbb     H8    628 -0.05230000   1.008000   ; qtot 0.486400
  629         c3     25    bbb     C5    629 -0.60390000  12.010000   ; qtot -0.117500
  630         hc     25    bbb     H9    630 0.16730000   1.008000   ; qtot 0.049800
  631         hc     25    bbb    H10    631 0.16730000   1.008000   ; qtot 0.217100
  632         c3     25    bbb     C6    632 -0.60390000  12.010000   ; qtot -0.386800
  633         hc     25    bbb    H11    633 0.16730000   1.008000   ; qtot -0.219500
  634         hc     25    bbb    H12    634 0.16730000   1.008000   ; qtot -0.052200
  635          c     25    bbb     C7    635 0.72110000  12.010000   ; qtot 0.668900
  636          c     25    bbb     C8    636 0.72110000  12.010000   ; qtot 1.390000
  637          o     25    bbb     O1    637 -0.61950000  16.000000   ; qtot 0.770500
  638          o     25    bbb     O2    638 -0.61950000  16.000000   ; qtot 0.151000
  639          n     25    bbb     N4    639 -0.46580000  14.010000   ; qtot -0.314800
  640         hn     25    bbb    H21    640 0.31480000   1.008000   ; qtot -0.000000
; residue   26 bbb rtp bbb q -0.0
  641         c3     26    bbb     C1    641 0.44180000  12.010000   ; qtot 0.441800
  642         h1     26    bbb     H1    642 -0.03530000   1.008000   ; qtot 0.406500
  643         h1     26    bbb     H2    643 -0.03530000   1.008000   ; qtot 0.371200
  644         c3     26    bbb     C2    644 -0.28250000  12.010000   ; qtot 0.088700
  645         h1     26    bbb     H3    645 0.15710000   1.008000   ; qtot 0.245800
  646         h1     26    bbb     H4    646 0.15710000   1.008000   ; qtot 0.402900
  647         n3     26    bbb     N1    647 -0.74090000  14.010000   ; qtot -0.338000
  648         c3     26    bbb     C3    648 0.51680000  12.010000   ; qtot 0.178800
  649         h1     26    bbb     H5    649 -0.05230000   1.008000   ; qtot 0.126500
  650         h1     26    bbb     H6    650 -0.05230000   1.008000   ; qtot 0.074200
  651         c3     26    bbb     C4    651 0.51680000  12.010000   ; qtot 0.591000
  652         h1     26    bbb     H7    652 -0.05230000   1.008000   ; qtot 0.538700
  653         h1     26    bbb     H8    653 -0.05230000   1.008000   ; qtot 0.486400
  654         c3     26    bbb     C5    654 -0.60390000  12.010000   ; qtot -0.117500
  655         hc     26    bbb     H9    655 0.16730000   1.008000   ; qtot 0.049800
  656         hc     26    bbb    H10    656 0.16730000   1.008000   ; qtot 0.217100
  657         c3     26    bbb     C6    657 -0.60390000  12.010000   ; qtot -0.386800
  658         hc     26    bbb    H11    658 0.16730000   1.008000   ; qtot -0.219500
  659         hc     26    bbb    H12    659 0.16730000   1.008000   ; qtot -0.052200
  660          c     26    bbb     C7    660 0.72110000  12.010000   ; qtot 0.668900
  661          c     26    bbb     C8    661 0.72110000  12.010000   ; qtot 1.390000
  662          o     26    bbb     O1    662 -0.61950000  16.000000   ; qtot 0.770500
  663          o     26    bbb     O2    663 -0.61950000  16.000000   ; qtot 0.151000
  664          n     26    bbb     N4    664 -0.46580000  14.010000   ; qtot -0.314800
  665         hn     26    bbb    H21    665 0.31480000   1.008000   ; qtot -0.000000
; residue   27 bbb rtp bbb q -0.0
  666         c3     27    bbb     C1    666 0.44180000  12.010000   ; qtot 0.441800
  667         h1     27    bbb     H1    667 -0.03530000   1.008000   ; qtot 0.406500
  668         h1     27    bbb     H2    668 -0.03530000   1.008000   ; qtot 0.371200
  669         c3     27    bbb     C2    669 -0.28250000  12.010000   ; qtot 0.088700
  670         h1     27    bbb     H3    670 0.15710000   1.008000   ; qtot 0.245800
  671         h1     27    bbb     H4    671 0.15710000   1.008000   ; qtot 0.402900
  672         n3     27    bbb     N1    672 -0.74090000  14.010000   ; qtot -0.338000
  673         c3     27    bbb     C3    673 0.51680000  12.010000   ; qtot 0.178800
  674         h1     27    bbb     H5    674 -0.05230000   1.008000   ; qtot 0.126500
  675         h1     27    bbb     H6    675 -0.05230000   1.008000   ; qtot 0.074200
  676         c3     27    bbb     C4    676 0.51680000  12.010000   ; qtot 0.591000
  677         h1     27    bbb     H7    677 -0.05230000   1.008000   ; qtot 0.538700
  678         h1     27    bbb     H8    678 -0.05230000   1.008000   ; qtot 0.486400
  679         c3     27    bbb     C5    679 -0.60390000  12.010000   ; qtot -0.117500
  680         hc     27    bbb     H9    680 0.16730000   1.008000   ; qtot 0.049800
  681         hc     27    bbb    H10    681 0.16730000   1.008000   ; qtot 0.217100
  682         c3     27    bbb     C6    682 -0.60390000  12.010000   ; qtot -0.386800
  683         hc     27    bbb    H11    683 0.16730000   1.008000   ; qtot -0.219500
  684         hc     27    bbb    H12    684 0.16730000   1.008000   ; qtot -0.052200
  685          c     27    bbb     C7    685 0.72110000  12.010000   ; qtot 0.668900
  686          c     27    bbb     C8    686 0.72110000  12.010000   ; qtot 1.390000
  687          o     27    bbb     O1    687 -0.61950000  16.000000   ; qtot 0.770500
  688          o     27    bbb     O2    688 -0.61950000  16.000000   ; qtot 0.151000
  689          n     27    bbb     N4    689 -0.46580000  14.010000   ; qtot -0.314800
  690         hn     27    bbb    H21    690 0.31480000   1.008000   ; qtot -0.000000
; residue   28 bbb rtp bbb q -0.0
  691         c3     28    bbb     C1    691 0.44180000  12.010000   ; qtot 0.441800
  692         h1     28    bbb     H1    692 -0.03530000   1.008000   ; qtot 0.406500
  693         h1     28    bbb     H2    693 -0.03530000   1.008000   ; qtot 0.371200
  694         c3     28    bbb     C2    694 -0.28250000  12.010000   ; qtot 0.088700
  695         h1     28    bbb     H3    695 0.15710000   1.008000   ; qtot 0.245800
  696         h1     28    bbb     H4    696 0.15710000   1.008000   ; qtot 0.402900
  697         n3     28    bbb     N1    697 -0.74090000  14.010000   ; qtot -0.338000
  698         c3     28    bbb     C3    698 0.51680000  12.010000   ; qtot 0.178800
  699         h1     28    bbb     H5    699 -0.05230000   1.008000   ; qtot 0.126500
  700         h1     28    bbb     H6    700 -0.05230000   1.008000   ; qtot 0.074200
  701         c3     28    bbb     C4    701 0.51680000  12.010000   ; qtot 0.591000
  702         h1     28    bbb     H7    702 -0.05230000   1.008000   ; qtot 0.538700
  703         h1     28    bbb     H8    703 -0.05230000   1.008000   ; qtot 0.486400
  704         c3     28    bbb     C5    704 -0.60390000  12.010000   ; qtot -0.117500
  705         hc     28    bbb     H9    705 0.16730000   1.008000   ; qtot 0.049800
  706         hc     28    bbb    H10    706 0.16730000   1.008000   ; qtot 0.217100
  707         c3     28    bbb     C6    707 -0.60390000  12.010000   ; qtot -0.386800
  708         hc     28    bbb    H11    708 0.16730000   1.008000   ; qtot -0.219500
  709         hc     28    bbb    H12    709 0.16730000   1.008000   ; qtot -0.052200
  710          c     28    bbb     C7    710 0.72110000  12.010000   ; qtot 0.668900
  711          c     28    bbb     C8    711 0.72110000  12.010000   ; qtot 1.390000
  712          o     28    bbb     O1    712 -0.61950000  16.000000   ; qtot 0.770500
  713          o     28    bbb     O2    713 -0.61950000  16.000000   ; qtot 0.151000
  714          n     28    bbb     N4    714 -0.46580000  14.010000   ; qtot -0.314800
  715         hn     28    bbb    H21    715 0.31480000   1.008000   ; qtot -0.000000
; residue   29 bbb rtp bbb q -0.0
  716         c3     29    bbb     C1    716 0.44180000  12.010000   ; qtot 0.441800
  717         h1     29    bbb     H1    717 -0.03530000   1.008000   ; qtot 0.406500
  718         h1     29    bbb     H2    718 -0.03530000   1.008000   ; qtot 0.371200
  719         c3     29    bbb     C2    719 -0.28250000  12.010000   ; qtot 0.088700
  720         h1     29    bbb     H3    720 0.15710000   1.008000   ; qtot 0.245800
  721         h1     29    bbb     H4    721 0.15710000   1.008000   ; qtot 0.402900
  722         n3     29    bbb     N1    722 -0.74090000  14.010000   ; qtot -0.338000
  723         c3     29    bbb     C3    723 0.51680000  12.010000   ; qtot 0.178800
  724         h1     29    bbb     H5    724 -0.05230000   1.008000   ; qtot 0.126500
  725         h1     29    bbb     H6    725 -0.05230000   1.008000   ; qtot 0.074200
  726         c3     29    bbb     C4    726 0.51680000  12.010000   ; qtot 0.591000
  727         h1     29    bbb     H7    727 -0.05230000   1.008000   ; qtot 0.538700
  728         h1     29    bbb     H8    728 -0.05230000   1.008000   ; qtot 0.486400
  729         c3     29    bbb     C5    729 -0.60390000  12.010000   ; qtot -0.117500
  730         hc     29    bbb     H9    730 0.16730000   1.008000   ; qtot 0.049800
  731         hc     29    bbb    H10    731 0.16730000   1.008000   ; qtot 0.217100
  732         c3     29    bbb     C6    732 -0.60390000  12.010000   ; qtot -0.386800
  733         hc     29    bbb    H11    733 0.16730000   1.008000   ; qtot -0.219500
  734         hc     29    bbb    H12    734 0.16730000   1.008000   ; qtot -0.052200
  735          c     29    bbb     C7    735 0.72110000  12.010000   ; qtot 0.668900
  736          c     29    bbb     C8    736 0.72110000  12.010000   ; qtot 1.390000
  737          o     29    bbb     O1    737 -0.61950000  16.000000   ; qtot 0.770500
  738          o     29    bbb     O2    738 -0.61950000  16.000000   ; qtot 0.151000
  739          n     29    bbb     N4    739 -0.46580000  14.010000   ; qtot -0.314800
  740         hn     29    bbb    H21    740 0.31480000   1.008000   ; qtot -0.000000
; residue   30 bbb rtp bbb q -0.0
  741         c3     30    bbb     C1    741 0.44180000  12.010000   ; qtot 0.441800
  742         h1     30    bbb     H1    742 -0.03530000   1.008000   ; qtot 0.406500
  743         h1     30    bbb     H2    743 -0.03530000   1.008000   ; qtot 0.371200
  744         c3     30    bbb     C2    744 -0.28250000  12.010000   ; qtot 0.088700
  745         h1     30    bbb     H3    745 0.15710000   1.008000   ; qtot 0.245800
  746         h1     30    bbb     H4    746 0.15710000   1.008000   ; qtot 0.402900
  747         n3     30    bbb     N1    747 -0.74090000  14.010000   ; qtot -0.338000
  748         c3     30    bbb     C3    748 0.51680000  12.010000   ; qtot 0.178800
  749         h1     30    bbb     H5    749 -0.05230000   1.008000   ; qtot 0.126500
  750         h1     30    bbb     H6    750 -0.05230000   1.008000   ; qtot 0.074200
  751         c3     30    bbb     C4    751 0.51680000  12.010000   ; qtot 0.591000
  752         h1     30    bbb     H7    752 -0.05230000   1.008000   ; qtot 0.538700
  753         h1     30    bbb     H8    753 -0.05230000   1.008000   ; qtot 0.486400
  754         c3     30    bbb     C5    754 -0.60390000  12.010000   ; qtot -0.117500
  755         hc     30    bbb     H9    755 0.16730000   1.008000   ; qtot 0.049800
  756         hc     30    bbb    H10    756 0.16730000   1.008000   ; qtot 0.217100
  757         c3     30    bbb     C6    757 -0.60390000  12.010000   ; qtot -0.386800
  758         hc     30    bbb    H11    758 0.16730000   1.008000   ; qtot -0.219500
  759         hc     30    bbb    H12    759 0.16730000   1.008000   ; qtot -0.052200
  760          c     30    bbb     C7    760 0.72110000  12.010000   ; qtot 0.668900
  761          c     30    bbb     C8    761 0.72110000  12.010000   ; qtot 1.390000
  762          o     30    bbb     O1    762 -0.61950000  16.000000   ; qtot 0.770500
  763          o     30    bbb     O2    763 -0.61950000  16.000000   ; qtot 0.151000
  764          n     30    bbb     N4    764 -0.46580000  14.010000   ; qtot -0.314800
  765         hn     30    bbb    H21    765 0.31480000   1.008000   ; qtot -0.000000
; residue   31 bbb rtp bbb q -0.0
  766         c3     31    bbb     C1    766 0.44180000  12.010000   ; qtot 0.441800
  767         h1     31    bbb     H1    767 -0.03530000   1.008000   ; qtot 0.406500
  768         h1     31    bbb     H2    768 -0.03530000   1.008000   ; qtot 0.371200
  769         c3     31    bbb     C2    769 -0.28250000  12.010000   ; qtot 0.088700
  770         h1     31    bbb     H3    770 0.15710000   1.008000   ; qtot 0.245800
  771         h1     31    bbb     H4    771 0.15710000   1.008000   ; qtot 0.402900
  772         n3     31    bbb     N1    772 -0.74090000  14.010000   ; qtot -0.338000
  773         c3     31    bbb     C3    773 0.51680000  12.010000   ; qtot 0.178800
  774         h1     31    bbb     H5    774 -0.05230000   1.008000   ; qtot 0.126500
  775         h1     31    bbb     H6    775 -0.05230000   1.008000   ; qtot 0.074200
  776         c3     31    bbb     C4    776 0.51680000  12.010000   ; qtot 0.591000
  777         h1     31    bbb     H7    777 -0.05230000   1.008000   ; qtot 0.538700
  778         h1     31    bbb     H8    778 -0.05230000   1.008000   ; qtot 0.486400
  779         c3     31    bbb     C5    779 -0.60390000  12.010000   ; qtot -0.117500
  780         hc     31    bbb     H9    780 0.16730000   1.008000   ; qtot 0.049800
  781         hc     31    bbb    H10    781 0.16730000   1.008000   ; qtot 0.217100
  782         c3     31    bbb     C6    782 -0.60390000  12.010000   ; qtot -0.386800
  783         hc     31    bbb    H11    783 0.16730000   1.008000   ; qtot -0.219500
  784         hc     31    bbb    H12    784 0.16730000   1.008000   ; qtot -0.052200
  785          c     31    bbb     C7    785 0.72110000  12.010000   ; qtot 0.668900
  786          c     31    bbb     C8    786 0.72110000  12.010000   ; qtot 1.390000
  787          o     31    bbb     O1    787 -0.61950000  16.000000   ; qtot 0.770500
  788          o     31    bbb     O2    788 -0.61950000  16.000000   ; qtot 0.151000
  789          n     31    bbb     N4    789 -0.46580000  14.010000   ; qtot -0.314800
  790         hn     31    bbb    H21    790 0.31480000   1.008000   ; qtot -0.000000
; residue   32 bbb rtp bbb q -0.0
  791         c3     32    bbb     C1    791 0.44180000  12.010000   ; qtot 0.441800
  792         h1     32    bbb     H1    792 -0.03530000   1.008000   ; qtot 0.406500
  793         h1     32    bbb     H2    793 -0.03530000   1.008000   ; qtot 0.371200
  794         c3     32    bbb     C2    794 -0.28250000  12.010000   ; qtot 0.088700
  795         h1     32    bbb     H3    795 0.15710000   1.008000   ; qtot 0.245800
  796         h1     32    bbb     H4    796 0.15710000   1.008000   ; qtot 0.402900
  797         n3     32    bbb     N1    797 -0.74090000  14.010000   ; qtot -0.338000
  798         c3     32    bbb     C3    798 0.51680000  12.010000   ; qtot 0.178800
  799         h1     32    bbb     H5    799 -0.05230000   1.008000   ; qtot 0.126500
  800         h1     32    bbb     H6    800 -0.05230000   1.008000   ; qtot 0.074200
  801         c3     32    bbb     C4    801 0.51680000  12.010000   ; qtot 0.591000
  802         h1     32    bbb     H7    802 -0.05230000   1.008000   ; qtot 0.538700
  803         h1     32    bbb     H8    803 -0.05230000   1.008000   ; qtot 0.486400
  804         c3     32    bbb     C5    804 -0.60390000  12.010000   ; qtot -0.117500
  805         hc     32    bbb     H9    805 0.16730000   1.008000   ; qtot 0.049800
  806         hc     32    bbb    H10    806 0.16730000   1.008000   ; qtot 0.217100
  807         c3     32    bbb     C6    807 -0.60390000  12.010000   ; qtot -0.386800
  808         hc     32    bbb    H11    808 0.16730000   1.008000   ; qtot -0.219500
  809         hc     32    bbb    H12    809 0.16730000   1.008000   ; qtot -0.052200
  810          c     32    bbb     C7    810 0.72110000  12.010000   ; qtot 0.668900
  811          c     32    bbb     C8    811 0.72110000  12.010000   ; qtot 1.390000
  812          o     32    bbb     O1    812 -0.61950000  16.000000   ; qtot 0.770500
  813          o     32    bbb     O2    813 -0.61950000  16.000000   ; qtot 0.151000
  814          n     32    bbb     N4    814 -0.46580000  14.010000   ; qtot -0.314800
  815         hn     32    bbb    H21    815 0.31480000   1.008000   ; qtot -0.000000
; residue   33 bbb rtp bbb q -0.0
  816         c3     33    bbb     C1    816 0.44180000  12.010000   ; qtot 0.441800
  817         h1     33    bbb     H1    817 -0.03530000   1.008000   ; qtot 0.406500
  818         h1     33    bbb     H2    818 -0.03530000   1.008000   ; qtot 0.371200
  819         c3     33    bbb     C2    819 -0.28250000  12.010000   ; qtot 0.088700
  820         h1     33    bbb     H3    820 0.15710000   1.008000   ; qtot 0.245800
  821         h1     33    bbb     H4    821 0.15710000   1.008000   ; qtot 0.402900
  822         n3     33    bbb     N1    822 -0.74090000  14.010000   ; qtot -0.338000
  823         c3     33    bbb     C3    823 0.51680000  12.010000   ; qtot 0.178800
  824         h1     33    bbb     H5    824 -0.05230000   1.008000   ; qtot 0.126500
  825         h1     33    bbb     H6    825 -0.05230000   1.008000   ; qtot 0.074200
  826         c3     33    bbb     C4    826 0.51680000  12.010000   ; qtot 0.591000
  827         h1     33    bbb     H7    827 -0.05230000   1.008000   ; qtot 0.538700
  828         h1     33    bbb     H8    828 -0.05230000   1.008000   ; qtot 0.486400
  829         c3     33    bbb     C5    829 -0.60390000  12.010000   ; qtot -0.117500
  830         hc     33    bbb     H9    830 0.16730000   1.008000   ; qtot 0.049800
  831         hc     33    bbb    H10    831 0.16730000   1.008000   ; qtot 0.217100
  832         c3     33    bbb     C6    832 -0.60390000  12.010000   ; qtot -0.386800
  833         hc     33    bbb    H11    833 0.16730000   1.008000   ; qtot -0.219500
  834         hc     33    bbb    H12    834 0.16730000   1.008000   ; qtot -0.052200
  835          c     33    bbb     C7    835 0.72110000  12.010000   ; qtot 0.668900
  836          c     33    bbb     C8    836 0.72110000  12.010000   ; qtot 1.390000
  837          o     33    bbb     O1    837 -0.61950000  16.000000   ; qtot 0.770500
  838          o     33    bbb     O2    838 -0.61950000  16.000000   ; qtot 0.151000
  839          n     33    bbb     N4    839 -0.46580000  14.010000   ; qtot -0.314800
  840         hn     33    bbb    H21    840 0.31480000   1.008000   ; qtot -0.000000
; residue   34 bbb rtp bbb q -0.0
  841         c3     34    bbb     C1    841 0.44180000  12.010000   ; qtot 0.441800
  842         h1     34    bbb     H1    842 -0.03530000   1.008000   ; qtot 0.406500
  843         h1     34    bbb     H2    843 -0.03530000   1.008000   ; qtot 0.371200
  844         c3     34    bbb     C2    844 -0.28250000  12.010000   ; qtot 0.088700
  845         h1     34    bbb     H3    845 0.15710000   1.008000   ; qtot 0.245800
  846         h1     34    bbb     H4    846 0.15710000   1.008000   ; qtot 0.402900
  847         n3     34    bbb     N1    847 -0.74090000  14.010000   ; qtot -0.338000
  848         c3     34    bbb     C3    848 0.51680000  12.010000   ; qtot 0.178800
  849         h1     34    bbb     H5    849 -0.05230000   1.008000   ; qtot 0.126500
  850         h1     34    bbb     H6    850 -0.05230000   1.008000   ; qtot 0.074200
  851         c3     34    bbb     C4    851 0.51680000  12.010000   ; qtot 0.591000
  852         h1     34    bbb     H7    852 -0.05230000   1.008000   ; qtot 0.538700
  853         h1     34    bbb     H8    853 -0.05230000   1.008000   ; qtot 0.486400
  854         c3     34    bbb     C5    854 -0.60390000  12.010000   ; qtot -0.117500
  855         hc     34    bbb     H9    855 0.16730000   1.008000   ; qtot 0.049800
  856         hc     34    bbb    H10    856 0.16730000   1.008000   ; qtot 0.217100
  857         c3     34    bbb     C6    857 -0.60390000  12.010000   ; qtot -0.386800
  858         hc     34    bbb    H11    858 0.16730000   1.008000   ; qtot -0.219500
  859         hc     34    bbb    H12    859 0.16730000   1.008000   ; qtot -0.052200
  860          c     34    bbb     C7    860 0.72110000  12.010000   ; qtot 0.668900
  861          c     34    bbb     C8    861 0.72110000  12.010000   ; qtot 1.390000
  862          o     34    bbb     O1    862 -0.61950000  16.000000   ; qtot 0.770500
  863          o     34    bbb     O2    863 -0.61950000  16.000000   ; qtot 0.151000
  864          n     34    bbb     N4    864 -0.46580000  14.010000   ; qtot -0.314800
  865         hn     34    bbb    H21    865 0.31480000   1.008000   ; qtot -0.000000
; residue   35 bbb rtp bbb q -0.0
  866         c3     35    bbb     C1    866 0.44180000  12.010000   ; qtot 0.441800
  867         h1     35    bbb     H1    867 -0.03530000   1.008000   ; qtot 0.406500
  868         h1     35    bbb     H2    868 -0.03530000   1.008000   ; qtot 0.371200
  869         c3     35    bbb     C2    869 -0.28250000  12.010000   ; qtot 0.088700
  870         h1     35    bbb     H3    870 0.15710000   1.008000   ; qtot 0.245800
  871         h1     35    bbb     H4    871 0.15710000   1.008000   ; qtot 0.402900
  872         n3     35    bbb     N1    872 -0.74090000  14.010000   ; qtot -0.338000
  873         c3     35    bbb     C3    873 0.51680000  12.010000   ; qtot 0.178800
  874         h1     35    bbb     H5    874 -0.05230000   1.008000   ; qtot 0.126500
  875         h1     35    bbb     H6    875 -0.05230000   1.008000   ; qtot 0.074200
  876         c3     35    bbb     C4    876 0.51680000  12.010000   ; qtot 0.591000
  877         h1     35    bbb     H7    877 -0.05230000   1.008000   ; qtot 0.538700
  878         h1     35    bbb     H8    878 -0.05230000   1.008000   ; qtot 0.486400
  879         c3     35    bbb     C5    879 -0.60390000  12.010000   ; qtot -0.117500
  880         hc     35    bbb     H9    880 0.16730000   1.008000   ; qtot 0.049800
  881         hc     35    bbb    H10    881 0.16730000   1.008000   ; qtot 0.217100
  882         c3     35    bbb     C6    882 -0.60390000  12.010000   ; qtot -0.386800
  883         hc     35    bbb    H11    883 0.16730000   1.008000   ; qtot -0.219500
  884         hc     35    bbb    H12    884 0.16730000   1.008000   ; qtot -0.052200
  885          c     35    bbb     C7    885 0.72110000  12.010000   ; qtot 0.668900
  886          c     35    bbb     C8    886 0.72110000  12.010000   ; qtot 1.390000
  887          o     35    bbb     O1    887 -0.61950000  16.000000   ; qtot 0.770500
  888          o     35    bbb     O2    888 -0.61950000  16.000000   ; qtot 0.151000
  889          n     35    bbb     N4    889 -0.46580000  14.010000   ; qtot -0.314800
  890         hn     35    bbb    H21    890 0.31480000   1.008000   ; qtot -0.000000
; residue   36 bbb rtp bbb q -0.0
  891         c3     36    bbb     C1    891 0.44180000  12.010000   ; qtot 0.441800
  892         h1     36    bbb     H1    892 -0.03530000   1.008000   ; qtot 0.406500
  893         h1     36    bbb     H2    893 -0.03530000   1.008000   ; qtot 0.371200
  894         c3     36    bbb     C2    894 -0.28250000  12.010000   ; qtot 0.088700
  895         h1     36    bbb     H3    895 0.15710000   1.008000   ; qtot 0.245800
  896         h1     36    bbb     H4    896 0.15710000   1.008000   ; qtot 0.402900
  897         n3     36    bbb     N1    897 -0.74090000  14.010000   ; qtot -0.338000
  898         c3     36    bbb     C3    898 0.51680000  12.010000   ; qtot 0.178800
  899         h1     36    bbb     H5    899 -0.05230000   1.008000   ; qtot 0.126500
  900         h1     36    bbb     H6    900 -0.05230000   1.008000   ; qtot 0.074200
  901         c3     36    bbb     C4    901 0.51680000  12.010000   ; qtot 0.591000
  902         h1     36    bbb     H7    902 -0.05230000   1.008000   ; qtot 0.538700
  903         h1     36    bbb     H8    903 -0.05230000   1.008000   ; qtot 0.486400
  904         c3     36    bbb     C5    904 -0.60390000  12.010000   ; qtot -0.117500
  905         hc     36    bbb     H9    905 0.16730000   1.008000   ; qtot 0.049800
  906         hc     36    bbb    H10    906 0.16730000   1.008000   ; qtot 0.217100
  907         c3     36    bbb     C6    907 -0.60390000  12.010000   ; qtot -0.386800
  908         hc     36    bbb    H11    908 0.16730000   1.008000   ; qtot -0.219500
  909         hc     36    bbb    H12    909 0.16730000   1.008000   ; qtot -0.052200
  910          c     36    bbb     C7    910 0.72110000  12.010000   ; qtot 0.668900
  911          c     36    bbb     C8    911 0.72110000  12.010000   ; qtot 1.390000
  912          o     36    bbb     O1    912 -0.61950000  16.000000   ; qtot 0.770500
  913          o     36    bbb     O2    913 -0.61950000  16.000000   ; qtot 0.151000
  914          n     36    bbb     N4    914 -0.46580000  14.010000   ; qtot -0.314800
  915         hn     36    bbb    H21    915 0.31480000   1.008000   ; qtot -0.000000
; residue   37 bbb rtp bbb q -0.0
  916         c3     37    bbb     C1    916 0.44180000  12.010000   ; qtot 0.441800
  917         h1     37    bbb     H1    917 -0.03530000   1.008000   ; qtot 0.406500
  918         h1     37    bbb     H2    918 -0.03530000   1.008000   ; qtot 0.371200
  919         c3     37    bbb     C2    919 -0.28250000  12.010000   ; qtot 0.088700
  920         h1     37    bbb     H3    920 0.15710000   1.008000   ; qtot 0.245800
  921         h1     37    bbb     H4    921 0.15710000   1.008000   ; qtot 0.402900
  922         n3     37    bbb     N1    922 -0.74090000  14.010000   ; qtot -0.338000
  923         c3     37    bbb     C3    923 0.51680000  12.010000   ; qtot 0.178800
  924         h1     37    bbb     H5    924 -0.05230000   1.008000   ; qtot 0.126500
  925         h1     37    bbb     H6    925 -0.05230000   1.008000   ; qtot 0.074200
  926         c3     37    bbb     C4    926 0.51680000  12.010000   ; qtot 0.591000
  927         h1     37    bbb     H7    927 -0.05230000   1.008000   ; qtot 0.538700
  928         h1     37    bbb     H8    928 -0.05230000   1.008000   ; qtot 0.486400
  929         c3     37    bbb     C5    929 -0.60390000  12.010000   ; qtot -0.117500
  930         hc     37    bbb     H9    930 0.16730000   1.008000   ; qtot 0.049800
  931         hc     37    bbb    H10    931 0.16730000   1.008000   ; qtot 0.217100
  932         c3     37    bbb     C6    932 -0.60390000  12.010000   ; qtot -0.386800
  933         hc     37    bbb    H11    933 0.16730000   1.008000   ; qtot -0.219500
  934         hc     37    bbb    H12    934 0.16730000   1.008000   ; qtot -0.052200
  935          c     37    bbb     C7    935 0.72110000  12.010000   ; qtot 0.668900
  936          c     37    bbb     C8    936 0.72110000  12.010000   ; qtot 1.390000
  937          o     37    bbb     O1    937 -0.61950000  16.000000   ; qtot 0.770500
  938          o     37    bbb     O2    938 -0.61950000  16.000000   ; qtot 0.151000
  939          n     37    bbb     N4    939 -0.46580000  14.010000   ; qtot -0.314800
  940         hn     37    bbb    H21    940 0.31480000   1.008000   ; qtot -0.000000
; residue   38 bbb rtp bbb q -0.0
  941         c3     38    bbb     C1    941 0.44180000  12.010000   ; qtot 0.441800
  942         h1     38    bbb     H1    942 -0.03530000   1.008000   ; qtot 0.406500
  943         h1     38    bbb     H2    943 -0.03530000   1.008000   ; qtot 0.371200
  944         c3     38    bbb     C2    944 -0.28250000  12.010000   ; qtot 0.088700
  945         h1     38    bbb     H3    945 0.15710000   1.008000   ; qtot 0.245800
  946         h1     38    bbb     H4    946 0.15710000   1.008000   ; qtot 0.402900
  947         n3     38    bbb     N1    947 -0.74090000  14.010000   ; qtot -0.338001
  948         c3     38    bbb     C3    948 0.51680000  12.010000   ; qtot 0.178799
  949         h1     38    bbb     H5    949 -0.05230000   1.008000   ; qtot 0.126499
  950         h1     38    bbb     H6    950 -0.05230000   1.008000   ; qtot 0.074199
  951         c3     38    bbb     C4    951 0.51680000  12.010000   ; qtot 0.590999
  952         h1     38    bbb     H7    952 -0.05230000   1.008000   ; qtot 0.538699
  953         h1     38    bbb     H8    953 -0.05230000   1.008000   ; qtot 0.486399
  954         c3     38    bbb     C5    954 -0.60390000  12.010000   ; qtot -0.117501
  955         hc     38    bbb     H9    955 0.16730000   1.008000   ; qtot 0.049799
  956         hc     38    bbb    H10    956 0.16730000   1.008000   ; qtot 0.217099
  957         c3     38    bbb     C6    957 -0.60390000  12.010000   ; qtot -0.386801
  958         hc     38    bbb    H11    958 0.16730000   1.008000   ; qtot -0.219501
  959         hc     38    bbb    H12    959 0.16730000   1.008000   ; qtot -0.052201
  960          c     38    bbb     C7    960 0.72110000  12.010000   ; qtot 0.668899
  961          c     38    bbb     C8    961 0.72110000  12.010000   ; qtot 1.389999
  962          o     38    bbb     O1    962 -0.61950000  16.000000   ; qtot 0.770499
  963          o     38    bbb     O2    963 -0.61950000  16.000000   ; qtot 0.150999
  964          n     38    bbb     N4    964 -0.46580000  14.010000   ; qtot -0.314801
  965         hn     38    bbb    H21    965 0.31480000   1.008000   ; qtot -0.000001
; residue   39 bbb rtp bbb q -0.0
  966         c3     39    bbb     C1    966 0.44180000  12.010000   ; qtot 0.441799
  967         h1     39    bbb     H1    967 -0.03530000   1.008000   ; qtot 0.406499
  968         h1     39    bbb     H2    968 -0.03530000   1.008000   ; qtot 0.371199
  969         c3     39    bbb     C2    969 -0.28250000  12.010000   ; qtot 0.088699
  970         h1     39    bbb     H3    970 0.15710000   1.008000   ; qtot 0.245799
  971         h1     39    bbb     H4    971 0.15710000   1.008000   ; qtot 0.402899
  972         n3     39    bbb     N1    972 -0.74090000  14.010000   ; qtot -0.338001
  973         c3     39    bbb     C3    973 0.51680000  12.010000   ; qtot 0.178799
  974         h1     39    bbb     H5    974 -0.05230000   1.008000   ; qtot 0.126499
  975         h1     39    bbb     H6    975 -0.05230000   1.008000   ; qtot 0.074199
  976         c3     39    bbb     C4    976 0.51680000  12.010000   ; qtot 0.590999
  977         h1     39    bbb     H7    977 -0.05230000   1.008000   ; qtot 0.538699
  978         h1     39    bbb     H8    978 -0.05230000   1.008000   ; qtot 0.486399
  979         c3     39    bbb     C5    979 -0.60390000  12.010000   ; qtot -0.117501
  980         hc     39    bbb     H9    980 0.16730000   1.008000   ; qtot 0.049799
  981         hc     39    bbb    H10    981 0.16730000   1.008000   ; qtot 0.217099
  982         c3     39    bbb     C6    982 -0.60390000  12.010000   ; qtot -0.386801
  983         hc     39    bbb    H11    983 0.16730000   1.008000   ; qtot -0.219501
  984         hc     39    bbb    H12    984 0.16730000   1.008000   ; qtot -0.052201
  985          c     39    bbb     C7    985 0.72110000  12.010000   ; qtot 0.668899
  986          c     39    bbb     C8    986 0.72110000  12.010000   ; qtot 1.389999
  987          o     39    bbb     O1    987 -0.61950000  16.000000   ; qtot 0.770499
  988          o     39    bbb     O2    988 -0.61950000  16.000000   ; qtot 0.150999
  989          n     39    bbb     N4    989 -0.46580000  14.010000   ; qtot -0.314801
  990         hn     39    bbb    H21    990 0.31480000   1.008000   ; qtot -0.000001
; residue   40 bbb rtp bbb q -0.0
  991         c3     40    bbb     C1    991 0.44180000  12.010000   ; qtot 0.441799
  992         h1     40    bbb     H1    992 -0.03530000   1.008000   ; qtot 0.406499
  993         h1     40    bbb     H2    993 -0.03530000   1.008000   ; qtot 0.371199
  994         c3     40    bbb     C2    994 -0.28250000  12.010000   ; qtot 0.088699
  995         h1     40    bbb     H3    995 0.15710000   1.008000   ; qtot 0.245799
  996         h1     40    bbb     H4    996 0.15710000   1.008000   ; qtot 0.402899
  997         n3     40    bbb     N1    997 -0.74090000  14.010000   ; qtot -0.338001
  998         c3     40    bbb     C3    998 0.51680000  12.010000   ; qtot 0.178799
  999         h1     40    bbb     H5    999 -0.05230000   1.008000   ; qtot 0.126499
 1000         h1     40    bbb     H6   1000 -0.05230000   1.008000   ; qtot 0.074199
 1001         c3     40    bbb     C4   1001 0.51680000  12.010000   ; qtot 0.590999
 1002         h1     40    bbb     H7   1002 -0.05230000   1.008000   ; qtot 0.538699
 1003         h1     40    bbb     H8   1003 -0.05230000   1.008000   ; qtot 0.486399
 1004         c3     40    bbb     C5   1004 -0.60390000  12.010000   ; qtot -0.117501
 1005         hc     40    bbb     H9   1005 0.16730000   1.008000   ; qtot 0.049799
 1006         hc     40    bbb    H10   1006 0.16730000   1.008000   ; qtot 0.217099
 1007         c3     40    bbb     C6   1007 -0.60390000  12.010000   ; qtot -0.386801
 1008         hc     40    bbb    H11   1008 0.16730000   1.008000   ; qtot -0.219501
 1009         hc     40    bbb    H12   1009 0.16730000   1.008000   ; qtot -0.052201
 1010          c     40    bbb     C7   1010 0.72110000  12.010000   ; qtot 0.668899
 1011          c     40    bbb     C8   1011 0.72110000  12.010000   ; qtot 1.389999
 1012          o     40    bbb     O1   1012 -0.61950000  16.000000   ; qtot 0.770499
 1013          o     40    bbb     O2   1013 -0.61950000  16.000000   ; qtot 0.150999
 1014          n     40    bbb     N4   1014 -0.46580000  14.010000   ; qtot -0.314801
 1015         hn     40    bbb    H21   1015 0.31480000   1.008000   ; qtot -0.000001
; residue   41 bbb rtp bbb q -0.0
 1016         c3     41    bbb     C1   1016 0.44180000  12.010000   ; qtot 0.441799
 1017         h1     41    bbb     H1   1017 -0.03530000   1.008000   ; qtot 0.406499
 1018         h1     41    bbb     H2   1018 -0.03530000   1.008000   ; qtot 0.371199
 1019         c3     41    bbb     C2   1019 -0.28250000  12.010000   ; qtot 0.088699
 1020         h1     41    bbb     H3   1020 0.15710000   1.008000   ; qtot 0.245799
 1021         h1     41    bbb     H4   1021 0.15710000   1.008000   ; qtot 0.402899
 1022         n3     41    bbb     N1   1022 -0.74090000  14.010000   ; qtot -0.338001
 1023         c3     41    bbb     C3   1023 0.51680000  12.010000   ; qtot 0.178799
 1024         h1     41    bbb     H5   1024 -0.05230000   1.008000   ; qtot 0.126499
 1025         h1     41    bbb     H6   1025 -0.05230000   1.008000   ; qtot 0.074199
 1026         c3     41    bbb     C4   1026 0.51680000  12.010000   ; qtot 0.590999
 1027         h1     41    bbb     H7   1027 -0.05230000   1.008000   ; qtot 0.538699
 1028         h1     41    bbb     H8   1028 -0.05230000   1.008000   ; qtot 0.486399
 1029         c3     41    bbb     C5   1029 -0.60390000  12.010000   ; qtot -0.117501
 1030         hc     41    bbb     H9   1030 0.16730000   1.008000   ; qtot 0.049799
 1031         hc     41    bbb    H10   1031 0.16730000   1.008000   ; qtot 0.217099
 1032         c3     41    bbb     C6   1032 -0.60390000  12.010000   ; qtot -0.386801
 1033         hc     41    bbb    H11   1033 0.16730000   1.008000   ; qtot -0.219501
 1034         hc     41    bbb    H12   1034 0.16730000   1.008000   ; qtot -0.052201
 1035          c     41    bbb     C7   1035 0.72110000  12.010000   ; qtot 0.668899
 1036          c     41    bbb     C8   1036 0.72110000  12.010000   ; qtot 1.389999
 1037          o     41    bbb     O1   1037 -0.61950000  16.000000   ; qtot 0.770499
 1038          o     41    bbb     O2   1038 -0.61950000  16.000000   ; qtot 0.150999
 1039          n     41    bbb     N4   1039 -0.46580000  14.010000   ; qtot -0.314801
 1040         hn     41    bbb    H21   1040 0.31480000   1.008000   ; qtot -0.000001
; residue   42 bbb rtp bbb q -0.0
 1041         c3     42    bbb     C1   1041 0.44180000  12.010000   ; qtot 0.441799
 1042         h1     42    bbb     H1   1042 -0.03530000   1.008000   ; qtot 0.406499
 1043         h1     42    bbb     H2   1043 -0.03530000   1.008000   ; qtot 0.371199
 1044         c3     42    bbb     C2   1044 -0.28250000  12.010000   ; qtot 0.088699
 1045         h1     42    bbb     H3   1045 0.15710000   1.008000   ; qtot 0.245799
 1046         h1     42    bbb     H4   1046 0.15710000   1.008000   ; qtot 0.402899
 1047         n3     42    bbb     N1   1047 -0.74090000  14.010000   ; qtot -0.338001
 1048         c3     42    bbb     C3   1048 0.51680000  12.010000   ; qtot 0.178799
 1049         h1     42    bbb     H5   1049 -0.05230000   1.008000   ; qtot 0.126499
 1050         h1     42    bbb     H6   1050 -0.05230000   1.008000   ; qtot 0.074199
 1051         c3     42    bbb     C4   1051 0.51680000  12.010000   ; qtot 0.590999
 1052         h1     42    bbb     H7   1052 -0.05230000   1.008000   ; qtot 0.538699
 1053         h1     42    bbb     H8   1053 -0.05230000   1.008000   ; qtot 0.486399
 1054         c3     42    bbb     C5   1054 -0.60390000  12.010000   ; qtot -0.117501
 1055         hc     42    bbb     H9   1055 0.16730000   1.008000   ; qtot 0.049799
 1056         hc     42    bbb    H10   1056 0.16730000   1.008000   ; qtot 0.217099
 1057         c3     42    bbb     C6   1057 -0.60390000  12.010000   ; qtot -0.386801
 1058         hc     42    bbb    H11   1058 0.16730000   1.008000   ; qtot -0.219501
 1059         hc     42    bbb    H12   1059 0.16730000   1.008000   ; qtot -0.052201
 1060          c     42    bbb     C7   1060 0.72110000  12.010000   ; qtot 0.668899
 1061          c     42    bbb     C8   1061 0.72110000  12.010000   ; qtot 1.389999
 1062          o     42    bbb     O1   1062 -0.61950000  16.000000   ; qtot 0.770499
 1063          o     42    bbb     O2   1063 -0.61950000  16.000000   ; qtot 0.150999
 1064          n     42    bbb     N4   1064 -0.46580000  14.010000   ; qtot -0.314801
 1065         hn     42    bbb    H21   1065 0.31480000   1.008000   ; qtot -0.000001
; residue   43 bbb rtp bbb q -0.0
 1066         c3     43    bbb     C1   1066 0.44180000  12.010000   ; qtot 0.441799
 1067         h1     43    bbb     H1   1067 -0.03530000   1.008000   ; qtot 0.406499
 1068         h1     43    bbb     H2   1068 -0.03530000   1.008000   ; qtot 0.371199
 1069         c3     43    bbb     C2   1069 -0.28250000  12.010000   ; qtot 0.088699
 1070         h1     43    bbb     H3   1070 0.15710000   1.008000   ; qtot 0.245799
 1071         h1     43    bbb     H4   1071 0.15710000   1.008000   ; qtot 0.402899
 1072         n3     43    bbb     N1   1072 -0.74090000  14.010000   ; qtot -0.338001
 1073         c3     43    bbb     C3   1073 0.51680000  12.010000   ; qtot 0.178799
 1074         h1     43    bbb     H5   1074 -0.05230000   1.008000   ; qtot 0.126499
 1075         h1     43    bbb     H6   1075 -0.05230000   1.008000   ; qtot 0.074199
 1076         c3     43    bbb     C4   1076 0.51680000  12.010000   ; qtot 0.590999
 1077         h1     43    bbb     H7   1077 -0.05230000   1.008000   ; qtot 0.538699
 1078         h1     43    bbb     H8   1078 -0.05230000   1.008000   ; qtot 0.486399
 1079         c3     43    bbb     C5   1079 -0.60390000  12.010000   ; qtot -0.117501
 1080         hc     43    bbb     H9   1080 0.16730000   1.008000   ; qtot 0.049799
 1081         hc     43    bbb    H10   1081 0.16730000   1.008000   ; qtot 0.217099
 1082         c3     43    bbb     C6   1082 -0.60390000  12.010000   ; qtot -0.386801
 1083         hc     43    bbb    H11   1083 0.16730000   1.008000   ; qtot -0.219501
 1084         hc     43    bbb    H12   1084 0.16730000   1.008000   ; qtot -0.052201
 1085          c     43    bbb     C7   1085 0.72110000  12.010000   ; qtot 0.668899
 1086          c     43    bbb     C8   1086 0.72110000  12.010000   ; qtot 1.389999
 1087          o     43    bbb     O1   1087 -0.61950000  16.000000   ; qtot 0.770499
 1088          o     43    bbb     O2   1088 -0.61950000  16.000000   ; qtot 0.150999
 1089          n     43    bbb     N4   1089 -0.46580000  14.010000   ; qtot -0.314801
 1090         hn     43    bbb    H21   1090 0.31480000   1.008000   ; qtot -0.000001
; residue   44 bbb rtp bbb q -0.0
 1091         c3     44    bbb     C1   1091 0.44180000  12.010000   ; qtot 0.441799
 1092         h1     44    bbb     H1   1092 -0.03530000   1.008000   ; qtot 0.406499
 1093         h1     44    bbb     H2   1093 -0.03530000   1.008000   ; qtot 0.371199
 1094         c3     44    bbb     C2   1094 -0.28250000  12.010000   ; qtot 0.088699
 1095         h1     44    bbb     H3   1095 0.15710000   1.008000   ; qtot 0.245799
 1096         h1     44    bbb     H4   1096 0.15710000   1.008000   ; qtot 0.402899
 1097         n3     44    bbb     N1   1097 -0.74090000  14.010000   ; qtot -0.338001
 1098         c3     44    bbb     C3   1098 0.51680000  12.010000   ; qtot 0.178799
 1099         h1     44    bbb     H5   1099 -0.05230000   1.008000   ; qtot 0.126499
 1100         h1     44    bbb     H6   1100 -0.05230000   1.008000   ; qtot 0.074199
 1101         c3     44    bbb     C4   1101 0.51680000  12.010000   ; qtot 0.590999
 1102         h1     44    bbb     H7   1102 -0.05230000   1.008000   ; qtot 0.538699
 1103         h1     44    bbb     H8   1103 -0.05230000   1.008000   ; qtot 0.486399
 1104         c3     44    bbb     C5   1104 -0.60390000  12.010000   ; qtot -0.117501
 1105         hc     44    bbb     H9   1105 0.16730000   1.008000   ; qtot 0.049799
 1106         hc     44    bbb    H10   1106 0.16730000   1.008000   ; qtot 0.217099
 1107         c3     44    bbb     C6   1107 -0.60390000  12.010000   ; qtot -0.386801
 1108         hc     44    bbb    H11   1108 0.16730000   1.008000   ; qtot -0.219501
 1109         hc     44    bbb    H12   1109 0.16730000   1.008000   ; qtot -0.052201
 1110          c     44    bbb     C7   1110 0.72110000  12.010000   ; qtot 0.668899
 1111          c     44    bbb     C8   1111 0.72110000  12.010000   ; qtot 1.389999
 1112          o     44    bbb     O1   1112 -0.61950000  16.000000   ; qtot 0.770499
 1113          o     44    bbb     O2   1113 -0.61950000  16.000000   ; qtot 0.150999
 1114          n     44    bbb     N4   1114 -0.46580000  14.010000   ; qtot -0.314801
 1115         hn     44    bbb    H21   1115 0.31480000   1.008000   ; qtot -0.000001
; residue   45 bbb rtp bbb q -0.0
 1116         c3     45    bbb     C1   1116 0.44180000  12.010000   ; qtot 0.441799
 1117         h1     45    bbb     H1   1117 -0.03530000   1.008000   ; qtot 0.406499
 1118         h1     45    bbb     H2   1118 -0.03530000   1.008000   ; qtot 0.371199
 1119         c3     45    bbb     C2   1119 -0.28250000  12.010000   ; qtot 0.088699
 1120         h1     45    bbb     H3   1120 0.15710000   1.008000   ; qtot 0.245799
 1121         h1     45    bbb     H4   1121 0.15710000   1.008000   ; qtot 0.402899
 1122         n3     45    bbb     N1   1122 -0.74090000  14.010000   ; qtot -0.338001
 1123         c3     45    bbb     C3   1123 0.51680000  12.010000   ; qtot 0.178799
 1124         h1     45    bbb     H5   1124 -0.05230000   1.008000   ; qtot 0.126499
 1125         h1     45    bbb     H6   1125 -0.05230000   1.008000   ; qtot 0.074199
 1126         c3     45    bbb     C4   1126 0.51680000  12.010000   ; qtot 0.590999
 1127         h1     45    bbb     H7   1127 -0.05230000   1.008000   ; qtot 0.538699
 1128         h1     45    bbb     H8   1128 -0.05230000   1.008000   ; qtot 0.486399
 1129         c3     45    bbb     C5   1129 -0.60390000  12.010000   ; qtot -0.117501
 1130         hc     45    bbb     H9   1130 0.16730000   1.008000   ; qtot 0.049799
 1131         hc     45    bbb    H10   1131 0.16730000   1.008000   ; qtot 0.217099
 1132         c3     45    bbb     C6   1132 -0.60390000  12.010000   ; qtot -0.386801
 1133         hc     45    bbb    H11   1133 0.16730000   1.008000   ; qtot -0.219501
 1134         hc     45    bbb    H12   1134 0.16730000   1.008000   ; qtot -0.052201
 1135          c     45    bbb     C7   1135 0.72110000  12.010000   ; qtot 0.668899
 1136          c     45    bbb     C8   1136 0.72110000  12.010000   ; qtot 1.389999
 1137          o     45    bbb     O1   1137 -0.61950000  16.000000   ; qtot 0.770499
 1138          o     45    bbb     O2   1138 -0.61950000  16.000000   ; qtot 0.150999
 1139          n     45    bbb     N4   1139 -0.46580000  14.010000   ; qtot -0.314801
 1140         hn     45    bbb    H21   1140 0.31480000   1.008000   ; qtot -0.000001
; residue   46 bbb rtp bbb q -0.0
 1141         c3     46    bbb     C1   1141 0.44180000  12.010000   ; qtot 0.441799
 1142         h1     46    bbb     H1   1142 -0.03530000   1.008000   ; qtot 0.406499
 1143         h1     46    bbb     H2   1143 -0.03530000   1.008000   ; qtot 0.371199
 1144         c3     46    bbb     C2   1144 -0.28250000  12.010000   ; qtot 0.088699
 1145         h1     46    bbb     H3   1145 0.15710000   1.008000   ; qtot 0.245799
 1146         h1     46    bbb     H4   1146 0.15710000   1.008000   ; qtot 0.402899
 1147         n3     46    bbb     N1   1147 -0.74090000  14.010000   ; qtot -0.338001
 1148         c3     46    bbb     C3   1148 0.51680000  12.010000   ; qtot 0.178799
 1149         h1     46    bbb     H5   1149 -0.05230000   1.008000   ; qtot 0.126499
 1150         h1     46    bbb     H6   1150 -0.05230000   1.008000   ; qtot 0.074199
 1151         c3     46    bbb     C4   1151 0.51680000  12.010000   ; qtot 0.590999
 1152         h1     46    bbb     H7   1152 -0.05230000   1.008000   ; qtot 0.538699
 1153         h1     46    bbb     H8   1153 -0.05230000   1.008000   ; qtot 0.486399
 1154         c3     46    bbb     C5   1154 -0.60390000  12.010000   ; qtot -0.117501
 1155         hc     46    bbb     H9   1155 0.16730000   1.008000   ; qtot 0.049799
 1156         hc     46    bbb    H10   1156 0.16730000   1.008000   ; qtot 0.217099
 1157         c3     46    bbb     C6   1157 -0.60390000  12.010000   ; qtot -0.386801
 1158         hc     46    bbb    H11   1158 0.16730000   1.008000   ; qtot -0.219501
 1159         hc     46    bbb    H12   1159 0.16730000   1.008000   ; qtot -0.052201
 1160          c     46    bbb     C7   1160 0.72110000  12.010000   ; qtot 0.668899
 1161          c     46    bbb     C8   1161 0.72110000  12.010000   ; qtot 1.389999
 1162          o     46    bbb     O1   1162 -0.61950000  16.000000   ; qtot 0.770499
 1163          o     46    bbb     O2   1163 -0.61950000  16.000000   ; qtot 0.150999
 1164          n     46    bbb     N4   1164 -0.46580000  14.010000   ; qtot -0.314801
 1165         hn     46    bbb    H21   1165 0.31480000   1.008000   ; qtot -0.000001
; residue   47 bbb rtp bbb q -0.0
 1166         c3     47    bbb     C1   1166 0.44180000  12.010000   ; qtot 0.441799
 1167         h1     47    bbb     H1   1167 -0.03530000   1.008000   ; qtot 0.406499
 1168         h1     47    bbb     H2   1168 -0.03530000   1.008000   ; qtot 0.371199
 1169         c3     47    bbb     C2   1169 -0.28250000  12.010000   ; qtot 0.088699
 1170         h1     47    bbb     H3   1170 0.15710000   1.008000   ; qtot 0.245799
 1171         h1     47    bbb     H4   1171 0.15710000   1.008000   ; qtot 0.402899
 1172         n3     47    bbb     N1   1172 -0.74090000  14.010000   ; qtot -0.338001
 1173         c3     47    bbb     C3   1173 0.51680000  12.010000   ; qtot 0.178799
 1174         h1     47    bbb     H5   1174 -0.05230000   1.008000   ; qtot 0.126499
 1175         h1     47    bbb     H6   1175 -0.05230000   1.008000   ; qtot 0.074199
 1176         c3     47    bbb     C4   1176 0.51680000  12.010000   ; qtot 0.590999
 1177         h1     47    bbb     H7   1177 -0.05230000   1.008000   ; qtot 0.538699
 1178         h1     47    bbb     H8   1178 -0.05230000   1.008000   ; qtot 0.486399
 1179         c3     47    bbb     C5   1179 -0.60390000  12.010000   ; qtot -0.117501
 1180         hc     47    bbb     H9   1180 0.16730000   1.008000   ; qtot 0.049799
 1181         hc     47    bbb    H10   1181 0.16730000   1.008000   ; qtot 0.217099
 1182         c3     47    bbb     C6   1182 -0.60390000  12.010000   ; qtot -0.386801
 1183         hc     47    bbb    H11   1183 0.16730000   1.008000   ; qtot -0.219501
 1184         hc     47    bbb    H12   1184 0.16730000   1.008000   ; qtot -0.052201
 1185          c     47    bbb     C7   1185 0.72110000  12.010000   ; qtot 0.668899
 1186          c     47    bbb     C8   1186 0.72110000  12.010000   ; qtot 1.389999
 1187          o     47    bbb     O1   1187 -0.61950000  16.000000   ; qtot 0.770499
 1188          o     47    bbb     O2   1188 -0.61950000  16.000000   ; qtot 0.150999
 1189          n     47    bbb     N4   1189 -0.46580000  14.010000   ; qtot -0.314801
 1190         hn     47    bbb    H21   1190 0.31480000   1.008000   ; qtot -0.000001
; residue   48 bbb rtp bbb q -0.0
 1191         c3     48    bbb     C1   1191 0.44180000  12.010000   ; qtot 0.441799
 1192         h1     48    bbb     H1   1192 -0.03530000   1.008000   ; qtot 0.406499
 1193         h1     48    bbb     H2   1193 -0.03530000   1.008000   ; qtot 0.371199
 1194         c3     48    bbb     C2   1194 -0.28250000  12.010000   ; qtot 0.088699
 1195         h1     48    bbb     H3   1195 0.15710000   1.008000   ; qtot 0.245799
 1196         h1     48    bbb     H4   1196 0.15710000   1.008000   ; qtot 0.402899
 1197         n3     48    bbb     N1   1197 -0.74090000  14.010000   ; qtot -0.338001
 1198         c3     48    bbb     C3   1198 0.51680000  12.010000   ; qtot 0.178799
 1199         h1     48    bbb     H5   1199 -0.05230000   1.008000   ; qtot 0.126499
 1200         h1     48    bbb     H6   1200 -0.05230000   1.008000   ; qtot 0.074199
 1201         c3     48    bbb     C4   1201 0.51680000  12.010000   ; qtot 0.590999
 1202         h1     48    bbb     H7   1202 -0.05230000   1.008000   ; qtot 0.538699
 1203         h1     48    bbb     H8   1203 -0.05230000   1.008000   ; qtot 0.486399
 1204         c3     48    bbb     C5   1204 -0.60390000  12.010000   ; qtot -0.117501
 1205         hc     48    bbb     H9   1205 0.16730000   1.008000   ; qtot 0.049799
 1206         hc     48    bbb    H10   1206 0.16730000   1.008000   ; qtot 0.217099
 1207         c3     48    bbb     C6   1207 -0.60390000  12.010000   ; qtot -0.386801
 1208         hc     48    bbb    H11   1208 0.16730000   1.008000   ; qtot -0.219501
 1209         hc     48    bbb    H12   1209 0.16730000   1.008000   ; qtot -0.052201
 1210          c     48    bbb     C7   1210 0.72110000  12.010000   ; qtot 0.668899
 1211          c     48    bbb     C8   1211 0.72110000  12.010000   ; qtot 1.389999
 1212          o     48    bbb     O1   1212 -0.61950000  16.000000   ; qtot 0.770499
 1213          o     48    bbb     O2   1213 -0.61950000  16.000000   ; qtot 0.150999
 1214          n     48    bbb     N4   1214 -0.46580000  14.010000   ; qtot -0.314801
 1215         hn     48    bbb    H21   1215 0.31480000   1.008000   ; qtot -0.000001
; residue   49 bbb rtp bbb q -0.0
 1216         c3     49    bbb     C1   1216 0.44180000  12.010000   ; qtot 0.441799
 1217         h1     49    bbb     H1   1217 -0.03530000   1.008000   ; qtot 0.406499
 1218         h1     49    bbb     H2   1218 -0.03530000   1.008000   ; qtot 0.371199
 1219         c3     49    bbb     C2   1219 -0.28250000  12.010000   ; qtot 0.088699
 1220         h1     49    bbb     H3   1220 0.15710000   1.008000   ; qtot 0.245799
 1221         h1     49    bbb     H4   1221 0.15710000   1.008000   ; qtot 0.402899
 1222         n3     49    bbb     N1   1222 -0.74090000  14.010000   ; qtot -0.338001
 1223         c3     49    bbb     C3   1223 0.51680000  12.010000   ; qtot 0.178799
 1224         h1     49    bbb     H5   1224 -0.05230000   1.008000   ; qtot 0.126499
 1225         h1     49    bbb     H6   1225 -0.05230000   1.008000   ; qtot 0.074199
 1226         c3     49    bbb     C4   1226 0.51680000  12.010000   ; qtot 0.590999
 1227         h1     49    bbb     H7   1227 -0.05230000   1.008000   ; qtot 0.538699
 1228         h1     49    bbb     H8   1228 -0.05230000   1.008000   ; qtot 0.486399
 1229         c3     49    bbb     C5   1229 -0.60390000  12.010000   ; qtot -0.117501
 1230         hc     49    bbb     H9   1230 0.16730000   1.008000   ; qtot 0.049799
 1231         hc     49    bbb    H10   1231 0.16730000   1.008000   ; qtot 0.217099
 1232         c3     49    bbb     C6   1232 -0.60390000  12.010000   ; qtot -0.386801
 1233         hc     49    bbb    H11   1233 0.16730000   1.008000   ; qtot -0.219501
 1234         hc     49    bbb    H12   1234 0.16730000   1.008000   ; qtot -0.052201
 1235          c     49    bbb     C7   1235 0.72110000  12.010000   ; qtot 0.668899
 1236          c     49    bbb     C8   1236 0.72110000  12.010000   ; qtot 1.389999
 1237          o     49    bbb     O1   1237 -0.61950000  16.000000   ; qtot 0.770499
 1238          o     49    bbb     O2   1238 -0.61950000  16.000000   ; qtot 0.150999
 1239          n     49    bbb     N4   1239 -0.46580000  14.010000   ; qtot -0.314801
 1240         hn     49    bbb    H21   1240 0.31480000   1.008000   ; qtot -0.000001
; residue   50 bbb rtp bbb q -0.0
 1241         c3     50    bbb     C1   1241 0.44180000  12.010000   ; qtot 0.441799
 1242         h1     50    bbb     H1   1242 -0.03530000   1.008000   ; qtot 0.406499
 1243         h1     50    bbb     H2   1243 -0.03530000   1.008000   ; qtot 0.371199
 1244         c3     50    bbb     C2   1244 -0.28250000  12.010000   ; qtot 0.088699
 1245         h1     50    bbb     H3   1245 0.15710000   1.008000   ; qtot 0.245799
 1246         h1     50    bbb     H4   1246 0.15710000   1.008000   ; qtot 0.402899
 1247         n3     50    bbb     N1   1247 -0.74090000  14.010000   ; qtot -0.338001
 1248         c3     50    bbb     C3   1248 0.51680000  12.010000   ; qtot 0.178799
 1249         h1     50    bbb     H5   1249 -0.05230000   1.008000   ; qtot 0.126499
 1250         h1     50    bbb     H6   1250 -0.05230000   1.008000   ; qtot 0.074199
 1251         c3     50    bbb     C4   1251 0.51680000  12.010000   ; qtot 0.590999
 1252         h1     50    bbb     H7   1252 -0.05230000   1.008000   ; qtot 0.538699
 1253         h1     50    bbb     H8   1253 -0.05230000   1.008000   ; qtot 0.486399
 1254         c3     50    bbb     C5   1254 -0.60390000  12.010000   ; qtot -0.117501
 1255         hc     50    bbb     H9   1255 0.16730000   1.008000   ; qtot 0.049799
 1256         hc     50    bbb    H10   1256 0.16730000   1.008000   ; qtot 0.217099
 1257         c3     50    bbb     C6   1257 -0.60390000  12.010000   ; qtot -0.386801
 1258         hc     50    bbb    H11   1258 0.16730000   1.008000   ; qtot -0.219501
 1259         hc     50    bbb    H12   1259 0.16730000   1.008000   ; qtot -0.052201
 1260          c     50    bbb     C7   1260 0.72110000  12.010000   ; qtot 0.668899
 1261          c     50    bbb     C8   1261 0.72110000  12.010000   ; qtot 1.389999
 1262          o     50    bbb     O1   1262 -0.61950000  16.000000   ; qtot 0.770499
 1263          o     50    bbb     O2   1263 -0.61950000  16.000000   ; qtot 0.150999
 1264          n     50    bbb     N4   1264 -0.46580000  14.010000   ; qtot -0.314801
 1265         hn     50    bbb    H21   1265 0.31480000   1.008000   ; qtot -0.000001
; residue   51 bbb rtp bbb q -0.0
 1266         c3     51    bbb     C1   1266 0.44180000  12.010000   ; qtot 0.441799
 1267         h1     51    bbb     H1   1267 -0.03530000   1.008000   ; qtot 0.406499
 1268         h1     51    bbb     H2   1268 -0.03530000   1.008000   ; qtot 0.371199
 1269         c3     51    bbb     C2   1269 -0.28250000  12.010000   ; qtot 0.088699
 1270         h1     51    bbb     H3   1270 0.15710000   1.008000   ; qtot 0.245799
 1271         h1     51    bbb     H4   1271 0.15710000   1.008000   ; qtot 0.402899
 1272         n3     51    bbb     N1   1272 -0.74090000  14.010000   ; qtot -0.338001
 1273         c3     51    bbb     C3   1273 0.51680000  12.010000   ; qtot 0.178799
 1274         h1     51    bbb     H5   1274 -0.05230000   1.008000   ; qtot 0.126499
 1275         h1     51    bbb     H6   1275 -0.05230000   1.008000   ; qtot 0.074199
 1276         c3     51    bbb     C4   1276 0.51680000  12.010000   ; qtot 0.590999
 1277         h1     51    bbb     H7   1277 -0.05230000   1.008000   ; qtot 0.538699
 1278         h1     51    bbb     H8   1278 -0.05230000   1.008000   ; qtot 0.486399
 1279         c3     51    bbb     C5   1279 -0.60390000  12.010000   ; qtot -0.117501
 1280         hc     51    bbb     H9   1280 0.16730000   1.008000   ; qtot 0.049799
 1281         hc     51    bbb    H10   1281 0.16730000   1.008000   ; qtot 0.217099
 1282         c3     51    bbb     C6   1282 -0.60390000  12.010000   ; qtot -0.386801
 1283         hc     51    bbb    H11   1283 0.16730000   1.008000   ; qtot -0.219501
 1284         hc     51    bbb    H12   1284 0.16730000   1.008000   ; qtot -0.052201
 1285          c     51    bbb     C7   1285 0.72110000  12.010000   ; qtot 0.668899
 1286          c     51    bbb     C8   1286 0.72110000  12.010000   ; qtot 1.389999
 1287          o     51    bbb     O1   1287 -0.61950000  16.000000   ; qtot 0.770499
 1288          o     51    bbb     O2   1288 -0.61950000  16.000000   ; qtot 0.150999
 1289          n     51    bbb     N4   1289 -0.46580000  14.010000   ; qtot -0.314801
 1290         hn     51    bbb    H21   1290 0.31480000   1.008000   ; qtot -0.000001
; residue   52 bbb rtp bbb q -0.0
 1291         c3     52    bbb     C1   1291 0.44180000  12.010000   ; qtot 0.441799
 1292         h1     52    bbb     H1   1292 -0.03530000   1.008000   ; qtot 0.406499
 1293         h1     52    bbb     H2   1293 -0.03530000   1.008000   ; qtot 0.371199
 1294         c3     52    bbb     C2   1294 -0.28250000  12.010000   ; qtot 0.088699
 1295         h1     52    bbb     H3   1295 0.15710000   1.008000   ; qtot 0.245799
 1296         h1     52    bbb     H4   1296 0.15710000   1.008000   ; qtot 0.402899
 1297         n3     52    bbb     N1   1297 -0.74090000  14.010000   ; qtot -0.338001
 1298         c3     52    bbb     C3   1298 0.51680000  12.010000   ; qtot 0.178799
 1299         h1     52    bbb     H5   1299 -0.05230000   1.008000   ; qtot 0.126499
 1300         h1     52    bbb     H6   1300 -0.05230000   1.008000   ; qtot 0.074199
 1301         c3     52    bbb     C4   1301 0.51680000  12.010000   ; qtot 0.590999
 1302         h1     52    bbb     H7   1302 -0.05230000   1.008000   ; qtot 0.538699
 1303         h1     52    bbb     H8   1303 -0.05230000   1.008000   ; qtot 0.486399
 1304         c3     52    bbb     C5   1304 -0.60390000  12.010000   ; qtot -0.117501
 1305         hc     52    bbb     H9   1305 0.16730000   1.008000   ; qtot 0.049799
 1306         hc     52    bbb    H10   1306 0.16730000   1.008000   ; qtot 0.217099
 1307         c3     52    bbb     C6   1307 -0.60390000  12.010000   ; qtot -0.386801
 1308         hc     52    bbb    H11   1308 0.16730000   1.008000   ; qtot -0.219501
 1309         hc     52    bbb    H12   1309 0.16730000   1.008000   ; qtot -0.052201
 1310          c     52    bbb     C7   1310 0.72110000  12.010000   ; qtot 0.668899
 1311          c     52    bbb     C8   1311 0.72110000  12.010000   ; qtot 1.389999
 1312          o     52    bbb     O1   1312 -0.61950000  16.000000   ; qtot 0.770499
 1313          o     52    bbb     O2   1313 -0.61950000  16.000000   ; qtot 0.150999
 1314          n     52    bbb     N4   1314 -0.46580000  14.010000   ; qtot -0.314801
 1315         hn     52    bbb    H21   1315 0.31480000   1.008000   ; qtot -0.000001
; residue   53 bbb rtp bbb q -0.0
 1316         c3     53    bbb     C1   1316 0.44180000  12.010000   ; qtot 0.441799
 1317         h1     53    bbb     H1   1317 -0.03530000   1.008000   ; qtot 0.406499
 1318         h1     53    bbb     H2   1318 -0.03530000   1.008000   ; qtot 0.371199
 1319         c3     53    bbb     C2   1319 -0.28250000  12.010000   ; qtot 0.088699
 1320         h1     53    bbb     H3   1320 0.15710000   1.008000   ; qtot 0.245799
 1321         h1     53    bbb     H4   1321 0.15710000   1.008000   ; qtot 0.402899
 1322         n3     53    bbb     N1   1322 -0.74090000  14.010000   ; qtot -0.338001
 1323         c3     53    bbb     C3   1323 0.51680000  12.010000   ; qtot 0.178799
 1324         h1     53    bbb     H5   1324 -0.05230000   1.008000   ; qtot 0.126499
 1325         h1     53    bbb     H6   1325 -0.05230000   1.008000   ; qtot 0.074199
 1326         c3     53    bbb     C4   1326 0.51680000  12.010000   ; qtot 0.590999
 1327         h1     53    bbb     H7   1327 -0.05230000   1.008000   ; qtot 0.538699
 1328         h1     53    bbb     H8   1328 -0.05230000   1.008000   ; qtot 0.486399
 1329         c3     53    bbb     C5   1329 -0.60390000  12.010000   ; qtot -0.117501
 1330         hc     53    bbb     H9   1330 0.16730000   1.008000   ; qtot 0.049799
 1331         hc     53    bbb    H10   1331 0.16730000   1.008000   ; qtot 0.217099
 1332         c3     53    bbb     C6   1332 -0.60390000  12.010000   ; qtot -0.386801
 1333         hc     53    bbb    H11   1333 0.16730000   1.008000   ; qtot -0.219501
 1334         hc     53    bbb    H12   1334 0.16730000   1.008000   ; qtot -0.052201
 1335          c     53    bbb     C7   1335 0.72110000  12.010000   ; qtot 0.668899
 1336          c     53    bbb     C8   1336 0.72110000  12.010000   ; qtot 1.389999
 1337          o     53    bbb     O1   1337 -0.61950000  16.000000   ; qtot 0.770499
 1338          o     53    bbb     O2   1338 -0.61950000  16.000000   ; qtot 0.150999
 1339          n     53    bbb     N4   1339 -0.46580000  14.010000   ; qtot -0.314801
 1340         hn     53    bbb    H21   1340 0.31480000   1.008000   ; qtot -0.000001
; residue   54 bbb rtp bbb q -0.0
 1341         c3     54    bbb     C1   1341 0.44180000  12.010000   ; qtot 0.441799
 1342         h1     54    bbb     H1   1342 -0.03530000   1.008000   ; qtot 0.406499
 1343         h1     54    bbb     H2   1343 -0.03530000   1.008000   ; qtot 0.371199
 1344         c3     54    bbb     C2   1344 -0.28250000  12.010000   ; qtot 0.088699
 1345         h1     54    bbb     H3   1345 0.15710000   1.008000   ; qtot 0.245799
 1346         h1     54    bbb     H4   1346 0.15710000   1.008000   ; qtot 0.402899
 1347         n3     54    bbb     N1   1347 -0.74090000  14.010000   ; qtot -0.338001
 1348         c3     54    bbb     C3   1348 0.51680000  12.010000   ; qtot 0.178799
 1349         h1     54    bbb     H5   1349 -0.05230000   1.008000   ; qtot 0.126499
 1350         h1     54    bbb     H6   1350 -0.05230000   1.008000   ; qtot 0.074199
 1351         c3     54    bbb     C4   1351 0.51680000  12.010000   ; qtot 0.590999
 1352         h1     54    bbb     H7   1352 -0.05230000   1.008000   ; qtot 0.538699
 1353         h1     54    bbb     H8   1353 -0.05230000   1.008000   ; qtot 0.486399
 1354         c3     54    bbb     C5   1354 -0.60390000  12.010000   ; qtot -0.117501
 1355         hc     54    bbb     H9   1355 0.16730000   1.008000   ; qtot 0.049799
 1356         hc     54    bbb    H10   1356 0.16730000   1.008000   ; qtot 0.217099
 1357         c3     54    bbb     C6   1357 -0.60390000  12.010000   ; qtot -0.386801
 1358         hc     54    bbb    H11   1358 0.16730000   1.008000   ; qtot -0.219501
 1359         hc     54    bbb    H12   1359 0.16730000   1.008000   ; qtot -0.052201
 1360          c     54    bbb     C7   1360 0.72110000  12.010000   ; qtot 0.668899
 1361          c     54    bbb     C8   1361 0.72110000  12.010000   ; qtot 1.389999
 1362          o     54    bbb     O1   1362 -0.61950000  16.000000   ; qtot 0.770499
 1363          o     54    bbb     O2   1363 -0.61950000  16.000000   ; qtot 0.150999
 1364          n     54    bbb     N4   1364 -0.46580000  14.010000   ; qtot -0.314801
 1365         hn     54    bbb    H21   1365 0.31480000   1.008000   ; qtot -0.000001
; residue   55 bbb rtp bbb q -0.0
 1366         c3     55    bbb     C1   1366 0.44180000  12.010000   ; qtot 0.441799
 1367         h1     55    bbb     H1   1367 -0.03530000   1.008000   ; qtot 0.406499
 1368         h1     55    bbb     H2   1368 -0.03530000   1.008000   ; qtot 0.371199
 1369         c3     55    bbb     C2   1369 -0.28250000  12.010000   ; qtot 0.088699
 1370         h1     55    bbb     H3   1370 0.15710000   1.008000   ; qtot 0.245799
 1371         h1     55    bbb     H4   1371 0.15710000   1.008000   ; qtot 0.402899
 1372         n3     55    bbb     N1   1372 -0.74090000  14.010000   ; qtot -0.338001
 1373         c3     55    bbb     C3   1373 0.51680000  12.010000   ; qtot 0.178799
 1374         h1     55    bbb     H5   1374 -0.05230000   1.008000   ; qtot 0.126499
 1375         h1     55    bbb     H6   1375 -0.05230000   1.008000   ; qtot 0.074199
 1376         c3     55    bbb     C4   1376 0.51680000  12.010000   ; qtot 0.590999
 1377         h1     55    bbb     H7   1377 -0.05230000   1.008000   ; qtot 0.538699
 1378         h1     55    bbb     H8   1378 -0.05230000   1.008000   ; qtot 0.486399
 1379         c3     55    bbb     C5   1379 -0.60390000  12.010000   ; qtot -0.117501
 1380         hc     55    bbb     H9   1380 0.16730000   1.008000   ; qtot 0.049799
 1381         hc     55    bbb    H10   1381 0.16730000   1.008000   ; qtot 0.217099
 1382         c3     55    bbb     C6   1382 -0.60390000  12.010000   ; qtot -0.386801
 1383         hc     55    bbb    H11   1383 0.16730000   1.008000   ; qtot -0.219501
 1384         hc     55    bbb    H12   1384 0.16730000   1.008000   ; qtot -0.052201
 1385          c     55    bbb     C7   1385 0.72110000  12.010000   ; qtot 0.668899
 1386          c     55    bbb     C8   1386 0.72110000  12.010000   ; qtot 1.389999
 1387          o     55    bbb     O1   1387 -0.61950000  16.000000   ; qtot 0.770499
 1388          o     55    bbb     O2   1388 -0.61950000  16.000000   ; qtot 0.150999
 1389          n     55    bbb     N4   1389 -0.46580000  14.010000   ; qtot -0.314801
 1390         hn     55    bbb    H21   1390 0.31480000   1.008000   ; qtot -0.000001
; residue   56 bbb rtp bbb q -0.0
 1391         c3     56    bbb     C1   1391 0.44180000  12.010000   ; qtot 0.441799
 1392         h1     56    bbb     H1   1392 -0.03530000   1.008000   ; qtot 0.406499
 1393         h1     56    bbb     H2   1393 -0.03530000   1.008000   ; qtot 0.371199
 1394         c3     56    bbb     C2   1394 -0.28250000  12.010000   ; qtot 0.088699
 1395         h1     56    bbb     H3   1395 0.15710000   1.008000   ; qtot 0.245799
 1396         h1     56    bbb     H4   1396 0.15710000   1.008000   ; qtot 0.402899
 1397         n3     56    bbb     N1   1397 -0.74090000  14.010000   ; qtot -0.338001
 1398         c3     56    bbb     C3   1398 0.51680000  12.010000   ; qtot 0.178799
 1399         h1     56    bbb     H5   1399 -0.05230000   1.008000   ; qtot 0.126499
 1400         h1     56    bbb     H6   1400 -0.05230000   1.008000   ; qtot 0.074199
 1401         c3     56    bbb     C4   1401 0.51680000  12.010000   ; qtot 0.590999
 1402         h1     56    bbb     H7   1402 -0.05230000   1.008000   ; qtot 0.538699
 1403         h1     56    bbb     H8   1403 -0.05230000   1.008000   ; qtot 0.486399
 1404         c3     56    bbb     C5   1404 -0.60390000  12.010000   ; qtot -0.117501
 1405         hc     56    bbb     H9   1405 0.16730000   1.008000   ; qtot 0.049799
 1406         hc     56    bbb    H10   1406 0.16730000   1.008000   ; qtot 0.217099
 1407         c3     56    bbb     C6   1407 -0.60390000  12.010000   ; qtot -0.386801
 1408         hc     56    bbb    H11   1408 0.16730000   1.008000   ; qtot -0.219501
 1409         hc     56    bbb    H12   1409 0.16730000   1.008000   ; qtot -0.052201
 1410          c     56    bbb     C7   1410 0.72110000  12.010000   ; qtot 0.668899
 1411          c     56    bbb     C8   1411 0.72110000  12.010000   ; qtot 1.389999
 1412          o     56    bbb     O1   1412 -0.61950000  16.000000   ; qtot 0.770499
 1413          o     56    bbb     O2   1413 -0.61950000  16.000000   ; qtot 0.150999
 1414          n     56    bbb     N4   1414 -0.46580000  14.010000   ; qtot -0.314801
 1415         hn     56    bbb    H21   1415 0.31480000   1.008000   ; qtot -0.000001
; residue   57 bbb rtp bbb q -0.0
 1416         c3     57    bbb     C1   1416 0.44180000  12.010000   ; qtot 0.441799
 1417         h1     57    bbb     H1   1417 -0.03530000   1.008000   ; qtot 0.406499
 1418         h1     57    bbb     H2   1418 -0.03530000   1.008000   ; qtot 0.371199
 1419         c3     57    bbb     C2   1419 -0.28250000  12.010000   ; qtot 0.088699
 1420         h1     57    bbb     H3   1420 0.15710000   1.008000   ; qtot 0.245799
 1421         h1     57    bbb     H4   1421 0.15710000   1.008000   ; qtot 0.402899
 1422         n3     57    bbb     N1   1422 -0.74090000  14.010000   ; qtot -0.338001
 1423         c3     57    bbb     C3   1423 0.51680000  12.010000   ; qtot 0.178799
 1424         h1     57    bbb     H5   1424 -0.05230000   1.008000   ; qtot 0.126499
 1425         h1     57    bbb     H6   1425 -0.05230000   1.008000   ; qtot 0.074199
 1426         c3     57    bbb     C4   1426 0.51680000  12.010000   ; qtot 0.590999
 1427         h1     57    bbb     H7   1427 -0.05230000   1.008000   ; qtot 0.538699
 1428         h1     57    bbb     H8   1428 -0.05230000   1.008000   ; qtot 0.486399
 1429         c3     57    bbb     C5   1429 -0.60390000  12.010000   ; qtot -0.117501
 1430         hc     57    bbb     H9   1430 0.16730000   1.008000   ; qtot 0.049799
 1431         hc     57    bbb    H10   1431 0.16730000   1.008000   ; qtot 0.217099
 1432         c3     57    bbb     C6   1432 -0.60390000  12.010000   ; qtot -0.386801
 1433         hc     57    bbb    H11   1433 0.16730000   1.008000   ; qtot -0.219501
 1434         hc     57    bbb    H12   1434 0.16730000   1.008000   ; qtot -0.052201
 1435          c     57    bbb     C7   1435 0.72110000  12.010000   ; qtot 0.668899
 1436          c     57    bbb     C8   1436 0.72110000  12.010000   ; qtot 1.389999
 1437          o     57    bbb     O1   1437 -0.61950000  16.000000   ; qtot 0.770499
 1438          o     57    bbb     O2   1438 -0.61950000  16.000000   ; qtot 0.150999
 1439          n     57    bbb     N4   1439 -0.46580000  14.010000   ; qtot -0.314801
 1440         hn     57    bbb    H21   1440 0.31480000   1.008000   ; qtot -0.000001
; residue   58 bbb rtp bbb q -0.0
 1441         c3     58    bbb     C1   1441 0.44180000  12.010000   ; qtot 0.441799
 1442         h1     58    bbb     H1   1442 -0.03530000   1.008000   ; qtot 0.406499
 1443         h1     58    bbb     H2   1443 -0.03530000   1.008000   ; qtot 0.371199
 1444         c3     58    bbb     C2   1444 -0.28250000  12.010000   ; qtot 0.088699
 1445         h1     58    bbb     H3   1445 0.15710000   1.008000   ; qtot 0.245799
 1446         h1     58    bbb     H4   1446 0.15710000   1.008000   ; qtot 0.402899
 1447         n3     58    bbb     N1   1447 -0.74090000  14.010000   ; qtot -0.338001
 1448         c3     58    bbb     C3   1448 0.51680000  12.010000   ; qtot 0.178799
 1449         h1     58    bbb     H5   1449 -0.05230000   1.008000   ; qtot 0.126499
 1450         h1     58    bbb     H6   1450 -0.05230000   1.008000   ; qtot 0.074199
 1451         c3     58    bbb     C4   1451 0.51680000  12.010000   ; qtot 0.590999
 1452         h1     58    bbb     H7   1452 -0.05230000   1.008000   ; qtot 0.538699
 1453         h1     58    bbb     H8   1453 -0.05230000   1.008000   ; qtot 0.486399
 1454         c3     58    bbb     C5   1454 -0.60390000  12.010000   ; qtot -0.117501
 1455         hc     58    bbb     H9   1455 0.16730000   1.008000   ; qtot 0.049799
 1456         hc     58    bbb    H10   1456 0.16730000   1.008000   ; qtot 0.217099
 1457         c3     58    bbb     C6   1457 -0.60390000  12.010000   ; qtot -0.386801
 1458         hc     58    bbb    H11   1458 0.16730000   1.008000   ; qtot -0.219501
 1459         hc     58    bbb    H12   1459 0.16730000   1.008000   ; qtot -0.052201
 1460          c     58    bbb     C7   1460 0.72110000  12.010000   ; qtot 0.668899
 1461          c     58    bbb     C8   1461 0.72110000  12.010000   ; qtot 1.389999
 1462          o     58    bbb     O1   1462 -0.61950000  16.000000   ; qtot 0.770499
 1463          o     58    bbb     O2   1463 -0.61950000  16.000000   ; qtot 0.150999
 1464          n     58    bbb     N4   1464 -0.46580000  14.010000   ; qtot -0.314801
 1465         hn     58    bbb    H21   1465 0.31480000   1.008000   ; qtot -0.000001
; residue   59 bbb rtp bbb q -0.0
 1466         c3     59    bbb     C1   1466 0.44180000  12.010000   ; qtot 0.441799
 1467         h1     59    bbb     H1   1467 -0.03530000   1.008000   ; qtot 0.406499
 1468         h1     59    bbb     H2   1468 -0.03530000   1.008000   ; qtot 0.371199
 1469         c3     59    bbb     C2   1469 -0.28250000  12.010000   ; qtot 0.088699
 1470         h1     59    bbb     H3   1470 0.15710000   1.008000   ; qtot 0.245799
 1471         h1     59    bbb     H4   1471 0.15710000   1.008000   ; qtot 0.402899
 1472         n3     59    bbb     N1   1472 -0.74090000  14.010000   ; qtot -0.338001
 1473         c3     59    bbb     C3   1473 0.51680000  12.010000   ; qtot 0.178799
 1474         h1     59    bbb     H5   1474 -0.05230000   1.008000   ; qtot 0.126499
 1475         h1     59    bbb     H6   1475 -0.05230000   1.008000   ; qtot 0.074199
 1476         c3     59    bbb     C4   1476 0.51680000  12.010000   ; qtot 0.590999
 1477         h1     59    bbb     H7   1477 -0.05230000   1.008000   ; qtot 0.538699
 1478         h1     59    bbb     H8   1478 -0.05230000   1.008000   ; qtot 0.486399
 1479         c3     59    bbb     C5   1479 -0.60390000  12.010000   ; qtot -0.117501
 1480         hc     59    bbb     H9   1480 0.16730000   1.008000   ; qtot 0.049799
 1481         hc     59    bbb    H10   1481 0.16730000   1.008000   ; qtot 0.217099
 1482         c3     59    bbb     C6   1482 -0.60390000  12.010000   ; qtot -0.386801
 1483         hc     59    bbb    H11   1483 0.16730000   1.008000   ; qtot -0.219501
 1484         hc     59    bbb    H12   1484 0.16730000   1.008000   ; qtot -0.052201
 1485          c     59    bbb     C7   1485 0.72110000  12.010000   ; qtot 0.668899
 1486          c     59    bbb     C8   1486 0.72110000  12.010000   ; qtot 1.389999
 1487          o     59    bbb     O1   1487 -0.61950000  16.000000   ; qtot 0.770499
 1488          o     59    bbb     O2   1488 -0.61950000  16.000000   ; qtot 0.150999
 1489          n     59    bbb     N4   1489 -0.46580000  14.010000   ; qtot -0.314801
 1490         hn     59    bbb    H21   1490 0.31480000   1.008000   ; qtot -0.000001
; residue   60 bbb rtp bbb q -0.0
 1491         c3     60    bbb     C1   1491 0.44180000  12.010000   ; qtot 0.441799
 1492         h1     60    bbb     H1   1492 -0.03530000   1.008000   ; qtot 0.406499
 1493         h1     60    bbb     H2   1493 -0.03530000   1.008000   ; qtot 0.371199
 1494         c3     60    bbb     C2   1494 -0.28250000  12.010000   ; qtot 0.088699
 1495         h1     60    bbb     H3   1495 0.15710000   1.008000   ; qtot 0.245799
 1496         h1     60    bbb     H4   1496 0.15710000   1.008000   ; qtot 0.402899
 1497         n3     60    bbb     N1   1497 -0.74090000  14.010000   ; qtot -0.338001
 1498         c3     60    bbb     C3   1498 0.51680000  12.010000   ; qtot 0.178799
 1499         h1     60    bbb     H5   1499 -0.05230000   1.008000   ; qtot 0.126499
 1500         h1     60    bbb     H6   1500 -0.05230000   1.008000   ; qtot 0.074199
 1501         c3     60    bbb     C4   1501 0.51680000  12.010000   ; qtot 0.590999
 1502         h1     60    bbb     H7   1502 -0.05230000   1.008000   ; qtot 0.538699
 1503         h1     60    bbb     H8   1503 -0.05230000   1.008000   ; qtot 0.486399
 1504         c3     60    bbb     C5   1504 -0.60390000  12.010000   ; qtot -0.117501
 1505         hc     60    bbb     H9   1505 0.16730000   1.008000   ; qtot 0.049799
 1506         hc     60    bbb    H10   1506 0.16730000   1.008000   ; qtot 0.217099
 1507         c3     60    bbb     C6   1507 -0.60390000  12.010000   ; qtot -0.386801
 1508         hc     60    bbb    H11   1508 0.16730000   1.008000   ; qtot -0.219501
 1509         hc     60    bbb    H12   1509 0.16730000   1.008000   ; qtot -0.052201
 1510          c     60    bbb     C7   1510 0.72110000  12.010000   ; qtot 0.668899
 1511          c     60    bbb     C8   1511 0.72110000  12.010000   ; qtot 1.389999
 1512          o     60    bbb     O1   1512 -0.61950000  16.000000   ; qtot 0.770499
 1513          o     60    bbb     O2   1513 -0.61950000  16.000000   ; qtot 0.150999
 1514          n     60    bbb     N4   1514 -0.46580000  14.010000   ; qtot -0.314801
 1515         hn     60    bbb    H21   1515 0.31480000   1.008000   ; qtot -0.000001
; residue   61 bbb rtp bbb q -0.0
 1516         c3     61    bbb     C1   1516 0.44180000  12.010000   ; qtot 0.441799
 1517         h1     61    bbb     H1   1517 -0.03530000   1.008000   ; qtot 0.406499
 1518         h1     61    bbb     H2   1518 -0.03530000   1.008000   ; qtot 0.371199
 1519         c3     61    bbb     C2   1519 -0.28250000  12.010000   ; qtot 0.088699
 1520         h1     61    bbb     H3   1520 0.15710000   1.008000   ; qtot 0.245799
 1521         h1     61    bbb     H4   1521 0.15710000   1.008000   ; qtot 0.402899
 1522         n3     61    bbb     N1   1522 -0.74090000  14.010000   ; qtot -0.338001
 1523         c3     61    bbb     C3   1523 0.51680000  12.010000   ; qtot 0.178799
 1524         h1     61    bbb     H5   1524 -0.05230000   1.008000   ; qtot 0.126499
 1525         h1     61    bbb     H6   1525 -0.05230000   1.008000   ; qtot 0.074199
 1526         c3     61    bbb     C4   1526 0.51680000  12.010000   ; qtot 0.590999
 1527         h1     61    bbb     H7   1527 -0.05230000   1.008000   ; qtot 0.538699
 1528         h1     61    bbb     H8   1528 -0.05230000   1.008000   ; qtot 0.486399
 1529         c3     61    bbb     C5   1529 -0.60390000  12.010000   ; qtot -0.117501
 1530         hc     61    bbb     H9   1530 0.16730000   1.008000   ; qtot 0.049799
 1531         hc     61    bbb    H10   1531 0.16730000   1.008000   ; qtot 0.217099
 1532         c3     61    bbb     C6   1532 -0.60390000  12.010000   ; qtot -0.386801
 1533         hc     61    bbb    H11   1533 0.16730000   1.008000   ; qtot -0.219501
 1534         hc     61    bbb    H12   1534 0.16730000   1.008000   ; qtot -0.052201
 1535          c     61    bbb     C7   1535 0.72110000  12.010000   ; qtot 0.668899
 1536          c     61    bbb     C8   1536 0.72110000  12.010000   ; qtot 1.389999
 1537          o     61    bbb     O1   1537 -0.61950000  16.000000   ; qtot 0.770499
 1538          o     61    bbb     O2   1538 -0.61950000  16.000000   ; qtot 0.150999
 1539          n     61    bbb     N4   1539 -0.46580000  14.010000   ; qtot -0.314801
 1540         hn     61    bbb    H21   1540 0.31480000   1.008000   ; qtot -0.000001
; residue   62 bbb rtp bbb q -0.0
 1541         c3     62    bbb     C1   1541 0.44180000  12.010000   ; qtot 0.441799
 1542         h1     62    bbb     H1   1542 -0.03530000   1.008000   ; qtot 0.406499
 1543         h1     62    bbb     H2   1543 -0.03530000   1.008000   ; qtot 0.371199
 1544         c3     62    bbb     C2   1544 -0.28250000  12.010000   ; qtot 0.088699
 1545         h1     62    bbb     H3   1545 0.15710000   1.008000   ; qtot 0.245799
 1546         h1     62    bbb     H4   1546 0.15710000   1.008000   ; qtot 0.402899
 1547         n3     62    bbb     N1   1547 -0.74090000  14.010000   ; qtot -0.338001
 1548         c3     62    bbb     C3   1548 0.51680000  12.010000   ; qtot 0.178799
 1549         h1     62    bbb     H5   1549 -0.05230000   1.008000   ; qtot 0.126499
 1550         h1     62    bbb     H6   1550 -0.05230000   1.008000   ; qtot 0.074199
 1551         c3     62    bbb     C4   1551 0.51680000  12.010000   ; qtot 0.590999
 1552         h1     62    bbb     H7   1552 -0.05230000   1.008000   ; qtot 0.538699
 1553         h1     62    bbb     H8   1553 -0.05230000   1.008000   ; qtot 0.486399
 1554         c3     62    bbb     C5   1554 -0.60390000  12.010000   ; qtot -0.117501
 1555         hc     62    bbb     H9   1555 0.16730000   1.008000   ; qtot 0.049799
 1556         hc     62    bbb    H10   1556 0.16730000   1.008000   ; qtot 0.217099
 1557         c3     62    bbb     C6   1557 -0.60390000  12.010000   ; qtot -0.386801
 1558         hc     62    bbb    H11   1558 0.16730000   1.008000   ; qtot -0.219501
 1559         hc     62    bbb    H12   1559 0.16730000   1.008000   ; qtot -0.052201
 1560          c     62    bbb     C7   1560 0.72110000  12.010000   ; qtot 0.668899
 1561          c     62    bbb     C8   1561 0.72110000  12.010000   ; qtot 1.389999
 1562          o     62    bbb     O1   1562 -0.61950000  16.000000   ; qtot 0.770499
 1563          o     62    bbb     O2   1563 -0.61950000  16.000000   ; qtot 0.150999
 1564          n     62    bbb     N4   1564 -0.46580000  14.010000   ; qtot -0.314801
 1565         hn     62    bbb    H21   1565 0.31480000   1.008000   ; qtot -0.000001
; residue   63 bbb rtp bbb q -0.0
 1566         c3     63    bbb     C1   1566 0.44180000  12.010000   ; qtot 0.441799
 1567         h1     63    bbb     H1   1567 -0.03530000   1.008000   ; qtot 0.406499
 1568         h1     63    bbb     H2   1568 -0.03530000   1.008000   ; qtot 0.371199
 1569         c3     63    bbb     C2   1569 -0.28250000  12.010000   ; qtot 0.088699
 1570         h1     63    bbb     H3   1570 0.15710000   1.008000   ; qtot 0.245799
 1571         h1     63    bbb     H4   1571 0.15710000   1.008000   ; qtot 0.402899
 1572         n3     63    bbb     N1   1572 -0.74090000  14.010000   ; qtot -0.338001
 1573         c3     63    bbb     C3   1573 0.51680000  12.010000   ; qtot 0.178799
 1574         h1     63    bbb     H5   1574 -0.05230000   1.008000   ; qtot 0.126499
 1575         h1     63    bbb     H6   1575 -0.05230000   1.008000   ; qtot 0.074199
 1576         c3     63    bbb     C4   1576 0.51680000  12.010000   ; qtot 0.590999
 1577         h1     63    bbb     H7   1577 -0.05230000   1.008000   ; qtot 0.538699
 1578         h1     63    bbb     H8   1578 -0.05230000   1.008000   ; qtot 0.486399
 1579         c3     63    bbb     C5   1579 -0.60390000  12.010000   ; qtot -0.117501
 1580         hc     63    bbb     H9   1580 0.16730000   1.008000   ; qtot 0.049799
 1581         hc     63    bbb    H10   1581 0.16730000   1.008000   ; qtot 0.217099
 1582         c3     63    bbb     C6   1582 -0.60390000  12.010000   ; qtot -0.386801
 1583         hc     63    bbb    H11   1583 0.16730000   1.008000   ; qtot -0.219501
 1584         hc     63    bbb    H12   1584 0.16730000   1.008000   ; qtot -0.052201
 1585          c     63    bbb     C7   1585 0.72110000  12.010000   ; qtot 0.668899
 1586          c     63    bbb     C8   1586 0.72110000  12.010000   ; qtot 1.389999
 1587          o     63    bbb     O1   1587 -0.61950000  16.000000   ; qtot 0.770499
 1588          o     63    bbb     O2   1588 -0.61950000  16.000000   ; qtot 0.150999
 1589          n     63    bbb     N4   1589 -0.46580000  14.010000   ; qtot -0.314801
 1590         hn     63    bbb    H21   1590 0.31480000   1.008000   ; qtot -0.000001
; residue   64 bbb rtp bbb q -0.0
 1591         c3     64    bbb     C1   1591 0.44180000  12.010000   ; qtot 0.441799
 1592         h1     64    bbb     H1   1592 -0.03530000   1.008000   ; qtot 0.406499
 1593         h1     64    bbb     H2   1593 -0.03530000   1.008000   ; qtot 0.371199
 1594         c3     64    bbb     C2   1594 -0.28250000  12.010000   ; qtot 0.088699
 1595         h1     64    bbb     H3   1595 0.15710000   1.008000   ; qtot 0.245799
 1596         h1     64    bbb     H4   1596 0.15710000   1.008000   ; qtot 0.402899
 1597         n3     64    bbb     N1   1597 -0.74090000  14.010000   ; qtot -0.338001
 1598         c3     64    bbb     C3   1598 0.51680000  12.010000   ; qtot 0.178799
 1599         h1     64    bbb     H5   1599 -0.05230000   1.008000   ; qtot 0.126499
 1600         h1     64    bbb     H6   1600 -0.05230000   1.008000   ; qtot 0.074199
 1601         c3     64    bbb     C4   1601 0.51680000  12.010000   ; qtot 0.590999
 1602         h1     64    bbb     H7   1602 -0.05230000   1.008000   ; qtot 0.538699
 1603         h1     64    bbb     H8   1603 -0.05230000   1.008000   ; qtot 0.486399
 1604         c3     64    bbb     C5   1604 -0.60390000  12.010000   ; qtot -0.117501
 1605         hc     64    bbb     H9   1605 0.16730000   1.008000   ; qtot 0.049799
 1606         hc     64    bbb    H10   1606 0.16730000   1.008000   ; qtot 0.217099
 1607         c3     64    bbb     C6   1607 -0.60390000  12.010000   ; qtot -0.386801
 1608         hc     64    bbb    H11   1608 0.16730000   1.008000   ; qtot -0.219501
 1609         hc     64    bbb    H12   1609 0.16730000   1.008000   ; qtot -0.052201
 1610          c     64    bbb     C7   1610 0.72110000  12.010000   ; qtot 0.668899
 1611          c     64    bbb     C8   1611 0.72110000  12.010000   ; qtot 1.389999
 1612          o     64    bbb     O1   1612 -0.61950000  16.000000   ; qtot 0.770499
 1613          o     64    bbb     O2   1613 -0.61950000  16.000000   ; qtot 0.150999
 1614          n     64    bbb     N4   1614 -0.46580000  14.010000   ; qtot -0.314801
 1615         hn     64    bbb    H21   1615 0.31480000   1.008000   ; qtot -0.000001
; residue   65 bbb rtp bbb q -0.0
 1616         c3     65    bbb     C1   1616 0.44180000  12.010000   ; qtot 0.441799
 1617         h1     65    bbb     H1   1617 -0.03530000   1.008000   ; qtot 0.406499
 1618         h1     65    bbb     H2   1618 -0.03530000   1.008000   ; qtot 0.371199
 1619         c3     65    bbb     C2   1619 -0.28250000  12.010000   ; qtot 0.088699
 1620         h1     65    bbb     H3   1620 0.15710000   1.008000   ; qtot 0.245799
 1621         h1     65    bbb     H4   1621 0.15710000   1.008000   ; qtot 0.402899
 1622         n3     65    bbb     N1   1622 -0.74090000  14.010000   ; qtot -0.338001
 1623         c3     65    bbb     C3   1623 0.51680000  12.010000   ; qtot 0.178799
 1624         h1     65    bbb     H5   1624 -0.05230000   1.008000   ; qtot 0.126499
 1625         h1     65    bbb     H6   1625 -0.05230000   1.008000   ; qtot 0.074199
 1626         c3     65    bbb     C4   1626 0.51680000  12.010000   ; qtot 0.590999
 1627         h1     65    bbb     H7   1627 -0.05230000   1.008000   ; qtot 0.538699
 1628         h1     65    bbb     H8   1628 -0.05230000   1.008000   ; qtot 0.486399
 1629         c3     65    bbb     C5   1629 -0.60390000  12.010000   ; qtot -0.117501
 1630         hc     65    bbb     H9   1630 0.16730000   1.008000   ; qtot 0.049799
 1631         hc     65    bbb    H10   1631 0.16730000   1.008000   ; qtot 0.217099
 1632         c3     65    bbb     C6   1632 -0.60390000  12.010000   ; qtot -0.386801
 1633         hc     65    bbb    H11   1633 0.16730000   1.008000   ; qtot -0.219501
 1634         hc     65    bbb    H12   1634 0.16730000   1.008000   ; qtot -0.052201
 1635          c     65    bbb     C7   1635 0.72110000  12.010000   ; qtot 0.668899
 1636          c     65    bbb     C8   1636 0.72110000  12.010000   ; qtot 1.389999
 1637          o     65    bbb     O1   1637 -0.61950000  16.000000   ; qtot 0.770499
 1638          o     65    bbb     O2   1638 -0.61950000  16.000000   ; qtot 0.150999
 1639          n     65    bbb     N4   1639 -0.46580000  14.010000   ; qtot -0.314801
 1640         hn     65    bbb    H21   1640 0.31480000   1.008000   ; qtot -0.000001
; residue   66 bbb rtp bbb q -0.0
 1641         c3     66    bbb     C1   1641 0.44180000  12.010000   ; qtot 0.441799
 1642         h1     66    bbb     H1   1642 -0.03530000   1.008000   ; qtot 0.406499
 1643         h1     66    bbb     H2   1643 -0.03530000   1.008000   ; qtot 0.371199
 1644         c3     66    bbb     C2   1644 -0.28250000  12.010000   ; qtot 0.088699
 1645         h1     66    bbb     H3   1645 0.15710000   1.008000   ; qtot 0.245799
 1646         h1     66    bbb     H4   1646 0.15710000   1.008000   ; qtot 0.402899
 1647         n3     66    bbb     N1   1647 -0.74090000  14.010000   ; qtot -0.338001
 1648         c3     66    bbb     C3   1648 0.51680000  12.010000   ; qtot 0.178799
 1649         h1     66    bbb     H5   1649 -0.05230000   1.008000   ; qtot 0.126499
 1650         h1     66    bbb     H6   1650 -0.05230000   1.008000   ; qtot 0.074199
 1651         c3     66    bbb     C4   1651 0.51680000  12.010000   ; qtot 0.590999
 1652         h1     66    bbb     H7   1652 -0.05230000   1.008000   ; qtot 0.538699
 1653         h1     66    bbb     H8   1653 -0.05230000   1.008000   ; qtot 0.486399
 1654         c3     66    bbb     C5   1654 -0.60390000  12.010000   ; qtot -0.117501
 1655         hc     66    bbb     H9   1655 0.16730000   1.008000   ; qtot 0.049799
 1656         hc     66    bbb    H10   1656 0.16730000   1.008000   ; qtot 0.217099
 1657         c3     66    bbb     C6   1657 -0.60390000  12.010000   ; qtot -0.386801
 1658         hc     66    bbb    H11   1658 0.16730000   1.008000   ; qtot -0.219501
 1659         hc     66    bbb    H12   1659 0.16730000   1.008000   ; qtot -0.052201
 1660          c     66    bbb     C7   1660 0.72110000  12.010000   ; qtot 0.668899
 1661          c     66    bbb     C8   1661 0.72110000  12.010000   ; qtot 1.389999
 1662          o     66    bbb     O1   1662 -0.61950000  16.000000   ; qtot 0.770499
 1663          o     66    bbb     O2   1663 -0.61950000  16.000000   ; qtot 0.150999
 1664          n     66    bbb     N4   1664 -0.46580000  14.010000   ; qtot -0.314801
 1665         hn     66    bbb    H21   1665 0.31480000   1.008000   ; qtot -0.000001
; residue   67 bbb rtp bbb q -0.0
 1666         c3     67    bbb     C1   1666 0.44180000  12.010000   ; qtot 0.441799
 1667         h1     67    bbb     H1   1667 -0.03530000   1.008000   ; qtot 0.406499
 1668         h1     67    bbb     H2   1668 -0.03530000   1.008000   ; qtot 0.371199
 1669         c3     67    bbb     C2   1669 -0.28250000  12.010000   ; qtot 0.088699
 1670         h1     67    bbb     H3   1670 0.15710000   1.008000   ; qtot 0.245799
 1671         h1     67    bbb     H4   1671 0.15710000   1.008000   ; qtot 0.402899
 1672         n3     67    bbb     N1   1672 -0.74090000  14.010000   ; qtot -0.338001
 1673         c3     67    bbb     C3   1673 0.51680000  12.010000   ; qtot 0.178799
 1674         h1     67    bbb     H5   1674 -0.05230000   1.008000   ; qtot 0.126499
 1675         h1     67    bbb     H6   1675 -0.05230000   1.008000   ; qtot 0.074199
 1676         c3     67    bbb     C4   1676 0.51680000  12.010000   ; qtot 0.590999
 1677         h1     67    bbb     H7   1677 -0.05230000   1.008000   ; qtot 0.538699
 1678         h1     67    bbb     H8   1678 -0.05230000   1.008000   ; qtot 0.486399
 1679         c3     67    bbb     C5   1679 -0.60390000  12.010000   ; qtot -0.117501
 1680         hc     67    bbb     H9   1680 0.16730000   1.008000   ; qtot 0.049799
 1681         hc     67    bbb    H10   1681 0.16730000   1.008000   ; qtot 0.217099
 1682         c3     67    bbb     C6   1682 -0.60390000  12.010000   ; qtot -0.386801
 1683         hc     67    bbb    H11   1683 0.16730000   1.008000   ; qtot -0.219501
 1684         hc     67    bbb    H12   1684 0.16730000   1.008000   ; qtot -0.052201
 1685          c     67    bbb     C7   1685 0.72110000  12.010000   ; qtot 0.668899
 1686          c     67    bbb     C8   1686 0.72110000  12.010000   ; qtot 1.389999
 1687          o     67    bbb     O1   1687 -0.61950000  16.000000   ; qtot 0.770499
 1688          o     67    bbb     O2   1688 -0.61950000  16.000000   ; qtot 0.150999
 1689          n     67    bbb     N4   1689 -0.46580000  14.010000   ; qtot -0.314801
 1690         hn     67    bbb    H21   1690 0.31480000   1.008000   ; qtot -0.000001
; residue   68 bbb rtp bbb q -0.0
 1691         c3     68    bbb     C1   1691 0.44180000  12.010000   ; qtot 0.441799
 1692         h1     68    bbb     H1   1692 -0.03530000   1.008000   ; qtot 0.406499
 1693         h1     68    bbb     H2   1693 -0.03530000   1.008000   ; qtot 0.371199
 1694         c3     68    bbb     C2   1694 -0.28250000  12.010000   ; qtot 0.088699
 1695         h1     68    bbb     H3   1695 0.15710000   1.008000   ; qtot 0.245799
 1696         h1     68    bbb     H4   1696 0.15710000   1.008000   ; qtot 0.402899
 1697         n3     68    bbb     N1   1697 -0.74090000  14.010000   ; qtot -0.338001
 1698         c3     68    bbb     C3   1698 0.51680000  12.010000   ; qtot 0.178799
 1699         h1     68    bbb     H5   1699 -0.05230000   1.008000   ; qtot 0.126499
 1700         h1     68    bbb     H6   1700 -0.05230000   1.008000   ; qtot 0.074199
 1701         c3     68    bbb     C4   1701 0.51680000  12.010000   ; qtot 0.590999
 1702         h1     68    bbb     H7   1702 -0.05230000   1.008000   ; qtot 0.538699
 1703         h1     68    bbb     H8   1703 -0.05230000   1.008000   ; qtot 0.486399
 1704         c3     68    bbb     C5   1704 -0.60390000  12.010000   ; qtot -0.117501
 1705         hc     68    bbb     H9   1705 0.16730000   1.008000   ; qtot 0.049799
 1706         hc     68    bbb    H10   1706 0.16730000   1.008000   ; qtot 0.217099
 1707         c3     68    bbb     C6   1707 -0.60390000  12.010000   ; qtot -0.386801
 1708         hc     68    bbb    H11   1708 0.16730000   1.008000   ; qtot -0.219501
 1709         hc     68    bbb    H12   1709 0.16730000   1.008000   ; qtot -0.052201
 1710          c     68    bbb     C7   1710 0.72110000  12.010000   ; qtot 0.668899
 1711          c     68    bbb     C8   1711 0.72110000  12.010000   ; qtot 1.389999
 1712          o     68    bbb     O1   1712 -0.61950000  16.000000   ; qtot 0.770499
 1713          o     68    bbb     O2   1713 -0.61950000  16.000000   ; qtot 0.150999
 1714          n     68    bbb     N4   1714 -0.46580000  14.010000   ; qtot -0.314801
 1715         hn     68    bbb    H21   1715 0.31480000   1.008000   ; qtot -0.000001
; residue   69 bbb rtp bbb q -0.0
 1716         c3     69    bbb     C1   1716 0.44180000  12.010000   ; qtot 0.441799
 1717         h1     69    bbb     H1   1717 -0.03530000   1.008000   ; qtot 0.406499
 1718         h1     69    bbb     H2   1718 -0.03530000   1.008000   ; qtot 0.371199
 1719         c3     69    bbb     C2   1719 -0.28250000  12.010000   ; qtot 0.088699
 1720         h1     69    bbb     H3   1720 0.15710000   1.008000   ; qtot 0.245799
 1721         h1     69    bbb     H4   1721 0.15710000   1.008000   ; qtot 0.402899
 1722         n3     69    bbb     N1   1722 -0.74090000  14.010000   ; qtot -0.338001
 1723         c3     69    bbb     C3   1723 0.51680000  12.010000   ; qtot 0.178799
 1724         h1     69    bbb     H5   1724 -0.05230000   1.008000   ; qtot 0.126499
 1725         h1     69    bbb     H6   1725 -0.05230000   1.008000   ; qtot 0.074199
 1726         c3     69    bbb     C4   1726 0.51680000  12.010000   ; qtot 0.590999
 1727         h1     69    bbb     H7   1727 -0.05230000   1.008000   ; qtot 0.538699
 1728         h1     69    bbb     H8   1728 -0.05230000   1.008000   ; qtot 0.486399
 1729         c3     69    bbb     C5   1729 -0.60390000  12.010000   ; qtot -0.117501
 1730         hc     69    bbb     H9   1730 0.16730000   1.008000   ; qtot 0.049799
 1731         hc     69    bbb    H10   1731 0.16730000   1.008000   ; qtot 0.217099
 1732         c3     69    bbb     C6   1732 -0.60390000  12.010000   ; qtot -0.386801
 1733         hc     69    bbb    H11   1733 0.16730000   1.008000   ; qtot -0.219501
 1734         hc     69    bbb    H12   1734 0.16730000   1.008000   ; qtot -0.052201
 1735          c     69    bbb     C7   1735 0.72110000  12.010000   ; qtot 0.668899
 1736          c     69    bbb     C8   1736 0.72110000  12.010000   ; qtot 1.389999
 1737          o     69    bbb     O1   1737 -0.61950000  16.000000   ; qtot 0.770499
 1738          o     69    bbb     O2   1738 -0.61950000  16.000000   ; qtot 0.150999
 1739          n     69    bbb     N4   1739 -0.46580000  14.010000   ; qtot -0.314801
 1740         hn     69    bbb    H21   1740 0.31480000   1.008000   ; qtot -0.000001
; residue   70 bbb rtp bbb q -0.0
 1741         c3     70    bbb     C1   1741 0.44180000  12.010000   ; qtot 0.441799
 1742         h1     70    bbb     H1   1742 -0.03530000   1.008000   ; qtot 0.406499
 1743         h1     70    bbb     H2   1743 -0.03530000   1.008000   ; qtot 0.371199
 1744         c3     70    bbb     C2   1744 -0.28250000  12.010000   ; qtot 0.088699
 1745         h1     70    bbb     H3   1745 0.15710000   1.008000   ; qtot 0.245799
 1746         h1     70    bbb     H4   1746 0.15710000   1.008000   ; qtot 0.402899
 1747         n3     70    bbb     N1   1747 -0.74090000  14.010000   ; qtot -0.338001
 1748         c3     70    bbb     C3   1748 0.51680000  12.010000   ; qtot 0.178799
 1749         h1     70    bbb     H5   1749 -0.05230000   1.008000   ; qtot 0.126499
 1750         h1     70    bbb     H6   1750 -0.05230000   1.008000   ; qtot 0.074199
 1751         c3     70    bbb     C4   1751 0.51680000  12.010000   ; qtot 0.590999
 1752         h1     70    bbb     H7   1752 -0.05230000   1.008000   ; qtot 0.538699
 1753         h1     70    bbb     H8   1753 -0.05230000   1.008000   ; qtot 0.486399
 1754         c3     70    bbb     C5   1754 -0.60390000  12.010000   ; qtot -0.117501
 1755         hc     70    bbb     H9   1755 0.16730000   1.008000   ; qtot 0.049799
 1756         hc     70    bbb    H10   1756 0.16730000   1.008000   ; qtot 0.217099
 1757         c3     70    bbb     C6   1757 -0.60390000  12.010000   ; qtot -0.386801
 1758         hc     70    bbb    H11   1758 0.16730000   1.008000   ; qtot -0.219501
 1759         hc     70    bbb    H12   1759 0.16730000   1.008000   ; qtot -0.052201
 1760          c     70    bbb     C7   1760 0.72110000  12.010000   ; qtot 0.668899
 1761          c     70    bbb     C8   1761 0.72110000  12.010000   ; qtot 1.389999
 1762          o     70    bbb     O1   1762 -0.61950000  16.000000   ; qtot 0.770499
 1763          o     70    bbb     O2   1763 -0.61950000  16.000000   ; qtot 0.150999
 1764          n     70    bbb     N4   1764 -0.46580000  14.010000   ; qtot -0.314801
 1765         hn     70    bbb    H21   1765 0.31480000   1.008000   ; qtot -0.000001
; residue   71 bbb rtp bbb q -0.0
 1766         c3     71    bbb     C1   1766 0.44180000  12.010000   ; qtot 0.441799
 1767         h1     71    bbb     H1   1767 -0.03530000   1.008000   ; qtot 0.406499
 1768         h1     71    bbb     H2   1768 -0.03530000   1.008000   ; qtot 0.371199
 1769         c3     71    bbb     C2   1769 -0.28250000  12.010000   ; qtot 0.088699
 1770         h1     71    bbb     H3   1770 0.15710000   1.008000   ; qtot 0.245799
 1771         h1     71    bbb     H4   1771 0.15710000   1.008000   ; qtot 0.402899
 1772         n3     71    bbb     N1   1772 -0.74090000  14.010000   ; qtot -0.338001
 1773         c3     71    bbb     C3   1773 0.51680000  12.010000   ; qtot 0.178799
 1774         h1     71    bbb     H5   1774 -0.05230000   1.008000   ; qtot 0.126499
 1775         h1     71    bbb     H6   1775 -0.05230000   1.008000   ; qtot 0.074199
 1776         c3     71    bbb     C4   1776 0.51680000  12.010000   ; qtot 0.590999
 1777         h1     71    bbb     H7   1777 -0.05230000   1.008000   ; qtot 0.538699
 1778         h1     71    bbb     H8   1778 -0.05230000   1.008000   ; qtot 0.486399
 1779         c3     71    bbb     C5   1779 -0.60390000  12.010000   ; qtot -0.117501
 1780         hc     71    bbb     H9   1780 0.16730000   1.008000   ; qtot 0.049799
 1781         hc     71    bbb    H10   1781 0.16730000   1.008000   ; qtot 0.217099
 1782         c3     71    bbb     C6   1782 -0.60390000  12.010000   ; qtot -0.386801
 1783         hc     71    bbb    H11   1783 0.16730000   1.008000   ; qtot -0.219501
 1784         hc     71    bbb    H12   1784 0.16730000   1.008000   ; qtot -0.052201
 1785          c     71    bbb     C7   1785 0.72110000  12.010000   ; qtot 0.668899
 1786          c     71    bbb     C8   1786 0.72110000  12.010000   ; qtot 1.389999
 1787          o     71    bbb     O1   1787 -0.61950000  16.000000   ; qtot 0.770499
 1788          o     71    bbb     O2   1788 -0.61950000  16.000000   ; qtot 0.150999
 1789          n     71    bbb     N4   1789 -0.46580000  14.010000   ; qtot -0.314801
 1790         hn     71    bbb    H21   1790 0.31480000   1.008000   ; qtot -0.000001
; residue   72 bbb rtp bbb q -0.0
 1791         c3     72    bbb     C1   1791 0.44180000  12.010000   ; qtot 0.441799
 1792         h1     72    bbb     H1   1792 -0.03530000   1.008000   ; qtot 0.406499
 1793         h1     72    bbb     H2   1793 -0.03530000   1.008000   ; qtot 0.371199
 1794         c3     72    bbb     C2   1794 -0.28250000  12.010000   ; qtot 0.088699
 1795         h1     72    bbb     H3   1795 0.15710000   1.008000   ; qtot 0.245799
 1796         h1     72    bbb     H4   1796 0.15710000   1.008000   ; qtot 0.402899
 1797         n3     72    bbb     N1   1797 -0.74090000  14.010000   ; qtot -0.338001
 1798         c3     72    bbb     C3   1798 0.51680000  12.010000   ; qtot 0.178799
 1799         h1     72    bbb     H5   1799 -0.05230000   1.008000   ; qtot 0.126499
 1800         h1     72    bbb     H6   1800 -0.05230000   1.008000   ; qtot 0.074199
 1801         c3     72    bbb     C4   1801 0.51680000  12.010000   ; qtot 0.590999
 1802         h1     72    bbb     H7   1802 -0.05230000   1.008000   ; qtot 0.538699
 1803         h1     72    bbb     H8   1803 -0.05230000   1.008000   ; qtot 0.486399
 1804         c3     72    bbb     C5   1804 -0.60390000  12.010000   ; qtot -0.117501
 1805         hc     72    bbb     H9   1805 0.16730000   1.008000   ; qtot 0.049799
 1806         hc     72    bbb    H10   1806 0.16730000   1.008000   ; qtot 0.217099
 1807         c3     72    bbb     C6   1807 -0.60390000  12.010000   ; qtot -0.386801
 1808         hc     72    bbb    H11   1808 0.16730000   1.008000   ; qtot -0.219501
 1809         hc     72    bbb    H12   1809 0.16730000   1.008000   ; qtot -0.052201
 1810          c     72    bbb     C7   1810 0.72110000  12.010000   ; qtot 0.668899
 1811          c     72    bbb     C8   1811 0.72110000  12.010000   ; qtot 1.389999
 1812          o     72    bbb     O1   1812 -0.61950000  16.000000   ; qtot 0.770499
 1813          o     72    bbb     O2   1813 -0.61950000  16.000000   ; qtot 0.150999
 1814          n     72    bbb     N4   1814 -0.46580000  14.010000   ; qtot -0.314801
 1815         hn     72    bbb    H21   1815 0.31480000   1.008000   ; qtot -0.000001
; residue   73 bbb rtp bbb q -0.0
 1816         c3     73    bbb     C1   1816 0.44180000  12.010000   ; qtot 0.441799
 1817         h1     73    bbb     H1   1817 -0.03530000   1.008000   ; qtot 0.406499
 1818         h1     73    bbb     H2   1818 -0.03530000   1.008000   ; qtot 0.371199
 1819         c3     73    bbb     C2   1819 -0.28250000  12.010000   ; qtot 0.088699
 1820         h1     73    bbb     H3   1820 0.15710000   1.008000   ; qtot 0.245799
 1821         h1     73    bbb     H4   1821 0.15710000   1.008000   ; qtot 0.402899
 1822         n3     73    bbb     N1   1822 -0.74090000  14.010000   ; qtot -0.338001
 1823         c3     73    bbb     C3   1823 0.51680000  12.010000   ; qtot 0.178799
 1824         h1     73    bbb     H5   1824 -0.05230000   1.008000   ; qtot 0.126499
 1825         h1     73    bbb     H6   1825 -0.05230000   1.008000   ; qtot 0.074199
 1826         c3     73    bbb     C4   1826 0.51680000  12.010000   ; qtot 0.590999
 1827         h1     73    bbb     H7   1827 -0.05230000   1.008000   ; qtot 0.538699
 1828         h1     73    bbb     H8   1828 -0.05230000   1.008000   ; qtot 0.486399
 1829         c3     73    bbb     C5   1829 -0.60390000  12.010000   ; qtot -0.117501
 1830         hc     73    bbb     H9   1830 0.16730000   1.008000   ; qtot 0.049799
 1831         hc     73    bbb    H10   1831 0.16730000   1.008000   ; qtot 0.217099
 1832         c3     73    bbb     C6   1832 -0.60390000  12.010000   ; qtot -0.386801
 1833         hc     73    bbb    H11   1833 0.16730000   1.008000   ; qtot -0.219501
 1834         hc     73    bbb    H12   1834 0.16730000   1.008000   ; qtot -0.052201
 1835          c     73    bbb     C7   1835 0.72110000  12.010000   ; qtot 0.668899
 1836          c     73    bbb     C8   1836 0.72110000  12.010000   ; qtot 1.389999
 1837          o     73    bbb     O1   1837 -0.61950000  16.000000   ; qtot 0.770499
 1838          o     73    bbb     O2   1838 -0.61950000  16.000000   ; qtot 0.150999
 1839          n     73    bbb     N4   1839 -0.46580000  14.010000   ; qtot -0.314801
 1840         hn     73    bbb    H21   1840 0.31480000   1.008000   ; qtot -0.000001
; residue   74 bbb rtp bbb q -0.0
 1841         c3     74    bbb     C1   1841 0.44180000  12.010000   ; qtot 0.441799
 1842         h1     74    bbb     H1   1842 -0.03530000   1.008000   ; qtot 0.406499
 1843         h1     74    bbb     H2   1843 -0.03530000   1.008000   ; qtot 0.371199
 1844         c3     74    bbb     C2   1844 -0.28250000  12.010000   ; qtot 0.088699
 1845         h1     74    bbb     H3   1845 0.15710000   1.008000   ; qtot 0.245799
 1846         h1     74    bbb     H4   1846 0.15710000   1.008000   ; qtot 0.402899
 1847         n3     74    bbb     N1   1847 -0.74090000  14.010000   ; qtot -0.338001
 1848         c3     74    bbb     C3   1848 0.51680000  12.010000   ; qtot 0.178799
 1849         h1     74    bbb     H5   1849 -0.05230000   1.008000   ; qtot 0.126499
 1850         h1     74    bbb     H6   1850 -0.05230000   1.008000   ; qtot 0.074199
 1851         c3     74    bbb     C4   1851 0.51680000  12.010000   ; qtot 0.590999
 1852         h1     74    bbb     H7   1852 -0.05230000   1.008000   ; qtot 0.538699
 1853         h1     74    bbb     H8   1853 -0.05230000   1.008000   ; qtot 0.486399
 1854         c3     74    bbb     C5   1854 -0.60390000  12.010000   ; qtot -0.117501
 1855         hc     74    bbb     H9   1855 0.16730000   1.008000   ; qtot 0.049799
 1856         hc     74    bbb    H10   1856 0.16730000   1.008000   ; qtot 0.217099
 1857         c3     74    bbb     C6   1857 -0.60390000  12.010000   ; qtot -0.386801
 1858         hc     74    bbb    H11   1858 0.16730000   1.008000   ; qtot -0.219501
 1859         hc     74    bbb    H12   1859 0.16730000   1.008000   ; qtot -0.052201
 1860          c     74    bbb     C7   1860 0.72110000  12.010000   ; qtot 0.668899
 1861          c     74    bbb     C8   1861 0.72110000  12.010000   ; qtot 1.389999
 1862          o     74    bbb     O1   1862 -0.61950000  16.000000   ; qtot 0.770499
 1863          o     74    bbb     O2   1863 -0.61950000  16.000000   ; qtot 0.150999
 1864          n     74    bbb     N4   1864 -0.46580000  14.010000   ; qtot -0.314801
 1865         hn     74    bbb    H21   1865 0.31480000   1.008000   ; qtot -0.000001
; residue   75 bbb rtp bbb q -0.0
 1866         c3     75    bbb     C1   1866 0.44180000  12.010000   ; qtot 0.441799
 1867         h1     75    bbb     H1   1867 -0.03530000   1.008000   ; qtot 0.406499
 1868         h1     75    bbb     H2   1868 -0.03530000   1.008000   ; qtot 0.371199
 1869         c3     75    bbb     C2   1869 -0.28250000  12.010000   ; qtot 0.088699
 1870         h1     75    bbb     H3   1870 0.15710000   1.008000   ; qtot 0.245799
 1871         h1     75    bbb     H4   1871 0.15710000   1.008000   ; qtot 0.402899
 1872         n3     75    bbb     N1   1872 -0.74090000  14.010000   ; qtot -0.338001
 1873         c3     75    bbb     C3   1873 0.51680000  12.010000   ; qtot 0.178799
 1874         h1     75    bbb     H5   1874 -0.05230000   1.008000   ; qtot 0.126499
 1875         h1     75    bbb     H6   1875 -0.05230000   1.008000   ; qtot 0.074199
 1876         c3     75    bbb     C4   1876 0.51680000  12.010000   ; qtot 0.590999
 1877         h1     75    bbb     H7   1877 -0.05230000   1.008000   ; qtot 0.538699
 1878         h1     75    bbb     H8   1878 -0.05230000   1.008000   ; qtot 0.486399
 1879         c3     75    bbb     C5   1879 -0.60390000  12.010000   ; qtot -0.117501
 1880         hc     75    bbb     H9   1880 0.16730000   1.008000   ; qtot 0.049799
 1881         hc     75    bbb    H10   1881 0.16730000   1.008000   ; qtot 0.217099
 1882         c3     75    bbb     C6   1882 -0.60390000  12.010000   ; qtot -0.386801
 1883         hc     75    bbb    H11   1883 0.16730000   1.008000   ; qtot -0.219501
 1884         hc     75    bbb    H12   1884 0.16730000   1.008000   ; qtot -0.052201
 1885          c     75    bbb     C7   1885 0.72110000  12.010000   ; qtot 0.668899
 1886          c     75    bbb     C8   1886 0.72110000  12.010000   ; qtot 1.389999
 1887          o     75    bbb     O1   1887 -0.61950000  16.000000   ; qtot 0.770499
 1888          o     75    bbb     O2   1888 -0.61950000  16.000000   ; qtot 0.150999
 1889          n     75    bbb     N4   1889 -0.46580000  14.010000   ; qtot -0.314801
 1890         hn     75    bbb    H21   1890 0.31480000   1.008000   ; qtot -0.000001
; residue   76 bbb rtp bbb q -0.0
 1891         c3     76    bbb     C1   1891 0.44180000  12.010000   ; qtot 0.441799
 1892         h1     76    bbb     H1   1892 -0.03530000   1.008000   ; qtot 0.406499
 1893         h1     76    bbb     H2   1893 -0.03530000   1.008000   ; qtot 0.371199
 1894         c3     76    bbb     C2   1894 -0.28250000  12.010000   ; qtot 0.088699
 1895         h1     76    bbb     H3   1895 0.15710000   1.008000   ; qtot 0.245799
 1896         h1     76    bbb     H4   1896 0.15710000   1.008000   ; qtot 0.402899
 1897         n3     76    bbb     N1   1897 -0.74090000  14.010000   ; qtot -0.338001
 1898         c3     76    bbb     C3   1898 0.51680000  12.010000   ; qtot 0.178799
 1899         h1     76    bbb     H5   1899 -0.05230000   1.008000   ; qtot 0.126499
 1900         h1     76    bbb     H6   1900 -0.05230000   1.008000   ; qtot 0.074199
 1901         c3     76    bbb     C4   1901 0.51680000  12.010000   ; qtot 0.590999
 1902         h1     76    bbb     H7   1902 -0.05230000   1.008000   ; qtot 0.538699
 1903         h1     76    bbb     H8   1903 -0.05230000   1.008000   ; qtot 0.486399
 1904         c3     76    bbb     C5   1904 -0.60390000  12.010000   ; qtot -0.117501
 1905         hc     76    bbb     H9   1905 0.16730000   1.008000   ; qtot 0.049799
 1906         hc     76    bbb    H10   1906 0.16730000   1.008000   ; qtot 0.217099
 1907         c3     76    bbb     C6   1907 -0.60390000  12.010000   ; qtot -0.386801
 1908         hc     76    bbb    H11   1908 0.16730000   1.008000   ; qtot -0.219501
 1909         hc     76    bbb    H12   1909 0.16730000   1.008000   ; qtot -0.052201
 1910          c     76    bbb     C7   1910 0.72110000  12.010000   ; qtot 0.668899
 1911          c     76    bbb     C8   1911 0.72110000  12.010000   ; qtot 1.389999
 1912          o     76    bbb     O1   1912 -0.61950000  16.000000   ; qtot 0.770499
 1913          o     76    bbb     O2   1913 -0.61950000  16.000000   ; qtot 0.150999
 1914          n     76    bbb     N4   1914 -0.46580000  14.010000   ; qtot -0.314801
 1915         hn     76    bbb    H21   1915 0.31480000   1.008000   ; qtot -0.000001
; residue   77 bbb rtp bbb q -0.0
 1916         c3     77    bbb     C1   1916 0.44180000  12.010000   ; qtot 0.441799
 1917         h1     77    bbb     H1   1917 -0.03530000   1.008000   ; qtot 0.406499
 1918         h1     77    bbb     H2   1918 -0.03530000   1.008000   ; qtot 0.371199
 1919         c3     77    bbb     C2   1919 -0.28250000  12.010000   ; qtot 0.088699
 1920         h1     77    bbb     H3   1920 0.15710000   1.008000   ; qtot 0.245799
 1921         h1     77    bbb     H4   1921 0.15710000   1.008000   ; qtot 0.402899
 1922         n3     77    bbb     N1   1922 -0.74090000  14.010000   ; qtot -0.338001
 1923         c3     77    bbb     C3   1923 0.51680000  12.010000   ; qtot 0.178799
 1924         h1     77    bbb     H5   1924 -0.05230000   1.008000   ; qtot 0.126499
 1925         h1     77    bbb     H6   1925 -0.05230000   1.008000   ; qtot 0.074199
 1926         c3     77    bbb     C4   1926 0.51680000  12.010000   ; qtot 0.590999
 1927         h1     77    bbb     H7   1927 -0.05230000   1.008000   ; qtot 0.538699
 1928         h1     77    bbb     H8   1928 -0.05230000   1.008000   ; qtot 0.486399
 1929         c3     77    bbb     C5   1929 -0.60390000  12.010000   ; qtot -0.117501
 1930         hc     77    bbb     H9   1930 0.16730000   1.008000   ; qtot 0.049799
 1931         hc     77    bbb    H10   1931 0.16730000   1.008000   ; qtot 0.217099
 1932         c3     77    bbb     C6   1932 -0.60390000  12.010000   ; qtot -0.386801
 1933         hc     77    bbb    H11   1933 0.16730000   1.008000   ; qtot -0.219501
 1934         hc     77    bbb    H12   1934 0.16730000   1.008000   ; qtot -0.052201
 1935          c     77    bbb     C7   1935 0.72110000  12.010000   ; qtot 0.668899
 1936          c     77    bbb     C8   1936 0.72110000  12.010000   ; qtot 1.389999
 1937          o     77    bbb     O1   1937 -0.61950000  16.000000   ; qtot 0.770499
 1938          o     77    bbb     O2   1938 -0.61950000  16.000000   ; qtot 0.150999
 1939          n     77    bbb     N4   1939 -0.46580000  14.010000   ; qtot -0.314801
 1940         hn     77    bbb    H21   1940 0.31480000   1.008000   ; qtot -0.000001
; residue   78 bbb rtp bbb q -0.0
 1941         c3     78    bbb     C1   1941 0.44180000  12.010000   ; qtot 0.441799
 1942         h1     78    bbb     H1   1942 -0.03530000   1.008000   ; qtot 0.406499
 1943         h1     78    bbb     H2   1943 -0.03530000   1.008000   ; qtot 0.371199
 1944         c3     78    bbb     C2   1944 -0.28250000  12.010000   ; qtot 0.088699
 1945         h1     78    bbb     H3   1945 0.15710000   1.008000   ; qtot 0.245799
 1946         h1     78    bbb     H4   1946 0.15710000   1.008000   ; qtot 0.402899
 1947         n3     78    bbb     N1   1947 -0.74090000  14.010000   ; qtot -0.338001
 1948         c3     78    bbb     C3   1948 0.51680000  12.010000   ; qtot 0.178799
 1949         h1     78    bbb     H5   1949 -0.05230000   1.008000   ; qtot 0.126499
 1950         h1     78    bbb     H6   1950 -0.05230000   1.008000   ; qtot 0.074199
 1951         c3     78    bbb     C4   1951 0.51680000  12.010000   ; qtot 0.590999
 1952         h1     78    bbb     H7   1952 -0.05230000   1.008000   ; qtot 0.538699
 1953         h1     78    bbb     H8   1953 -0.05230000   1.008000   ; qtot 0.486399
 1954         c3     78    bbb     C5   1954 -0.60390000  12.010000   ; qtot -0.117501
 1955         hc     78    bbb     H9   1955 0.16730000   1.008000   ; qtot 0.049799
 1956         hc     78    bbb    H10   1956 0.16730000   1.008000   ; qtot 0.217099
 1957         c3     78    bbb     C6   1957 -0.60390000  12.010000   ; qtot -0.386801
 1958         hc     78    bbb    H11   1958 0.16730000   1.008000   ; qtot -0.219501
 1959         hc     78    bbb    H12   1959 0.16730000   1.008000   ; qtot -0.052201
 1960          c     78    bbb     C7   1960 0.72110000  12.010000   ; qtot 0.668899
 1961          c     78    bbb     C8   1961 0.72110000  12.010000   ; qtot 1.389999
 1962          o     78    bbb     O1   1962 -0.61950000  16.000000   ; qtot 0.770499
 1963          o     78    bbb     O2   1963 -0.61950000  16.000000   ; qtot 0.150999
 1964          n     78    bbb     N4   1964 -0.46580000  14.010000   ; qtot -0.314801
 1965         hn     78    bbb    H21   1965 0.31480000   1.008000   ; qtot -0.000001
; residue   79 bbb rtp bbb q -0.0
 1966         c3     79    bbb     C1   1966 0.44180000  12.010000   ; qtot 0.441799
 1967         h1     79    bbb     H1   1967 -0.03530000   1.008000   ; qtot 0.406499
 1968         h1     79    bbb     H2   1968 -0.03530000   1.008000   ; qtot 0.371199
 1969         c3     79    bbb     C2   1969 -0.28250000  12.010000   ; qtot 0.088699
 1970         h1     79    bbb     H3   1970 0.15710000   1.008000   ; qtot 0.245799
 1971         h1     79    bbb     H4   1971 0.15710000   1.008000   ; qtot 0.402899
 1972         n3     79    bbb     N1   1972 -0.74090000  14.010000   ; qtot -0.338001
 1973         c3     79    bbb     C3   1973 0.51680000  12.010000   ; qtot 0.178799
 1974         h1     79    bbb     H5   1974 -0.05230000   1.008000   ; qtot 0.126499
 1975         h1     79    bbb     H6   1975 -0.05230000   1.008000   ; qtot 0.074199
 1976         c3     79    bbb     C4   1976 0.51680000  12.010000   ; qtot 0.590999
 1977         h1     79    bbb     H7   1977 -0.05230000   1.008000   ; qtot 0.538699
 1978         h1     79    bbb     H8   1978 -0.05230000   1.008000   ; qtot 0.486399
 1979         c3     79    bbb     C5   1979 -0.60390000  12.010000   ; qtot -0.117501
 1980         hc     79    bbb     H9   1980 0.16730000   1.008000   ; qtot 0.049799
 1981         hc     79    bbb    H10   1981 0.16730000   1.008000   ; qtot 0.217099
 1982         c3     79    bbb     C6   1982 -0.60390000  12.010000   ; qtot -0.386801
 1983         hc     79    bbb    H11   1983 0.16730000   1.008000   ; qtot -0.219501
 1984         hc     79    bbb    H12   1984 0.16730000   1.008000   ; qtot -0.052201
 1985          c     79    bbb     C7   1985 0.72110000  12.010000   ; qtot 0.668899
 1986          c     79    bbb     C8   1986 0.72110000  12.010000   ; qtot 1.389999
 1987          o     79    bbb     O1   1987 -0.61950000  16.000000   ; qtot 0.770499
 1988          o     79    bbb     O2   1988 -0.61950000  16.000000   ; qtot 0.150999
 1989          n     79    bbb     N4   1989 -0.46580000  14.010000   ; qtot -0.314801
 1990         hn     79    bbb    H21   1990 0.31480000   1.008000   ; qtot -0.000001
; residue   80 bbb rtp bbb q -0.0
 1991         c3     80    bbb     C1   1991 0.44180000  12.010000   ; qtot 0.441799
 1992         h1     80    bbb     H1   1992 -0.03530000   1.008000   ; qtot 0.406499
 1993         h1     80    bbb     H2   1993 -0.03530000   1.008000   ; qtot 0.371199
 1994         c3     80    bbb     C2   1994 -0.28250000  12.010000   ; qtot 0.088699
 1995         h1     80    bbb     H3   1995 0.15710000   1.008000   ; qtot 0.245799
 1996         h1     80    bbb     H4   1996 0.15710000   1.008000   ; qtot 0.402899
 1997         n3     80    bbb     N1   1997 -0.74090000  14.010000   ; qtot -0.338001
 1998         c3     80    bbb     C3   1998 0.51680000  12.010000   ; qtot 0.178799
 1999         h1     80    bbb     H5   1999 -0.05230000   1.008000   ; qtot 0.126499
 2000         h1     80    bbb     H6   2000 -0.05230000   1.008000   ; qtot 0.074199
 2001         c3     80    bbb     C4   2001 0.51680000  12.010000   ; qtot 0.590999
 2002         h1     80    bbb     H7   2002 -0.05230000   1.008000   ; qtot 0.538699
 2003         h1     80    bbb     H8   2003 -0.05230000   1.008000   ; qtot 0.486399
 2004         c3     80    bbb     C5   2004 -0.60390000  12.010000   ; qtot -0.117501
 2005         hc     80    bbb     H9   2005 0.16730000   1.008000   ; qtot 0.049799
 2006         hc     80    bbb    H10   2006 0.16730000   1.008000   ; qtot 0.217099
 2007         c3     80    bbb     C6   2007 -0.60390000  12.010000   ; qtot -0.386801
 2008         hc     80    bbb    H11   2008 0.16730000   1.008000   ; qtot -0.219501
 2009         hc     80    bbb    H12   2009 0.16730000   1.008000   ; qtot -0.052201
 2010          c     80    bbb     C7   2010 0.72110000  12.010000   ; qtot 0.668899
 2011          c     80    bbb     C8   2011 0.72110000  12.010000   ; qtot 1.389999
 2012          o     80    bbb     O1   2012 -0.61950000  16.000000   ; qtot 0.770499
 2013          o     80    bbb     O2   2013 -0.61950000  16.000000   ; qtot 0.150999
 2014          n     80    bbb     N4   2014 -0.46580000  14.010000   ; qtot -0.314801
 2015         hn     80    bbb    H21   2015 0.31480000   1.008000   ; qtot -0.000001
; residue   81 bbb rtp bbb q -0.0
 2016         c3     81    bbb     C1   2016 0.44180000  12.010000   ; qtot 0.441799
 2017         h1     81    bbb     H1   2017 -0.03530000   1.008000   ; qtot 0.406499
 2018         h1     81    bbb     H2   2018 -0.03530000   1.008000   ; qtot 0.371199
 2019         c3     81    bbb     C2   2019 -0.28250000  12.010000   ; qtot 0.088699
 2020         h1     81    bbb     H3   2020 0.15710000   1.008000   ; qtot 0.245799
 2021         h1     81    bbb     H4   2021 0.15710000   1.008000   ; qtot 0.402899
 2022         n3     81    bbb     N1   2022 -0.74090000  14.010000   ; qtot -0.338001
 2023         c3     81    bbb     C3   2023 0.51680000  12.010000   ; qtot 0.178799
 2024         h1     81    bbb     H5   2024 -0.05230000   1.008000   ; qtot 0.126499
 2025         h1     81    bbb     H6   2025 -0.05230000   1.008000   ; qtot 0.074199
 2026         c3     81    bbb     C4   2026 0.51680000  12.010000   ; qtot 0.590999
 2027         h1     81    bbb     H7   2027 -0.05230000   1.008000   ; qtot 0.538699
 2028         h1     81    bbb     H8   2028 -0.05230000   1.008000   ; qtot 0.486399
 2029         c3     81    bbb     C5   2029 -0.60390000  12.010000   ; qtot -0.117501
 2030         hc     81    bbb     H9   2030 0.16730000   1.008000   ; qtot 0.049799
 2031         hc     81    bbb    H10   2031 0.16730000   1.008000   ; qtot 0.217099
 2032         c3     81    bbb     C6   2032 -0.60390000  12.010000   ; qtot -0.386801
 2033         hc     81    bbb    H11   2033 0.16730000   1.008000   ; qtot -0.219501
 2034         hc     81    bbb    H12   2034 0.16730000   1.008000   ; qtot -0.052201
 2035          c     81    bbb     C7   2035 0.72110000  12.010000   ; qtot 0.668899
 2036          c     81    bbb     C8   2036 0.72110000  12.010000   ; qtot 1.389999
 2037          o     81    bbb     O1   2037 -0.61950000  16.000000   ; qtot 0.770499
 2038          o     81    bbb     O2   2038 -0.61950000  16.000000   ; qtot 0.150999
 2039          n     81    bbb     N4   2039 -0.46580000  14.010000   ; qtot -0.314801
 2040         hn     81    bbb    H21   2040 0.31480000   1.008000   ; qtot -0.000001
; residue   82 bbb rtp bbb q -0.0
 2041         c3     82    bbb     C1   2041 0.44180000  12.010000   ; qtot 0.441799
 2042         h1     82    bbb     H1   2042 -0.03530000   1.008000   ; qtot 0.406499
 2043         h1     82    bbb     H2   2043 -0.03530000   1.008000   ; qtot 0.371199
 2044         c3     82    bbb     C2   2044 -0.28250000  12.010000   ; qtot 0.088699
 2045         h1     82    bbb     H3   2045 0.15710000   1.008000   ; qtot 0.245799
 2046         h1     82    bbb     H4   2046 0.15710000   1.008000   ; qtot 0.402899
 2047         n3     82    bbb     N1   2047 -0.74090000  14.010000   ; qtot -0.338001
 2048         c3     82    bbb     C3   2048 0.51680000  12.010000   ; qtot 0.178799
 2049         h1     82    bbb     H5   2049 -0.05230000   1.008000   ; qtot 0.126499
 2050         h1     82    bbb     H6   2050 -0.05230000   1.008000   ; qtot 0.074199
 2051         c3     82    bbb     C4   2051 0.51680000  12.010000   ; qtot 0.590999
 2052         h1     82    bbb     H7   2052 -0.05230000   1.008000   ; qtot 0.538699
 2053         h1     82    bbb     H8   2053 -0.05230000   1.008000   ; qtot 0.486399
 2054         c3     82    bbb     C5   2054 -0.60390000  12.010000   ; qtot -0.117501
 2055         hc     82    bbb     H9   2055 0.16730000   1.008000   ; qtot 0.049799
 2056         hc     82    bbb    H10   2056 0.16730000   1.008000   ; qtot 0.217099
 2057         c3     82    bbb     C6   2057 -0.60390000  12.010000   ; qtot -0.386801
 2058         hc     82    bbb    H11   2058 0.16730000   1.008000   ; qtot -0.219501
 2059         hc     82    bbb    H12   2059 0.16730000   1.008000   ; qtot -0.052201
 2060          c     82    bbb     C7   2060 0.72110000  12.010000   ; qtot 0.668899
 2061          c     82    bbb     C8   2061 0.72110000  12.010000   ; qtot 1.389999
 2062          o     82    bbb     O1   2062 -0.61950000  16.000000   ; qtot 0.770499
 2063          o     82    bbb     O2   2063 -0.61950000  16.000000   ; qtot 0.150999
 2064          n     82    bbb     N4   2064 -0.46580000  14.010000   ; qtot -0.314801
 2065         hn     82    bbb    H21   2065 0.31480000   1.008000   ; qtot -0.000001
; residue   83 bbb rtp bbb q -0.0
 2066         c3     83    bbb     C1   2066 0.44180000  12.010000   ; qtot 0.441799
 2067         h1     83    bbb     H1   2067 -0.03530000   1.008000   ; qtot 0.406499
 2068         h1     83    bbb     H2   2068 -0.03530000   1.008000   ; qtot 0.371199
 2069         c3     83    bbb     C2   2069 -0.28250000  12.010000   ; qtot 0.088699
 2070         h1     83    bbb     H3   2070 0.15710000   1.008000   ; qtot 0.245799
 2071         h1     83    bbb     H4   2071 0.15710000   1.008000   ; qtot 0.402899
 2072         n3     83    bbb     N1   2072 -0.74090000  14.010000   ; qtot -0.338001
 2073         c3     83    bbb     C3   2073 0.51680000  12.010000   ; qtot 0.178799
 2074         h1     83    bbb     H5   2074 -0.05230000   1.008000   ; qtot 0.126499
 2075         h1     83    bbb     H6   2075 -0.05230000   1.008000   ; qtot 0.074199
 2076         c3     83    bbb     C4   2076 0.51680000  12.010000   ; qtot 0.590999
 2077         h1     83    bbb     H7   2077 -0.05230000   1.008000   ; qtot 0.538699
 2078         h1     83    bbb     H8   2078 -0.05230000   1.008000   ; qtot 0.486399
 2079         c3     83    bbb     C5   2079 -0.60390000  12.010000   ; qtot -0.117501
 2080         hc     83    bbb     H9   2080 0.16730000   1.008000   ; qtot 0.049799
 2081         hc     83    bbb    H10   2081 0.16730000   1.008000   ; qtot 0.217099
 2082         c3     83    bbb     C6   2082 -0.60390000  12.010000   ; qtot -0.386801
 2083         hc     83    bbb    H11   2083 0.16730000   1.008000   ; qtot -0.219501
 2084         hc     83    bbb    H12   2084 0.16730000   1.008000   ; qtot -0.052201
 2085          c     83    bbb     C7   2085 0.72110000  12.010000   ; qtot 0.668899
 2086          c     83    bbb     C8   2086 0.72110000  12.010000   ; qtot 1.389999
 2087          o     83    bbb     O1   2087 -0.61950000  16.000000   ; qtot 0.770499
 2088          o     83    bbb     O2   2088 -0.61950000  16.000000   ; qtot 0.150999
 2089          n     83    bbb     N4   2089 -0.46580000  14.010000   ; qtot -0.314801
 2090         hn     83    bbb    H21   2090 0.31480000   1.008000   ; qtot -0.000001
; residue   84 bbb rtp bbb q -0.0
 2091         c3     84    bbb     C1   2091 0.44180000  12.010000   ; qtot 0.441799
 2092         h1     84    bbb     H1   2092 -0.03530000   1.008000   ; qtot 0.406499
 2093         h1     84    bbb     H2   2093 -0.03530000   1.008000   ; qtot 0.371199
 2094         c3     84    bbb     C2   2094 -0.28250000  12.010000   ; qtot 0.088699
 2095         h1     84    bbb     H3   2095 0.15710000   1.008000   ; qtot 0.245799
 2096         h1     84    bbb     H4   2096 0.15710000   1.008000   ; qtot 0.402899
 2097         n3     84    bbb     N1   2097 -0.74090000  14.010000   ; qtot -0.338001
 2098         c3     84    bbb     C3   2098 0.51680000  12.010000   ; qtot 0.178799
 2099         h1     84    bbb     H5   2099 -0.05230000   1.008000   ; qtot 0.126499
 2100         h1     84    bbb     H6   2100 -0.05230000   1.008000   ; qtot 0.074199
 2101         c3     84    bbb     C4   2101 0.51680000  12.010000   ; qtot 0.590999
 2102         h1     84    bbb     H7   2102 -0.05230000   1.008000   ; qtot 0.538699
 2103         h1     84    bbb     H8   2103 -0.05230000   1.008000   ; qtot 0.486399
 2104         c3     84    bbb     C5   2104 -0.60390000  12.010000   ; qtot -0.117501
 2105         hc     84    bbb     H9   2105 0.16730000   1.008000   ; qtot 0.049799
 2106         hc     84    bbb    H10   2106 0.16730000   1.008000   ; qtot 0.217099
 2107         c3     84    bbb     C6   2107 -0.60390000  12.010000   ; qtot -0.386801
 2108         hc     84    bbb    H11   2108 0.16730000   1.008000   ; qtot -0.219501
 2109         hc     84    bbb    H12   2109 0.16730000   1.008000   ; qtot -0.052201
 2110          c     84    bbb     C7   2110 0.72110000  12.010000   ; qtot 0.668899
 2111          c     84    bbb     C8   2111 0.72110000  12.010000   ; qtot 1.389999
 2112          o     84    bbb     O1   2112 -0.61950000  16.000000   ; qtot 0.770499
 2113          o     84    bbb     O2   2113 -0.61950000  16.000000   ; qtot 0.150999
 2114          n     84    bbb     N4   2114 -0.46580000  14.010000   ; qtot -0.314801
 2115         hn     84    bbb    H21   2115 0.31480000   1.008000   ; qtot -0.000001
; residue   85 bbb rtp bbb q -0.0
 2116         c3     85    bbb     C1   2116 0.44180000  12.010000   ; qtot 0.441799
 2117         h1     85    bbb     H1   2117 -0.03530000   1.008000   ; qtot 0.406499
 2118         h1     85    bbb     H2   2118 -0.03530000   1.008000   ; qtot 0.371199
 2119         c3     85    bbb     C2   2119 -0.28250000  12.010000   ; qtot 0.088699
 2120         h1     85    bbb     H3   2120 0.15710000   1.008000   ; qtot 0.245799
 2121         h1     85    bbb     H4   2121 0.15710000   1.008000   ; qtot 0.402899
 2122         n3     85    bbb     N1   2122 -0.74090000  14.010000   ; qtot -0.338001
 2123         c3     85    bbb     C3   2123 0.51680000  12.010000   ; qtot 0.178799
 2124         h1     85    bbb     H5   2124 -0.05230000   1.008000   ; qtot 0.126499
 2125         h1     85    bbb     H6   2125 -0.05230000   1.008000   ; qtot 0.074199
 2126         c3     85    bbb     C4   2126 0.51680000  12.010000   ; qtot 0.590999
 2127         h1     85    bbb     H7   2127 -0.05230000   1.008000   ; qtot 0.538699
 2128         h1     85    bbb     H8   2128 -0.05230000   1.008000   ; qtot 0.486399
 2129         c3     85    bbb     C5   2129 -0.60390000  12.010000   ; qtot -0.117501
 2130         hc     85    bbb     H9   2130 0.16730000   1.008000   ; qtot 0.049799
 2131         hc     85    bbb    H10   2131 0.16730000   1.008000   ; qtot 0.217099
 2132         c3     85    bbb     C6   2132 -0.60390000  12.010000   ; qtot -0.386801
 2133         hc     85    bbb    H11   2133 0.16730000   1.008000   ; qtot -0.219501
 2134         hc     85    bbb    H12   2134 0.16730000   1.008000   ; qtot -0.052201
 2135          c     85    bbb     C7   2135 0.72110000  12.010000   ; qtot 0.668899
 2136          c     85    bbb     C8   2136 0.72110000  12.010000   ; qtot 1.389999
 2137          o     85    bbb     O1   2137 -0.61950000  16.000000   ; qtot 0.770499
 2138          o     85    bbb     O2   2138 -0.61950000  16.000000   ; qtot 0.150999
 2139          n     85    bbb     N4   2139 -0.46580000  14.010000   ; qtot -0.314801
 2140         hn     85    bbb    H21   2140 0.31480000   1.008000   ; qtot -0.000001
; residue   86 bbb rtp bbb q -0.0
 2141         c3     86    bbb     C1   2141 0.44180000  12.010000   ; qtot 0.441799
 2142         h1     86    bbb     H1   2142 -0.03530000   1.008000   ; qtot 0.406499
 2143         h1     86    bbb     H2   2143 -0.03530000   1.008000   ; qtot 0.371199
 2144         c3     86    bbb     C2   2144 -0.28250000  12.010000   ; qtot 0.088699
 2145         h1     86    bbb     H3   2145 0.15710000   1.008000   ; qtot 0.245799
 2146         h1     86    bbb     H4   2146 0.15710000   1.008000   ; qtot 0.402899
 2147         n3     86    bbb     N1   2147 -0.74090000  14.010000   ; qtot -0.338001
 2148         c3     86    bbb     C3   2148 0.51680000  12.010000   ; qtot 0.178799
 2149         h1     86    bbb     H5   2149 -0.05230000   1.008000   ; qtot 0.126499
 2150         h1     86    bbb     H6   2150 -0.05230000   1.008000   ; qtot 0.074199
 2151         c3     86    bbb     C4   2151 0.51680000  12.010000   ; qtot 0.590999
 2152         h1     86    bbb     H7   2152 -0.05230000   1.008000   ; qtot 0.538699
 2153         h1     86    bbb     H8   2153 -0.05230000   1.008000   ; qtot 0.486399
 2154         c3     86    bbb     C5   2154 -0.60390000  12.010000   ; qtot -0.117501
 2155         hc     86    bbb     H9   2155 0.16730000   1.008000   ; qtot 0.049799
 2156         hc     86    bbb    H10   2156 0.16730000   1.008000   ; qtot 0.217099
 2157         c3     86    bbb     C6   2157 -0.60390000  12.010000   ; qtot -0.386801
 2158         hc     86    bbb    H11   2158 0.16730000   1.008000   ; qtot -0.219501
 2159         hc     86    bbb    H12   2159 0.16730000   1.008000   ; qtot -0.052201
 2160          c     86    bbb     C7   2160 0.72110000  12.010000   ; qtot 0.668899
 2161          c     86    bbb     C8   2161 0.72110000  12.010000   ; qtot 1.389999
 2162          o     86    bbb     O1   2162 -0.61950000  16.000000   ; qtot 0.770499
 2163          o     86    bbb     O2   2163 -0.61950000  16.000000   ; qtot 0.150999
 2164          n     86    bbb     N4   2164 -0.46580000  14.010000   ; qtot -0.314801
 2165         hn     86    bbb    H21   2165 0.31480000   1.008000   ; qtot -0.000001
; residue   87 bbb rtp bbb q -0.0
 2166         c3     87    bbb     C1   2166 0.44180000  12.010000   ; qtot 0.441799
 2167         h1     87    bbb     H1   2167 -0.03530000   1.008000   ; qtot 0.406499
 2168         h1     87    bbb     H2   2168 -0.03530000   1.008000   ; qtot 0.371199
 2169         c3     87    bbb     C2   2169 -0.28250000  12.010000   ; qtot 0.088699
 2170         h1     87    bbb     H3   2170 0.15710000   1.008000   ; qtot 0.245799
 2171         h1     87    bbb     H4   2171 0.15710000   1.008000   ; qtot 0.402899
 2172         n3     87    bbb     N1   2172 -0.74090000  14.010000   ; qtot -0.338001
 2173         c3     87    bbb     C3   2173 0.51680000  12.010000   ; qtot 0.178799
 2174         h1     87    bbb     H5   2174 -0.05230000   1.008000   ; qtot 0.126499
 2175         h1     87    bbb     H6   2175 -0.05230000   1.008000   ; qtot 0.074199
 2176         c3     87    bbb     C4   2176 0.51680000  12.010000   ; qtot 0.590999
 2177         h1     87    bbb     H7   2177 -0.05230000   1.008000   ; qtot 0.538699
 2178         h1     87    bbb     H8   2178 -0.05230000   1.008000   ; qtot 0.486399
 2179         c3     87    bbb     C5   2179 -0.60390000  12.010000   ; qtot -0.117501
 2180         hc     87    bbb     H9   2180 0.16730000   1.008000   ; qtot 0.049799
 2181         hc     87    bbb    H10   2181 0.16730000   1.008000   ; qtot 0.217099
 2182         c3     87    bbb     C6   2182 -0.60390000  12.010000   ; qtot -0.386801
 2183         hc     87    bbb    H11   2183 0.16730000   1.008000   ; qtot -0.219501
 2184         hc     87    bbb    H12   2184 0.16730000   1.008000   ; qtot -0.052201
 2185          c     87    bbb     C7   2185 0.72110000  12.010000   ; qtot 0.668899
 2186          c     87    bbb     C8   2186 0.72110000  12.010000   ; qtot 1.389999
 2187          o     87    bbb     O1   2187 -0.61950000  16.000000   ; qtot 0.770499
 2188          o     87    bbb     O2   2188 -0.61950000  16.000000   ; qtot 0.150999
 2189          n     87    bbb     N4   2189 -0.46580000  14.010000   ; qtot -0.314801
 2190         hn     87    bbb    H21   2190 0.31480000   1.008000   ; qtot -0.000001
; residue   88 bbb rtp bbb q -0.0
 2191         c3     88    bbb     C1   2191 0.44180000  12.010000   ; qtot 0.441799
 2192         h1     88    bbb     H1   2192 -0.03530000   1.008000   ; qtot 0.406499
 2193         h1     88    bbb     H2   2193 -0.03530000   1.008000   ; qtot 0.371199
 2194         c3     88    bbb     C2   2194 -0.28250000  12.010000   ; qtot 0.088699
 2195         h1     88    bbb     H3   2195 0.15710000   1.008000   ; qtot 0.245799
 2196         h1     88    bbb     H4   2196 0.15710000   1.008000   ; qtot 0.402899
 2197         n3     88    bbb     N1   2197 -0.74090000  14.010000   ; qtot -0.338001
 2198         c3     88    bbb     C3   2198 0.51680000  12.010000   ; qtot 0.178799
 2199         h1     88    bbb     H5   2199 -0.05230000   1.008000   ; qtot 0.126499
 2200         h1     88    bbb     H6   2200 -0.05230000   1.008000   ; qtot 0.074199
 2201         c3     88    bbb     C4   2201 0.51680000  12.010000   ; qtot 0.590999
 2202         h1     88    bbb     H7   2202 -0.05230000   1.008000   ; qtot 0.538699
 2203         h1     88    bbb     H8   2203 -0.05230000   1.008000   ; qtot 0.486399
 2204         c3     88    bbb     C5   2204 -0.60390000  12.010000   ; qtot -0.117501
 2205         hc     88    bbb     H9   2205 0.16730000   1.008000   ; qtot 0.049799
 2206         hc     88    bbb    H10   2206 0.16730000   1.008000   ; qtot 0.217099
 2207         c3     88    bbb     C6   2207 -0.60390000  12.010000   ; qtot -0.386801
 2208         hc     88    bbb    H11   2208 0.16730000   1.008000   ; qtot -0.219501
 2209         hc     88    bbb    H12   2209 0.16730000   1.008000   ; qtot -0.052201
 2210          c     88    bbb     C7   2210 0.72110000  12.010000   ; qtot 0.668899
 2211          c     88    bbb     C8   2211 0.72110000  12.010000   ; qtot 1.389999
 2212          o     88    bbb     O1   2212 -0.61950000  16.000000   ; qtot 0.770499
 2213          o     88    bbb     O2   2213 -0.61950000  16.000000   ; qtot 0.150999
 2214          n     88    bbb     N4   2214 -0.46580000  14.010000   ; qtot -0.314801
 2215         hn     88    bbb    H21   2215 0.31480000   1.008000   ; qtot -0.000001
; residue   89 bbb rtp bbb q -0.0
 2216         c3     89    bbb     C1   2216 0.44180000  12.010000   ; qtot 0.441799
 2217         h1     89    bbb     H1   2217 -0.03530000   1.008000   ; qtot 0.406499
 2218         h1     89    bbb     H2   2218 -0.03530000   1.008000   ; qtot 0.371199
 2219         c3     89    bbb     C2   2219 -0.28250000  12.010000   ; qtot 0.088699
 2220         h1     89    bbb     H3   2220 0.15710000   1.008000   ; qtot 0.245799
 2221         h1     89    bbb     H4   2221 0.15710000   1.008000   ; qtot 0.402899
 2222         n3     89    bbb     N1   2222 -0.74090000  14.010000   ; qtot -0.338001
 2223         c3     89    bbb     C3   2223 0.51680000  12.010000   ; qtot 0.178799
 2224         h1     89    bbb     H5   2224 -0.05230000   1.008000   ; qtot 0.126499
 2225         h1     89    bbb     H6   2225 -0.05230000   1.008000   ; qtot 0.074199
 2226         c3     89    bbb     C4   2226 0.51680000  12.010000   ; qtot 0.590999
 2227         h1     89    bbb     H7   2227 -0.05230000   1.008000   ; qtot 0.538699
 2228         h1     89    bbb     H8   2228 -0.05230000   1.008000   ; qtot 0.486399
 2229         c3     89    bbb     C5   2229 -0.60390000  12.010000   ; qtot -0.117501
 2230         hc     89    bbb     H9   2230 0.16730000   1.008000   ; qtot 0.049799
 2231         hc     89    bbb    H10   2231 0.16730000   1.008000   ; qtot 0.217099
 2232         c3     89    bbb     C6   2232 -0.60390000  12.010000   ; qtot -0.386801
 2233         hc     89    bbb    H11   2233 0.16730000   1.008000   ; qtot -0.219501
 2234         hc     89    bbb    H12   2234 0.16730000   1.008000   ; qtot -0.052201
 2235          c     89    bbb     C7   2235 0.72110000  12.010000   ; qtot 0.668899
 2236          c     89    bbb     C8   2236 0.72110000  12.010000   ; qtot 1.389999
 2237          o     89    bbb     O1   2237 -0.61950000  16.000000   ; qtot 0.770499
 2238          o     89    bbb     O2   2238 -0.61950000  16.000000   ; qtot 0.150999
 2239          n     89    bbb     N4   2239 -0.46580000  14.010000   ; qtot -0.314801
 2240         hn     89    bbb    H21   2240 0.31480000   1.008000   ; qtot -0.000001
; residue   90 bbb rtp bbb q -0.0
 2241         c3     90    bbb     C1   2241 0.44180000  12.010000   ; qtot 0.441799
 2242         h1     90    bbb     H1   2242 -0.03530000   1.008000   ; qtot 0.406499
 2243         h1     90    bbb     H2   2243 -0.03530000   1.008000   ; qtot 0.371199
 2244         c3     90    bbb     C2   2244 -0.28250000  12.010000   ; qtot 0.088699
 2245         h1     90    bbb     H3   2245 0.15710000   1.008000   ; qtot 0.245799
 2246         h1     90    bbb     H4   2246 0.15710000   1.008000   ; qtot 0.402899
 2247         n3     90    bbb     N1   2247 -0.74090000  14.010000   ; qtot -0.338001
 2248         c3     90    bbb     C3   2248 0.51680000  12.010000   ; qtot 0.178799
 2249         h1     90    bbb     H5   2249 -0.05230000   1.008000   ; qtot 0.126499
 2250         h1     90    bbb     H6   2250 -0.05230000   1.008000   ; qtot 0.074199
 2251         c3     90    bbb     C4   2251 0.51680000  12.010000   ; qtot 0.590999
 2252         h1     90    bbb     H7   2252 -0.05230000   1.008000   ; qtot 0.538699
 2253         h1     90    bbb     H8   2253 -0.05230000   1.008000   ; qtot 0.486399
 2254         c3     90    bbb     C5   2254 -0.60390000  12.010000   ; qtot -0.117501
 2255         hc     90    bbb     H9   2255 0.16730000   1.008000   ; qtot 0.049799
 2256         hc     90    bbb    H10   2256 0.16730000   1.008000   ; qtot 0.217099
 2257         c3     90    bbb     C6   2257 -0.60390000  12.010000   ; qtot -0.386801
 2258         hc     90    bbb    H11   2258 0.16730000   1.008000   ; qtot -0.219501
 2259         hc     90    bbb    H12   2259 0.16730000   1.008000   ; qtot -0.052201
 2260          c     90    bbb     C7   2260 0.72110000  12.010000   ; qtot 0.668899
 2261          c     90    bbb     C8   2261 0.72110000  12.010000   ; qtot 1.389999
 2262          o     90    bbb     O1   2262 -0.61950000  16.000000   ; qtot 0.770499
 2263          o     90    bbb     O2   2263 -0.61950000  16.000000   ; qtot 0.150999
 2264          n     90    bbb     N4   2264 -0.46580000  14.010000   ; qtot -0.314801
 2265         hn     90    bbb    H21   2265 0.31480000   1.008000   ; qtot -0.000001
; residue   91 bbb rtp bbb q -0.0
 2266         c3     91    bbb     C1   2266 0.44180000  12.010000   ; qtot 0.441799
 2267         h1     91    bbb     H1   2267 -0.03530000   1.008000   ; qtot 0.406499
 2268         h1     91    bbb     H2   2268 -0.03530000   1.008000   ; qtot 0.371199
 2269         c3     91    bbb     C2   2269 -0.28250000  12.010000   ; qtot 0.088699
 2270         h1     91    bbb     H3   2270 0.15710000   1.008000   ; qtot 0.245799
 2271         h1     91    bbb     H4   2271 0.15710000   1.008000   ; qtot 0.402899
 2272         n3     91    bbb     N1   2272 -0.74090000  14.010000   ; qtot -0.338001
 2273         c3     91    bbb     C3   2273 0.51680000  12.010000   ; qtot 0.178799
 2274         h1     91    bbb     H5   2274 -0.05230000   1.008000   ; qtot 0.126499
 2275         h1     91    bbb     H6   2275 -0.05230000   1.008000   ; qtot 0.074199
 2276         c3     91    bbb     C4   2276 0.51680000  12.010000   ; qtot 0.590999
 2277         h1     91    bbb     H7   2277 -0.05230000   1.008000   ; qtot 0.538699
 2278         h1     91    bbb     H8   2278 -0.05230000   1.008000   ; qtot 0.486399
 2279         c3     91    bbb     C5   2279 -0.60390000  12.010000   ; qtot -0.117501
 2280         hc     91    bbb     H9   2280 0.16730000   1.008000   ; qtot 0.049799
 2281         hc     91    bbb    H10   2281 0.16730000   1.008000   ; qtot 0.217099
 2282         c3     91    bbb     C6   2282 -0.60390000  12.010000   ; qtot -0.386801
 2283         hc     91    bbb    H11   2283 0.16730000   1.008000   ; qtot -0.219501
 2284         hc     91    bbb    H12   2284 0.16730000   1.008000   ; qtot -0.052201
 2285          c     91    bbb     C7   2285 0.72110000  12.010000   ; qtot 0.668899
 2286          c     91    bbb     C8   2286 0.72110000  12.010000   ; qtot 1.389999
 2287          o     91    bbb     O1   2287 -0.61950000  16.000000   ; qtot 0.770499
 2288          o     91    bbb     O2   2288 -0.61950000  16.000000   ; qtot 0.150999
 2289          n     91    bbb     N4   2289 -0.46580000  14.010000   ; qtot -0.314801
 2290         hn     91    bbb    H21   2290 0.31480000   1.008000   ; qtot -0.000001
; residue   92 bbb rtp bbb q -0.0
 2291         c3     92    bbb     C1   2291 0.44180000  12.010000   ; qtot 0.441799
 2292         h1     92    bbb     H1   2292 -0.03530000   1.008000   ; qtot 0.406499
 2293         h1     92    bbb     H2   2293 -0.03530000   1.008000   ; qtot 0.371199
 2294         c3     92    bbb     C2   2294 -0.28250000  12.010000   ; qtot 0.088699
 2295         h1     92    bbb     H3   2295 0.15710000   1.008000   ; qtot 0.245799
 2296         h1     92    bbb     H4   2296 0.15710000   1.008000   ; qtot 0.402899
 2297         n3     92    bbb     N1   2297 -0.74090000  14.010000   ; qtot -0.338001
 2298         c3     92    bbb     C3   2298 0.51680000  12.010000   ; qtot 0.178799
 2299         h1     92    bbb     H5   2299 -0.05230000   1.008000   ; qtot 0.126499
 2300         h1     92    bbb     H6   2300 -0.05230000   1.008000   ; qtot 0.074199
 2301         c3     92    bbb     C4   2301 0.51680000  12.010000   ; qtot 0.590999
 2302         h1     92    bbb     H7   2302 -0.05230000   1.008000   ; qtot 0.538699
 2303         h1     92    bbb     H8   2303 -0.05230000   1.008000   ; qtot 0.486399
 2304         c3     92    bbb     C5   2304 -0.60390000  12.010000   ; qtot -0.117501
 2305         hc     92    bbb     H9   2305 0.16730000   1.008000   ; qtot 0.049799
 2306         hc     92    bbb    H10   2306 0.16730000   1.008000   ; qtot 0.217099
 2307         c3     92    bbb     C6   2307 -0.60390000  12.010000   ; qtot -0.386801
 2308         hc     92    bbb    H11   2308 0.16730000   1.008000   ; qtot -0.219501
 2309         hc     92    bbb    H12   2309 0.16730000   1.008000   ; qtot -0.052201
 2310          c     92    bbb     C7   2310 0.72110000  12.010000   ; qtot 0.668899
 2311          c     92    bbb     C8   2311 0.72110000  12.010000   ; qtot 1.389999
 2312          o     92    bbb     O1   2312 -0.61950000  16.000000   ; qtot 0.770499
 2313          o     92    bbb     O2   2313 -0.61950000  16.000000   ; qtot 0.150999
 2314          n     92    bbb     N4   2314 -0.46580000  14.010000   ; qtot -0.314801
 2315         hn     92    bbb    H21   2315 0.31480000   1.008000   ; qtot -0.000001
; residue   93 bbb rtp bbb q -0.0
 2316         c3     93    bbb     C1   2316 0.44180000  12.010000   ; qtot 0.441799
 2317         h1     93    bbb     H1   2317 -0.03530000   1.008000   ; qtot 0.406499
 2318         h1     93    bbb     H2   2318 -0.03530000   1.008000   ; qtot 0.371199
 2319         c3     93    bbb     C2   2319 -0.28250000  12.010000   ; qtot 0.088699
 2320         h1     93    bbb     H3   2320 0.15710000   1.008000   ; qtot 0.245799
 2321         h1     93    bbb     H4   2321 0.15710000   1.008000   ; qtot 0.402899
 2322         n3     93    bbb     N1   2322 -0.74090000  14.010000   ; qtot -0.338001
 2323         c3     93    bbb     C3   2323 0.51680000  12.010000   ; qtot 0.178799
 2324         h1     93    bbb     H5   2324 -0.05230000   1.008000   ; qtot 0.126499
 2325         h1     93    bbb     H6   2325 -0.05230000   1.008000   ; qtot 0.074199
 2326         c3     93    bbb     C4   2326 0.51680000  12.010000   ; qtot 0.590999
 2327         h1     93    bbb     H7   2327 -0.05230000   1.008000   ; qtot 0.538699
 2328         h1     93    bbb     H8   2328 -0.05230000   1.008000   ; qtot 0.486399
 2329         c3     93    bbb     C5   2329 -0.60390000  12.010000   ; qtot -0.117501
 2330         hc     93    bbb     H9   2330 0.16730000   1.008000   ; qtot 0.049799
 2331         hc     93    bbb    H10   2331 0.16730000   1.008000   ; qtot 0.217099
 2332         c3     93    bbb     C6   2332 -0.60390000  12.010000   ; qtot -0.386801
 2333         hc     93    bbb    H11   2333 0.16730000   1.008000   ; qtot -0.219501
 2334         hc     93    bbb    H12   2334 0.16730000   1.008000   ; qtot -0.052201
 2335          c     93    bbb     C7   2335 0.72110000  12.010000   ; qtot 0.668899
 2336          c     93    bbb     C8   2336 0.72110000  12.010000   ; qtot 1.389999
 2337          o     93    bbb     O1   2337 -0.61950000  16.000000   ; qtot 0.770499
 2338          o     93    bbb     O2   2338 -0.61950000  16.000000   ; qtot 0.150999
 2339          n     93    bbb     N4   2339 -0.46580000  14.010000   ; qtot -0.314801
 2340         hn     93    bbb    H21   2340 0.31480000   1.008000   ; qtot -0.000001
; residue   94 bbb rtp bbb q -0.0
 2341         c3     94    bbb     C1   2341 0.44180000  12.010000   ; qtot 0.441799
 2342         h1     94    bbb     H1   2342 -0.03530000   1.008000   ; qtot 0.406499
 2343         h1     94    bbb     H2   2343 -0.03530000   1.008000   ; qtot 0.371199
 2344         c3     94    bbb     C2   2344 -0.28250000  12.010000   ; qtot 0.088699
 2345         h1     94    bbb     H3   2345 0.15710000   1.008000   ; qtot 0.245799
 2346         h1     94    bbb     H4   2346 0.15710000   1.008000   ; qtot 0.402899
 2347         n3     94    bbb     N1   2347 -0.74090000  14.010000   ; qtot -0.338001
 2348         c3     94    bbb     C3   2348 0.51680000  12.010000   ; qtot 0.178799
 2349         h1     94    bbb     H5   2349 -0.05230000   1.008000   ; qtot 0.126499
 2350         h1     94    bbb     H6   2350 -0.05230000   1.008000   ; qtot 0.074199
 2351         c3     94    bbb     C4   2351 0.51680000  12.010000   ; qtot 0.590999
 2352         h1     94    bbb     H7   2352 -0.05230000   1.008000   ; qtot 0.538699
 2353         h1     94    bbb     H8   2353 -0.05230000   1.008000   ; qtot 0.486399
 2354         c3     94    bbb     C5   2354 -0.60390000  12.010000   ; qtot -0.117501
 2355         hc     94    bbb     H9   2355 0.16730000   1.008000   ; qtot 0.049799
 2356         hc     94    bbb    H10   2356 0.16730000   1.008000   ; qtot 0.217099
 2357         c3     94    bbb     C6   2357 -0.60390000  12.010000   ; qtot -0.386801
 2358         hc     94    bbb    H11   2358 0.16730000   1.008000   ; qtot -0.219501
 2359         hc     94    bbb    H12   2359 0.16730000   1.008000   ; qtot -0.052201
 2360          c     94    bbb     C7   2360 0.72110000  12.010000   ; qtot 0.668899
 2361          c     94    bbb     C8   2361 0.72110000  12.010000   ; qtot 1.389999
 2362          o     94    bbb     O1   2362 -0.61950000  16.000000   ; qtot 0.770499
 2363          o     94    bbb     O2   2363 -0.61950000  16.000000   ; qtot 0.150999
 2364          n     94    bbb     N4   2364 -0.46580000  14.010000   ; qtot -0.314801
 2365         hn     94    bbb    H21   2365 0.31480000   1.008000   ; qtot -0.000001
; residue   95 bbb rtp bbb q -0.0
 2366         c3     95    bbb     C1   2366 0.44180000  12.010000   ; qtot 0.441799
 2367         h1     95    bbb     H1   2367 -0.03530000   1.008000   ; qtot 0.406499
 2368         h1     95    bbb     H2   2368 -0.03530000   1.008000   ; qtot 0.371199
 2369         c3     95    bbb     C2   2369 -0.28250000  12.010000   ; qtot 0.088699
 2370         h1     95    bbb     H3   2370 0.15710000   1.008000   ; qtot 0.245799
 2371         h1     95    bbb     H4   2371 0.15710000   1.008000   ; qtot 0.402899
 2372         n3     95    bbb     N1   2372 -0.74090000  14.010000   ; qtot -0.338001
 2373         c3     95    bbb     C3   2373 0.51680000  12.010000   ; qtot 0.178799
 2374         h1     95    bbb     H5   2374 -0.05230000   1.008000   ; qtot 0.126499
 2375         h1     95    bbb     H6   2375 -0.05230000   1.008000   ; qtot 0.074199
 2376         c3     95    bbb     C4   2376 0.51680000  12.010000   ; qtot 0.590999
 2377         h1     95    bbb     H7   2377 -0.05230000   1.008000   ; qtot 0.538699
 2378         h1     95    bbb     H8   2378 -0.05230000   1.008000   ; qtot 0.486399
 2379         c3     95    bbb     C5   2379 -0.60390000  12.010000   ; qtot -0.117501
 2380         hc     95    bbb     H9   2380 0.16730000   1.008000   ; qtot 0.049799
 2381         hc     95    bbb    H10   2381 0.16730000   1.008000   ; qtot 0.217099
 2382         c3     95    bbb     C6   2382 -0.60390000  12.010000   ; qtot -0.386801
 2383         hc     95    bbb    H11   2383 0.16730000   1.008000   ; qtot -0.219501
 2384         hc     95    bbb    H12   2384 0.16730000   1.008000   ; qtot -0.052201
 2385          c     95    bbb     C7   2385 0.72110000  12.010000   ; qtot 0.668899
 2386          c     95    bbb     C8   2386 0.72110000  12.010000   ; qtot 1.389999
 2387          o     95    bbb     O1   2387 -0.61950000  16.000000   ; qtot 0.770499
 2388          o     95    bbb     O2   2388 -0.61950000  16.000000   ; qtot 0.150999
 2389          n     95    bbb     N4   2389 -0.46580000  14.010000   ; qtot -0.314801
 2390         hn     95    bbb    H21   2390 0.31480000   1.008000   ; qtot -0.000001
; residue   96 bbb rtp bbb q -0.0
 2391         c3     96    bbb     C1   2391 0.44180000  12.010000   ; qtot 0.441799
 2392         h1     96    bbb     H1   2392 -0.03530000   1.008000   ; qtot 0.406499
 2393         h1     96    bbb     H2   2393 -0.03530000   1.008000   ; qtot 0.371199
 2394         c3     96    bbb     C2   2394 -0.28250000  12.010000   ; qtot 0.088699
 2395         h1     96    bbb     H3   2395 0.15710000   1.008000   ; qtot 0.245799
 2396         h1     96    bbb     H4   2396 0.15710000   1.008000   ; qtot 0.402899
 2397         n3     96    bbb     N1   2397 -0.74090000  14.010000   ; qtot -0.338001
 2398         c3     96    bbb     C3   2398 0.51680000  12.010000   ; qtot 0.178799
 2399         h1     96    bbb     H5   2399 -0.05230000   1.008000   ; qtot 0.126499
 2400         h1     96    bbb     H6   2400 -0.05230000   1.008000   ; qtot 0.074199
 2401         c3     96    bbb     C4   2401 0.51680000  12.010000   ; qtot 0.590999
 2402         h1     96    bbb     H7   2402 -0.05230000   1.008000   ; qtot 0.538699
 2403         h1     96    bbb     H8   2403 -0.05230000   1.008000   ; qtot 0.486399
 2404         c3     96    bbb     C5   2404 -0.60390000  12.010000   ; qtot -0.117501
 2405         hc     96    bbb     H9   2405 0.16730000   1.008000   ; qtot 0.049799
 2406         hc     96    bbb    H10   2406 0.16730000   1.008000   ; qtot 0.217099
 2407         c3     96    bbb     C6   2407 -0.60390000  12.010000   ; qtot -0.386801
 2408         hc     96    bbb    H11   2408 0.16730000   1.008000   ; qtot -0.219501
 2409         hc     96    bbb    H12   2409 0.16730000   1.008000   ; qtot -0.052201
 2410          c     96    bbb     C7   2410 0.72110000  12.010000   ; qtot 0.668899
 2411          c     96    bbb     C8   2411 0.72110000  12.010000   ; qtot 1.389999
 2412          o     96    bbb     O1   2412 -0.61950000  16.000000   ; qtot 0.770499
 2413          o     96    bbb     O2   2413 -0.61950000  16.000000   ; qtot 0.150999
 2414          n     96    bbb     N4   2414 -0.46580000  14.010000   ; qtot -0.314801
 2415         hn     96    bbb    H21   2415 0.31480000   1.008000   ; qtot -0.000001
; residue   97 bbb rtp bbb q -0.0
 2416         c3     97    bbb     C1   2416 0.44180000  12.010000   ; qtot 0.441799
 2417         h1     97    bbb     H1   2417 -0.03530000   1.008000   ; qtot 0.406499
 2418         h1     97    bbb     H2   2418 -0.03530000   1.008000   ; qtot 0.371199
 2419         c3     97    bbb     C2   2419 -0.28250000  12.010000   ; qtot 0.088699
 2420         h1     97    bbb     H3   2420 0.15710000   1.008000   ; qtot 0.245799
 2421         h1     97    bbb     H4   2421 0.15710000   1.008000   ; qtot 0.402899
 2422         n3     97    bbb     N1   2422 -0.74090000  14.010000   ; qtot -0.338001
 2423         c3     97    bbb     C3   2423 0.51680000  12.010000   ; qtot 0.178799
 2424         h1     97    bbb     H5   2424 -0.05230000   1.008000   ; qtot 0.126499
 2425         h1     97    bbb     H6   2425 -0.05230000   1.008000   ; qtot 0.074199
 2426         c3     97    bbb     C4   2426 0.51680000  12.010000   ; qtot 0.590999
 2427         h1     97    bbb     H7   2427 -0.05230000   1.008000   ; qtot 0.538699
 2428         h1     97    bbb     H8   2428 -0.05230000   1.008000   ; qtot 0.486399
 2429         c3     97    bbb     C5   2429 -0.60390000  12.010000   ; qtot -0.117501
 2430         hc     97    bbb     H9   2430 0.16730000   1.008000   ; qtot 0.049799
 2431         hc     97    bbb    H10   2431 0.16730000   1.008000   ; qtot 0.217099
 2432         c3     97    bbb     C6   2432 -0.60390000  12.010000   ; qtot -0.386801
 2433         hc     97    bbb    H11   2433 0.16730000   1.008000   ; qtot -0.219501
 2434         hc     97    bbb    H12   2434 0.16730000   1.008000   ; qtot -0.052201
 2435          c     97    bbb     C7   2435 0.72110000  12.010000   ; qtot 0.668899
 2436          c     97    bbb     C8   2436 0.72110000  12.010000   ; qtot 1.389999
 2437          o     97    bbb     O1   2437 -0.61950000  16.000000   ; qtot 0.770499
 2438          o     97    bbb     O2   2438 -0.61950000  16.000000   ; qtot 0.150999
 2439          n     97    bbb     N4   2439 -0.46580000  14.010000   ; qtot -0.314801
 2440         hn     97    bbb    H21   2440 0.31480000   1.008000   ; qtot -0.000001
; residue   98 bbb rtp bbb q -0.0
 2441         c3     98    bbb     C1   2441 0.44180000  12.010000   ; qtot 0.441799
 2442         h1     98    bbb     H1   2442 -0.03530000   1.008000   ; qtot 0.406499
 2443         h1     98    bbb     H2   2443 -0.03530000   1.008000   ; qtot 0.371199
 2444         c3     98    bbb     C2   2444 -0.28250000  12.010000   ; qtot 0.088699
 2445         h1     98    bbb     H3   2445 0.15710000   1.008000   ; qtot 0.245799
 2446         h1     98    bbb     H4   2446 0.15710000   1.008000   ; qtot 0.402899
 2447         n3     98    bbb     N1   2447 -0.74090000  14.010000   ; qtot -0.338001
 2448         c3     98    bbb     C3   2448 0.51680000  12.010000   ; qtot 0.178799
 2449         h1     98    bbb     H5   2449 -0.05230000   1.008000   ; qtot 0.126499
 2450         h1     98    bbb     H6   2450 -0.05230000   1.008000   ; qtot 0.074199
 2451         c3     98    bbb     C4   2451 0.51680000  12.010000   ; qtot 0.590999
 2452         h1     98    bbb     H7   2452 -0.05230000   1.008000   ; qtot 0.538699
 2453         h1     98    bbb     H8   2453 -0.05230000   1.008000   ; qtot 0.486399
 2454         c3     98    bbb     C5   2454 -0.60390000  12.010000   ; qtot -0.117501
 2455         hc     98    bbb     H9   2455 0.16730000   1.008000   ; qtot 0.049799
 2456         hc     98    bbb    H10   2456 0.16730000   1.008000   ; qtot 0.217099
 2457         c3     98    bbb     C6   2457 -0.60390000  12.010000   ; qtot -0.386801
 2458         hc     98    bbb    H11   2458 0.16730000   1.008000   ; qtot -0.219501
 2459         hc     98    bbb    H12   2459 0.16730000   1.008000   ; qtot -0.052201
 2460          c     98    bbb     C7   2460 0.72110000  12.010000   ; qtot 0.668899
 2461          c     98    bbb     C8   2461 0.72110000  12.010000   ; qtot 1.389999
 2462          o     98    bbb     O1   2462 -0.61950000  16.000000   ; qtot 0.770499
 2463          o     98    bbb     O2   2463 -0.61950000  16.000000   ; qtot 0.150999
 2464          n     98    bbb     N4   2464 -0.46580000  14.010000   ; qtot -0.314801
 2465         hn     98    bbb    H21   2465 0.31480000   1.008000   ; qtot -0.000001
; residue   99 bbb rtp bbb q -0.0
 2466         c3     99    bbb     C1   2466 0.44180000  12.010000   ; qtot 0.441799
 2467         h1     99    bbb     H1   2467 -0.03530000   1.008000   ; qtot 0.406499
 2468         h1     99    bbb     H2   2468 -0.03530000   1.008000   ; qtot 0.371199
 2469         c3     99    bbb     C2   2469 -0.28250000  12.010000   ; qtot 0.088699
 2470         h1     99    bbb     H3   2470 0.15710000   1.008000   ; qtot 0.245799
 2471         h1     99    bbb     H4   2471 0.15710000   1.008000   ; qtot 0.402899
 2472         n3     99    bbb     N1   2472 -0.74090000  14.010000   ; qtot -0.338001
 2473         c3     99    bbb     C3   2473 0.51680000  12.010000   ; qtot 0.178799
 2474         h1     99    bbb     H5   2474 -0.05230000   1.008000   ; qtot 0.126499
 2475         h1     99    bbb     H6   2475 -0.05230000   1.008000   ; qtot 0.074199
 2476         c3     99    bbb     C4   2476 0.51680000  12.010000   ; qtot 0.590999
 2477         h1     99    bbb     H7   2477 -0.05230000   1.008000   ; qtot 0.538699
 2478         h1     99    bbb     H8   2478 -0.05230000   1.008000   ; qtot 0.486399
 2479         c3     99    bbb     C5   2479 -0.60390000  12.010000   ; qtot -0.117501
 2480         hc     99    bbb     H9   2480 0.16730000   1.008000   ; qtot 0.049799
 2481         hc     99    bbb    H10   2481 0.16730000   1.008000   ; qtot 0.217099
 2482         c3     99    bbb     C6   2482 -0.60390000  12.010000   ; qtot -0.386801
 2483         hc     99    bbb    H11   2483 0.16730000   1.008000   ; qtot -0.219501
 2484         hc     99    bbb    H12   2484 0.16730000   1.008000   ; qtot -0.052201
 2485          c     99    bbb     C7   2485 0.72110000  12.010000   ; qtot 0.668899
 2486          c     99    bbb     C8   2486 0.72110000  12.010000   ; qtot 1.389999
 2487          o     99    bbb     O1   2487 -0.61950000  16.000000   ; qtot 0.770499
 2488          o     99    bbb     O2   2488 -0.61950000  16.000000   ; qtot 0.150999
 2489          n     99    bbb     N4   2489 -0.46580000  14.010000   ; qtot -0.314801
 2490         hn     99    bbb    H21   2490 0.31480000   1.008000   ; qtot -0.000001
; residue  100 bbb rtp bbb q -0.0
 2491         c3    100    bbb     C1   2491 0.44180000  12.010000   ; qtot 0.441799
 2492         h1    100    bbb     H1   2492 -0.03530000   1.008000   ; qtot 0.406499
 2493         h1    100    bbb     H2   2493 -0.03530000   1.008000   ; qtot 0.371199
 2494         c3    100    bbb     C2   2494 -0.28250000  12.010000   ; qtot 0.088699
 2495         h1    100    bbb     H3   2495 0.15710000   1.008000   ; qtot 0.245799
 2496         h1    100    bbb     H4   2496 0.15710000   1.008000   ; qtot 0.402899
 2497         n3    100    bbb     N1   2497 -0.74090000  14.010000   ; qtot -0.338001
 2498         c3    100    bbb     C3   2498 0.51680000  12.010000   ; qtot 0.178799
 2499         h1    100    bbb     H5   2499 -0.05230000   1.008000   ; qtot 0.126499
 2500         h1    100    bbb     H6   2500 -0.05230000   1.008000   ; qtot 0.074199
 2501         c3    100    bbb     C4   2501 0.51680000  12.010000   ; qtot 0.590999
 2502         h1    100    bbb     H7   2502 -0.05230000   1.008000   ; qtot 0.538699
 2503         h1    100    bbb     H8   2503 -0.05230000   1.008000   ; qtot 0.486399
 2504         c3    100    bbb     C5   2504 -0.60390000  12.010000   ; qtot -0.117501
 2505         hc    100    bbb     H9   2505 0.16730000   1.008000   ; qtot 0.049799
 2506         hc    100    bbb    H10   2506 0.16730000   1.008000   ; qtot 0.217099
 2507         c3    100    bbb     C6   2507 -0.60390000  12.010000   ; qtot -0.386801
 2508         hc    100    bbb    H11   2508 0.16730000   1.008000   ; qtot -0.219501
 2509         hc    100    bbb    H12   2509 0.16730000   1.008000   ; qtot -0.052201
 2510          c    100    bbb     C7   2510 0.72110000  12.010000   ; qtot 0.668899
 2511          c    100    bbb     C8   2511 0.72110000  12.010000   ; qtot 1.389999
 2512          o    100    bbb     O1   2512 -0.61950000  16.000000   ; qtot 0.770499
 2513          o    100    bbb     O2   2513 -0.61950000  16.000000   ; qtot 0.150999
 2514          n    100    bbb     N4   2514 -0.46580000  14.010000   ; qtot -0.314801
 2515         hn    100    bbb    H21   2515 0.31480000   1.008000   ; qtot -0.000001
; residue  101 bbb rtp bbb q -0.0
 2516         c3    101    bbb     C1   2516 0.44180000  12.010000   ; qtot 0.441799
 2517         h1    101    bbb     H1   2517 -0.03530000   1.008000   ; qtot 0.406499
 2518         h1    101    bbb     H2   2518 -0.03530000   1.008000   ; qtot 0.371199
 2519         c3    101    bbb     C2   2519 -0.28250000  12.010000   ; qtot 0.088699
 2520         h1    101    bbb     H3   2520 0.15710000   1.008000   ; qtot 0.245799
 2521         h1    101    bbb     H4   2521 0.15710000   1.008000   ; qtot 0.402899
 2522         n3    101    bbb     N1   2522 -0.74090000  14.010000   ; qtot -0.338001
 2523         c3    101    bbb     C3   2523 0.51680000  12.010000   ; qtot 0.178799
 2524         h1    101    bbb     H5   2524 -0.05230000   1.008000   ; qtot 0.126499
 2525         h1    101    bbb     H6   2525 -0.05230000   1.008000   ; qtot 0.074199
 2526         c3    101    bbb     C4   2526 0.51680000  12.010000   ; qtot 0.590999
 2527         h1    101    bbb     H7   2527 -0.05230000   1.008000   ; qtot 0.538699
 2528         h1    101    bbb     H8   2528 -0.05230000   1.008000   ; qtot 0.486399
 2529         c3    101    bbb     C5   2529 -0.60390000  12.010000   ; qtot -0.117501
 2530         hc    101    bbb     H9   2530 0.16730000   1.008000   ; qtot 0.049799
 2531         hc    101    bbb    H10   2531 0.16730000   1.008000   ; qtot 0.217099
 2532         c3    101    bbb     C6   2532 -0.60390000  12.010000   ; qtot -0.386801
 2533         hc    101    bbb    H11   2533 0.16730000   1.008000   ; qtot -0.219501
 2534         hc    101    bbb    H12   2534 0.16730000   1.008000   ; qtot -0.052201
 2535          c    101    bbb     C7   2535 0.72110000  12.010000   ; qtot 0.668899
 2536          c    101    bbb     C8   2536 0.72110000  12.010000   ; qtot 1.389999
 2537          o    101    bbb     O1   2537 -0.61950000  16.000000   ; qtot 0.770499
 2538          o    101    bbb     O2   2538 -0.61950000  16.000000   ; qtot 0.150999
 2539          n    101    bbb     N4   2539 -0.46580000  14.010000   ; qtot -0.314801
 2540         hn    101    bbb    H21   2540 0.31480000   1.008000   ; qtot -0.000001
; residue  102 bbb rtp bbb q -0.0
 2541         c3    102    bbb     C1   2541 0.44180000  12.010000   ; qtot 0.441799
 2542         h1    102    bbb     H1   2542 -0.03530000   1.008000   ; qtot 0.406499
 2543         h1    102    bbb     H2   2543 -0.03530000   1.008000   ; qtot 0.371199
 2544         c3    102    bbb     C2   2544 -0.28250000  12.010000   ; qtot 0.088699
 2545         h1    102    bbb     H3   2545 0.15710000   1.008000   ; qtot 0.245799
 2546         h1    102    bbb     H4   2546 0.15710000   1.008000   ; qtot 0.402899
 2547         n3    102    bbb     N1   2547 -0.74090000  14.010000   ; qtot -0.338001
 2548         c3    102    bbb     C3   2548 0.51680000  12.010000   ; qtot 0.178799
 2549         h1    102    bbb     H5   2549 -0.05230000   1.008000   ; qtot 0.126499
 2550         h1    102    bbb     H6   2550 -0.05230000   1.008000   ; qtot 0.074199
 2551         c3    102    bbb     C4   2551 0.51680000  12.010000   ; qtot 0.590999
 2552         h1    102    bbb     H7   2552 -0.05230000   1.008000   ; qtot 0.538699
 2553         h1    102    bbb     H8   2553 -0.05230000   1.008000   ; qtot 0.486399
 2554         c3    102    bbb     C5   2554 -0.60390000  12.010000   ; qtot -0.117501
 2555         hc    102    bbb     H9   2555 0.16730000   1.008000   ; qtot 0.049799
 2556         hc    102    bbb    H10   2556 0.16730000   1.008000   ; qtot 0.217099
 2557         c3    102    bbb     C6   2557 -0.60390000  12.010000   ; qtot -0.386801
 2558         hc    102    bbb    H11   2558 0.16730000   1.008000   ; qtot -0.219501
 2559         hc    102    bbb    H12   2559 0.16730000   1.008000   ; qtot -0.052201
 2560          c    102    bbb     C7   2560 0.72110000  12.010000   ; qtot 0.668899
 2561          c    102    bbb     C8   2561 0.72110000  12.010000   ; qtot 1.389999
 2562          o    102    bbb     O1   2562 -0.61950000  16.000000   ; qtot 0.770499
 2563          o    102    bbb     O2   2563 -0.61950000  16.000000   ; qtot 0.150999
 2564          n    102    bbb     N4   2564 -0.46580000  14.010000   ; qtot -0.314801
 2565         hn    102    bbb    H21   2565 0.31480000   1.008000   ; qtot -0.000001
; residue  103 bbb rtp bbb q -0.0
 2566         c3    103    bbb     C1   2566 0.44180000  12.010000   ; qtot 0.441799
 2567         h1    103    bbb     H1   2567 -0.03530000   1.008000   ; qtot 0.406499
 2568         h1    103    bbb     H2   2568 -0.03530000   1.008000   ; qtot 0.371199
 2569         c3    103    bbb     C2   2569 -0.28250000  12.010000   ; qtot 0.088699
 2570         h1    103    bbb     H3   2570 0.15710000   1.008000   ; qtot 0.245799
 2571         h1    103    bbb     H4   2571 0.15710000   1.008000   ; qtot 0.402899
 2572         n3    103    bbb     N1   2572 -0.74090000  14.010000   ; qtot -0.338001
 2573         c3    103    bbb     C3   2573 0.51680000  12.010000   ; qtot 0.178799
 2574         h1    103    bbb     H5   2574 -0.05230000   1.008000   ; qtot 0.126499
 2575         h1    103    bbb     H6   2575 -0.05230000   1.008000   ; qtot 0.074199
 2576         c3    103    bbb     C4   2576 0.51680000  12.010000   ; qtot 0.590999
 2577         h1    103    bbb     H7   2577 -0.05230000   1.008000   ; qtot 0.538699
 2578         h1    103    bbb     H8   2578 -0.05230000   1.008000   ; qtot 0.486399
 2579         c3    103    bbb     C5   2579 -0.60390000  12.010000   ; qtot -0.117501
 2580         hc    103    bbb     H9   2580 0.16730000   1.008000   ; qtot 0.049799
 2581         hc    103    bbb    H10   2581 0.16730000   1.008000   ; qtot 0.217099
 2582         c3    103    bbb     C6   2582 -0.60390000  12.010000   ; qtot -0.386801
 2583         hc    103    bbb    H11   2583 0.16730000   1.008000   ; qtot -0.219501
 2584         hc    103    bbb    H12   2584 0.16730000   1.008000   ; qtot -0.052201
 2585          c    103    bbb     C7   2585 0.72110000  12.010000   ; qtot 0.668899
 2586          c    103    bbb     C8   2586 0.72110000  12.010000   ; qtot 1.389999
 2587          o    103    bbb     O1   2587 -0.61950000  16.000000   ; qtot 0.770499
 2588          o    103    bbb     O2   2588 -0.61950000  16.000000   ; qtot 0.150999
 2589          n    103    bbb     N4   2589 -0.46580000  14.010000   ; qtot -0.314801
 2590         hn    103    bbb    H21   2590 0.31480000   1.008000   ; qtot -0.000001
; residue  104 bbb rtp bbb q -0.0
 2591         c3    104    bbb     C1   2591 0.44180000  12.010000   ; qtot 0.441799
 2592         h1    104    bbb     H1   2592 -0.03530000   1.008000   ; qtot 0.406499
 2593         h1    104    bbb     H2   2593 -0.03530000   1.008000   ; qtot 0.371199
 2594         c3    104    bbb     C2   2594 -0.28250000  12.010000   ; qtot 0.088699
 2595         h1    104    bbb     H3   2595 0.15710000   1.008000   ; qtot 0.245799
 2596         h1    104    bbb     H4   2596 0.15710000   1.008000   ; qtot 0.402899
 2597         n3    104    bbb     N1   2597 -0.74090000  14.010000   ; qtot -0.338001
 2598         c3    104    bbb     C3   2598 0.51680000  12.010000   ; qtot 0.178799
 2599         h1    104    bbb     H5   2599 -0.05230000   1.008000   ; qtot 0.126499
 2600         h1    104    bbb     H6   2600 -0.05230000   1.008000   ; qtot 0.074199
 2601         c3    104    bbb     C4   2601 0.51680000  12.010000   ; qtot 0.590999
 2602         h1    104    bbb     H7   2602 -0.05230000   1.008000   ; qtot 0.538699
 2603         h1    104    bbb     H8   2603 -0.05230000   1.008000   ; qtot 0.486399
 2604         c3    104    bbb     C5   2604 -0.60390000  12.010000   ; qtot -0.117501
 2605         hc    104    bbb     H9   2605 0.16730000   1.008000   ; qtot 0.049799
 2606         hc    104    bbb    H10   2606 0.16730000   1.008000   ; qtot 0.217099
 2607         c3    104    bbb     C6   2607 -0.60390000  12.010000   ; qtot -0.386801
 2608         hc    104    bbb    H11   2608 0.16730000   1.008000   ; qtot -0.219501
 2609         hc    104    bbb    H12   2609 0.16730000   1.008000   ; qtot -0.052201
 2610          c    104    bbb     C7   2610 0.72110000  12.010000   ; qtot 0.668899
 2611          c    104    bbb     C8   2611 0.72110000  12.010000   ; qtot 1.389999
 2612          o    104    bbb     O1   2612 -0.61950000  16.000000   ; qtot 0.770499
 2613          o    104    bbb     O2   2613 -0.61950000  16.000000   ; qtot 0.150999
 2614          n    104    bbb     N4   2614 -0.46580000  14.010000   ; qtot -0.314801
 2615         hn    104    bbb    H21   2615 0.31480000   1.008000   ; qtot -0.000001
; residue  105 bbb rtp bbb q -0.0
 2616         c3    105    bbb     C1   2616 0.44180000  12.010000   ; qtot 0.441799
 2617         h1    105    bbb     H1   2617 -0.03530000   1.008000   ; qtot 0.406499
 2618         h1    105    bbb     H2   2618 -0.03530000   1.008000   ; qtot 0.371199
 2619         c3    105    bbb     C2   2619 -0.28250000  12.010000   ; qtot 0.088699
 2620         h1    105    bbb     H3   2620 0.15710000   1.008000   ; qtot 0.245799
 2621         h1    105    bbb     H4   2621 0.15710000   1.008000   ; qtot 0.402899
 2622         n3    105    bbb     N1   2622 -0.74090000  14.010000   ; qtot -0.338001
 2623         c3    105    bbb     C3   2623 0.51680000  12.010000   ; qtot 0.178799
 2624         h1    105    bbb     H5   2624 -0.05230000   1.008000   ; qtot 0.126499
 2625         h1    105    bbb     H6   2625 -0.05230000   1.008000   ; qtot 0.074199
 2626         c3    105    bbb     C4   2626 0.51680000  12.010000   ; qtot 0.590999
 2627         h1    105    bbb     H7   2627 -0.05230000   1.008000   ; qtot 0.538699
 2628         h1    105    bbb     H8   2628 -0.05230000   1.008000   ; qtot 0.486399
 2629         c3    105    bbb     C5   2629 -0.60390000  12.010000   ; qtot -0.117501
 2630         hc    105    bbb     H9   2630 0.16730000   1.008000   ; qtot 0.049799
 2631         hc    105    bbb    H10   2631 0.16730000   1.008000   ; qtot 0.217099
 2632         c3    105    bbb     C6   2632 -0.60390000  12.010000   ; qtot -0.386801
 2633         hc    105    bbb    H11   2633 0.16730000   1.008000   ; qtot -0.219501
 2634         hc    105    bbb    H12   2634 0.16730000   1.008000   ; qtot -0.052201
 2635          c    105    bbb     C7   2635 0.72110000  12.010000   ; qtot 0.668899
 2636          c    105    bbb     C8   2636 0.72110000  12.010000   ; qtot 1.389999
 2637          o    105    bbb     O1   2637 -0.61950000  16.000000   ; qtot 0.770499
 2638          o    105    bbb     O2   2638 -0.61950000  16.000000   ; qtot 0.150999
 2639          n    105    bbb     N4   2639 -0.46580000  14.010000   ; qtot -0.314801
 2640         hn    105    bbb    H21   2640 0.31480000   1.008000   ; qtot -0.000001
; residue  106 bbb rtp bbb q -0.0
 2641         c3    106    bbb     C1   2641 0.44180000  12.010000   ; qtot 0.441799
 2642         h1    106    bbb     H1   2642 -0.03530000   1.008000   ; qtot 0.406499
 2643         h1    106    bbb     H2   2643 -0.03530000   1.008000   ; qtot 0.371199
 2644         c3    106    bbb     C2   2644 -0.28250000  12.010000   ; qtot 0.088699
 2645         h1    106    bbb     H3   2645 0.15710000   1.008000   ; qtot 0.245799
 2646         h1    106    bbb     H4   2646 0.15710000   1.008000   ; qtot 0.402899
 2647         n3    106    bbb     N1   2647 -0.74090000  14.010000   ; qtot -0.338001
 2648         c3    106    bbb     C3   2648 0.51680000  12.010000   ; qtot 0.178799
 2649         h1    106    bbb     H5   2649 -0.05230000   1.008000   ; qtot 0.126499
 2650         h1    106    bbb     H6   2650 -0.05230000   1.008000   ; qtot 0.074199
 2651         c3    106    bbb     C4   2651 0.51680000  12.010000   ; qtot 0.590999
 2652         h1    106    bbb     H7   2652 -0.05230000   1.008000   ; qtot 0.538699
 2653         h1    106    bbb     H8   2653 -0.05230000   1.008000   ; qtot 0.486399
 2654         c3    106    bbb     C5   2654 -0.60390000  12.010000   ; qtot -0.117501
 2655         hc    106    bbb     H9   2655 0.16730000   1.008000   ; qtot 0.049799
 2656         hc    106    bbb    H10   2656 0.16730000   1.008000   ; qtot 0.217099
 2657         c3    106    bbb     C6   2657 -0.60390000  12.010000   ; qtot -0.386801
 2658         hc    106    bbb    H11   2658 0.16730000   1.008000   ; qtot -0.219501
 2659         hc    106    bbb    H12   2659 0.16730000   1.008000   ; qtot -0.052201
 2660          c    106    bbb     C7   2660 0.72110000  12.010000   ; qtot 0.668899
 2661          c    106    bbb     C8   2661 0.72110000  12.010000   ; qtot 1.389999
 2662          o    106    bbb     O1   2662 -0.61950000  16.000000   ; qtot 0.770499
 2663          o    106    bbb     O2   2663 -0.61950000  16.000000   ; qtot 0.150999
 2664          n    106    bbb     N4   2664 -0.46580000  14.010000   ; qtot -0.314801
 2665         hn    106    bbb    H21   2665 0.31480000   1.008000   ; qtot -0.000001
; residue  107 bbb rtp bbb q -0.0
 2666         c3    107    bbb     C1   2666 0.44180000  12.010000   ; qtot 0.441799
 2667         h1    107    bbb     H1   2667 -0.03530000   1.008000   ; qtot 0.406499
 2668         h1    107    bbb     H2   2668 -0.03530000   1.008000   ; qtot 0.371199
 2669         c3    107    bbb     C2   2669 -0.28250000  12.010000   ; qtot 0.088699
 2670         h1    107    bbb     H3   2670 0.15710000   1.008000   ; qtot 0.245799
 2671         h1    107    bbb     H4   2671 0.15710000   1.008000   ; qtot 0.402899
 2672         n3    107    bbb     N1   2672 -0.74090000  14.010000   ; qtot -0.338001
 2673         c3    107    bbb     C3   2673 0.51680000  12.010000   ; qtot 0.178799
 2674         h1    107    bbb     H5   2674 -0.05230000   1.008000   ; qtot 0.126499
 2675         h1    107    bbb     H6   2675 -0.05230000   1.008000   ; qtot 0.074199
 2676         c3    107    bbb     C4   2676 0.51680000  12.010000   ; qtot 0.590999
 2677         h1    107    bbb     H7   2677 -0.05230000   1.008000   ; qtot 0.538699
 2678         h1    107    bbb     H8   2678 -0.05230000   1.008000   ; qtot 0.486399
 2679         c3    107    bbb     C5   2679 -0.60390000  12.010000   ; qtot -0.117501
 2680         hc    107    bbb     H9   2680 0.16730000   1.008000   ; qtot 0.049799
 2681         hc    107    bbb    H10   2681 0.16730000   1.008000   ; qtot 0.217099
 2682         c3    107    bbb     C6   2682 -0.60390000  12.010000   ; qtot -0.386801
 2683         hc    107    bbb    H11   2683 0.16730000   1.008000   ; qtot -0.219501
 2684         hc    107    bbb    H12   2684 0.16730000   1.008000   ; qtot -0.052201
 2685          c    107    bbb     C7   2685 0.72110000  12.010000   ; qtot 0.668899
 2686          c    107    bbb     C8   2686 0.72110000  12.010000   ; qtot 1.389999
 2687          o    107    bbb     O1   2687 -0.61950000  16.000000   ; qtot 0.770499
 2688          o    107    bbb     O2   2688 -0.61950000  16.000000   ; qtot 0.150999
 2689          n    107    bbb     N4   2689 -0.46580000  14.010000   ; qtot -0.314801
 2690         hn    107    bbb    H21   2690 0.31480000   1.008000   ; qtot -0.000001
; residue  108 bbb rtp bbb q -0.0
 2691         c3    108    bbb     C1   2691 0.44180000  12.010000   ; qtot 0.441799
 2692         h1    108    bbb     H1   2692 -0.03530000   1.008000   ; qtot 0.406499
 2693         h1    108    bbb     H2   2693 -0.03530000   1.008000   ; qtot 0.371199
 2694         c3    108    bbb     C2   2694 -0.28250000  12.010000   ; qtot 0.088699
 2695         h1    108    bbb     H3   2695 0.15710000   1.008000   ; qtot 0.245799
 2696         h1    108    bbb     H4   2696 0.15710000   1.008000   ; qtot 0.402899
 2697         n3    108    bbb     N1   2697 -0.74090000  14.010000   ; qtot -0.338001
 2698         c3    108    bbb     C3   2698 0.51680000  12.010000   ; qtot 0.178799
 2699         h1    108    bbb     H5   2699 -0.05230000   1.008000   ; qtot 0.126499
 2700         h1    108    bbb     H6   2700 -0.05230000   1.008000   ; qtot 0.074199
 2701         c3    108    bbb     C4   2701 0.51680000  12.010000   ; qtot 0.590999
 2702         h1    108    bbb     H7   2702 -0.05230000   1.008000   ; qtot 0.538699
 2703         h1    108    bbb     H8   2703 -0.05230000   1.008000   ; qtot 0.486399
 2704         c3    108    bbb     C5   2704 -0.60390000  12.010000   ; qtot -0.117501
 2705         hc    108    bbb     H9   2705 0.16730000   1.008000   ; qtot 0.049799
 2706         hc    108    bbb    H10   2706 0.16730000   1.008000   ; qtot 0.217099
 2707         c3    108    bbb     C6   2707 -0.60390000  12.010000   ; qtot -0.386801
 2708         hc    108    bbb    H11   2708 0.16730000   1.008000   ; qtot -0.219501
 2709         hc    108    bbb    H12   2709 0.16730000   1.008000   ; qtot -0.052201
 2710          c    108    bbb     C7   2710 0.72110000  12.010000   ; qtot 0.668899
 2711          c    108    bbb     C8   2711 0.72110000  12.010000   ; qtot 1.389999
 2712          o    108    bbb     O1   2712 -0.61950000  16.000000   ; qtot 0.770499
 2713          o    108    bbb     O2   2713 -0.61950000  16.000000   ; qtot 0.150999
 2714          n    108    bbb     N4   2714 -0.46580000  14.010000   ; qtot -0.314801
 2715         hn    108    bbb    H21   2715 0.31480000   1.008000   ; qtot -0.000001
; residue  109 bbb rtp bbb q -0.0
 2716         c3    109    bbb     C1   2716 0.44180000  12.010000   ; qtot 0.441799
 2717         h1    109    bbb     H1   2717 -0.03530000   1.008000   ; qtot 0.406499
 2718         h1    109    bbb     H2   2718 -0.03530000   1.008000   ; qtot 0.371199
 2719         c3    109    bbb     C2   2719 -0.28250000  12.010000   ; qtot 0.088699
 2720         h1    109    bbb     H3   2720 0.15710000   1.008000   ; qtot 0.245799
 2721         h1    109    bbb     H4   2721 0.15710000   1.008000   ; qtot 0.402899
 2722         n3    109    bbb     N1   2722 -0.74090000  14.010000   ; qtot -0.338001
 2723         c3    109    bbb     C3   2723 0.51680000  12.010000   ; qtot 0.178799
 2724         h1    109    bbb     H5   2724 -0.05230000   1.008000   ; qtot 0.126499
 2725         h1    109    bbb     H6   2725 -0.05230000   1.008000   ; qtot 0.074199
 2726         c3    109    bbb     C4   2726 0.51680000  12.010000   ; qtot 0.590999
 2727         h1    109    bbb     H7   2727 -0.05230000   1.008000   ; qtot 0.538699
 2728         h1    109    bbb     H8   2728 -0.05230000   1.008000   ; qtot 0.486399
 2729         c3    109    bbb     C5   2729 -0.60390000  12.010000   ; qtot -0.117501
 2730         hc    109    bbb     H9   2730 0.16730000   1.008000   ; qtot 0.049799
 2731         hc    109    bbb    H10   2731 0.16730000   1.008000   ; qtot 0.217099
 2732         c3    109    bbb     C6   2732 -0.60390000  12.010000   ; qtot -0.386801
 2733         hc    109    bbb    H11   2733 0.16730000   1.008000   ; qtot -0.219501
 2734         hc    109    bbb    H12   2734 0.16730000   1.008000   ; qtot -0.052201
 2735          c    109    bbb     C7   2735 0.72110000  12.010000   ; qtot 0.668899
 2736          c    109    bbb     C8   2736 0.72110000  12.010000   ; qtot 1.389999
 2737          o    109    bbb     O1   2737 -0.61950000  16.000000   ; qtot 0.770499
 2738          o    109    bbb     O2   2738 -0.61950000  16.000000   ; qtot 0.150999
 2739          n    109    bbb     N4   2739 -0.46580000  14.010000   ; qtot -0.314801
 2740         hn    109    bbb    H21   2740 0.31480000   1.008000   ; qtot -0.000001
; residue  110 bbb rtp bbb q -0.0
 2741         c3    110    bbb     C1   2741 0.44180000  12.010000   ; qtot 0.441799
 2742         h1    110    bbb     H1   2742 -0.03530000   1.008000   ; qtot 0.406499
 2743         h1    110    bbb     H2   2743 -0.03530000   1.008000   ; qtot 0.371199
 2744         c3    110    bbb     C2   2744 -0.28250000  12.010000   ; qtot 0.088699
 2745         h1    110    bbb     H3   2745 0.15710000   1.008000   ; qtot 0.245799
 2746         h1    110    bbb     H4   2746 0.15710000   1.008000   ; qtot 0.402899
 2747         n3    110    bbb     N1   2747 -0.74090000  14.010000   ; qtot -0.338001
 2748         c3    110    bbb     C3   2748 0.51680000  12.010000   ; qtot 0.178799
 2749         h1    110    bbb     H5   2749 -0.05230000   1.008000   ; qtot 0.126499
 2750         h1    110    bbb     H6   2750 -0.05230000   1.008000   ; qtot 0.074199
 2751         c3    110    bbb     C4   2751 0.51680000  12.010000   ; qtot 0.590999
 2752         h1    110    bbb     H7   2752 -0.05230000   1.008000   ; qtot 0.538699
 2753         h1    110    bbb     H8   2753 -0.05230000   1.008000   ; qtot 0.486399
 2754         c3    110    bbb     C5   2754 -0.60390000  12.010000   ; qtot -0.117501
 2755         hc    110    bbb     H9   2755 0.16730000   1.008000   ; qtot 0.049799
 2756         hc    110    bbb    H10   2756 0.16730000   1.008000   ; qtot 0.217099
 2757         c3    110    bbb     C6   2757 -0.60390000  12.010000   ; qtot -0.386801
 2758         hc    110    bbb    H11   2758 0.16730000   1.008000   ; qtot -0.219501
 2759         hc    110    bbb    H12   2759 0.16730000   1.008000   ; qtot -0.052201
 2760          c    110    bbb     C7   2760 0.72110000  12.010000   ; qtot 0.668899
 2761          c    110    bbb     C8   2761 0.72110000  12.010000   ; qtot 1.389999
 2762          o    110    bbb     O1   2762 -0.61950000  16.000000   ; qtot 0.770499
 2763          o    110    bbb     O2   2763 -0.61950000  16.000000   ; qtot 0.150998
 2764          n    110    bbb     N4   2764 -0.46580000  14.010000   ; qtot -0.314802
 2765         hn    110    bbb    H21   2765 0.31480000   1.008000   ; qtot -0.000002
; residue  111 bbb rtp bbb q -0.0
 2766         c3    111    bbb     C1   2766 0.44180000  12.010000   ; qtot 0.441798
 2767         h1    111    bbb     H1   2767 -0.03530000   1.008000   ; qtot 0.406498
 2768         h1    111    bbb     H2   2768 -0.03530000   1.008000   ; qtot 0.371198
 2769         c3    111    bbb     C2   2769 -0.28250000  12.010000   ; qtot 0.088698
 2770         h1    111    bbb     H3   2770 0.15710000   1.008000   ; qtot 0.245798
 2771         h1    111    bbb     H4   2771 0.15710000   1.008000   ; qtot 0.402898
 2772         n3    111    bbb     N1   2772 -0.74090000  14.010000   ; qtot -0.338002
 2773         c3    111    bbb     C3   2773 0.51680000  12.010000   ; qtot 0.178798
 2774         h1    111    bbb     H5   2774 -0.05230000   1.008000   ; qtot 0.126498
 2775         h1    111    bbb     H6   2775 -0.05230000   1.008000   ; qtot 0.074198
 2776         c3    111    bbb     C4   2776 0.51680000  12.010000   ; qtot 0.590998
 2777         h1    111    bbb     H7   2777 -0.05230000   1.008000   ; qtot 0.538698
 2778         h1    111    bbb     H8   2778 -0.05230000   1.008000   ; qtot 0.486398
 2779         c3    111    bbb     C5   2779 -0.60390000  12.010000   ; qtot -0.117502
 2780         hc    111    bbb     H9   2780 0.16730000   1.008000   ; qtot 0.049798
 2781         hc    111    bbb    H10   2781 0.16730000   1.008000   ; qtot 0.217098
 2782         c3    111    bbb     C6   2782 -0.60390000  12.010000   ; qtot -0.386802
 2783         hc    111    bbb    H11   2783 0.16730000   1.008000   ; qtot -0.219502
 2784         hc    111    bbb    H12   2784 0.16730000   1.008000   ; qtot -0.052202
 2785          c    111    bbb     C7   2785 0.72110000  12.010000   ; qtot 0.668898
 2786          c    111    bbb     C8   2786 0.72110000  12.010000   ; qtot 1.389998
 2787          o    111    bbb     O1   2787 -0.61950000  16.000000   ; qtot 0.770498
 2788          o    111    bbb     O2   2788 -0.61950000  16.000000   ; qtot 0.150998
 2789          n    111    bbb     N4   2789 -0.46580000  14.010000   ; qtot -0.314802
 2790         hn    111    bbb    H21   2790 0.31480000   1.008000   ; qtot -0.000002
; residue  112 bbb rtp bbb q -0.0
 2791         c3    112    bbb     C1   2791 0.44180000  12.010000   ; qtot 0.441798
 2792         h1    112    bbb     H1   2792 -0.03530000   1.008000   ; qtot 0.406498
 2793         h1    112    bbb     H2   2793 -0.03530000   1.008000   ; qtot 0.371198
 2794         c3    112    bbb     C2   2794 -0.28250000  12.010000   ; qtot 0.088698
 2795         h1    112    bbb     H3   2795 0.15710000   1.008000   ; qtot 0.245798
 2796         h1    112    bbb     H4   2796 0.15710000   1.008000   ; qtot 0.402898
 2797         n3    112    bbb     N1   2797 -0.74090000  14.010000   ; qtot -0.338002
 2798         c3    112    bbb     C3   2798 0.51680000  12.010000   ; qtot 0.178798
 2799         h1    112    bbb     H5   2799 -0.05230000   1.008000   ; qtot 0.126498
 2800         h1    112    bbb     H6   2800 -0.05230000   1.008000   ; qtot 0.074198
 2801         c3    112    bbb     C4   2801 0.51680000  12.010000   ; qtot 0.590998
 2802         h1    112    bbb     H7   2802 -0.05230000   1.008000   ; qtot 0.538698
 2803         h1    112    bbb     H8   2803 -0.05230000   1.008000   ; qtot 0.486398
 2804         c3    112    bbb     C5   2804 -0.60390000  12.010000   ; qtot -0.117502
 2805         hc    112    bbb     H9   2805 0.16730000   1.008000   ; qtot 0.049798
 2806         hc    112    bbb    H10   2806 0.16730000   1.008000   ; qtot 0.217098
 2807         c3    112    bbb     C6   2807 -0.60390000  12.010000   ; qtot -0.386802
 2808         hc    112    bbb    H11   2808 0.16730000   1.008000   ; qtot -0.219502
 2809         hc    112    bbb    H12   2809 0.16730000   1.008000   ; qtot -0.052202
 2810          c    112    bbb     C7   2810 0.72110000  12.010000   ; qtot 0.668898
 2811          c    112    bbb     C8   2811 0.72110000  12.010000   ; qtot 1.389998
 2812          o    112    bbb     O1   2812 -0.61950000  16.000000   ; qtot 0.770498
 2813          o    112    bbb     O2   2813 -0.61950000  16.000000   ; qtot 0.150998
 2814          n    112    bbb     N4   2814 -0.46580000  14.010000   ; qtot -0.314802
 2815         hn    112    bbb    H21   2815 0.31480000   1.008000   ; qtot -0.000002
; residue  113 bbb rtp bbb q -0.0
 2816         c3    113    bbb     C1   2816 0.44180000  12.010000   ; qtot 0.441798
 2817         h1    113    bbb     H1   2817 -0.03530000   1.008000   ; qtot 0.406498
 2818         h1    113    bbb     H2   2818 -0.03530000   1.008000   ; qtot 0.371198
 2819         c3    113    bbb     C2   2819 -0.28250000  12.010000   ; qtot 0.088698
 2820         h1    113    bbb     H3   2820 0.15710000   1.008000   ; qtot 0.245798
 2821         h1    113    bbb     H4   2821 0.15710000   1.008000   ; qtot 0.402898
 2822         n3    113    bbb     N1   2822 -0.74090000  14.010000   ; qtot -0.338002
 2823         c3    113    bbb     C3   2823 0.51680000  12.010000   ; qtot 0.178798
 2824         h1    113    bbb     H5   2824 -0.05230000   1.008000   ; qtot 0.126498
 2825         h1    113    bbb     H6   2825 -0.05230000   1.008000   ; qtot 0.074198
 2826         c3    113    bbb     C4   2826 0.51680000  12.010000   ; qtot 0.590998
 2827         h1    113    bbb     H7   2827 -0.05230000   1.008000   ; qtot 0.538698
 2828         h1    113    bbb     H8   2828 -0.05230000   1.008000   ; qtot 0.486398
 2829         c3    113    bbb     C5   2829 -0.60390000  12.010000   ; qtot -0.117502
 2830         hc    113    bbb     H9   2830 0.16730000   1.008000   ; qtot 0.049798
 2831         hc    113    bbb    H10   2831 0.16730000   1.008000   ; qtot 0.217098
 2832         c3    113    bbb     C6   2832 -0.60390000  12.010000   ; qtot -0.386802
 2833         hc    113    bbb    H11   2833 0.16730000   1.008000   ; qtot -0.219502
 2834         hc    113    bbb    H12   2834 0.16730000   1.008000   ; qtot -0.052202
 2835          c    113    bbb     C7   2835 0.72110000  12.010000   ; qtot 0.668898
 2836          c    113    bbb     C8   2836 0.72110000  12.010000   ; qtot 1.389998
 2837          o    113    bbb     O1   2837 -0.61950000  16.000000   ; qtot 0.770498
 2838          o    113    bbb     O2   2838 -0.61950000  16.000000   ; qtot 0.150998
 2839          n    113    bbb     N4   2839 -0.46580000  14.010000   ; qtot -0.314802
 2840         hn    113    bbb    H21   2840 0.31480000   1.008000   ; qtot -0.000002
; residue  114 bbb rtp bbb q -0.0
 2841         c3    114    bbb     C1   2841 0.44180000  12.010000   ; qtot 0.441798
 2842         h1    114    bbb     H1   2842 -0.03530000   1.008000   ; qtot 0.406498
 2843         h1    114    bbb     H2   2843 -0.03530000   1.008000   ; qtot 0.371198
 2844         c3    114    bbb     C2   2844 -0.28250000  12.010000   ; qtot 0.088698
 2845         h1    114    bbb     H3   2845 0.15710000   1.008000   ; qtot 0.245798
 2846         h1    114    bbb     H4   2846 0.15710000   1.008000   ; qtot 0.402898
 2847         n3    114    bbb     N1   2847 -0.74090000  14.010000   ; qtot -0.338002
 2848         c3    114    bbb     C3   2848 0.51680000  12.010000   ; qtot 0.178798
 2849         h1    114    bbb     H5   2849 -0.05230000   1.008000   ; qtot 0.126498
 2850         h1    114    bbb     H6   2850 -0.05230000   1.008000   ; qtot 0.074198
 2851         c3    114    bbb     C4   2851 0.51680000  12.010000   ; qtot 0.590998
 2852         h1    114    bbb     H7   2852 -0.05230000   1.008000   ; qtot 0.538698
 2853         h1    114    bbb     H8   2853 -0.05230000   1.008000   ; qtot 0.486398
 2854         c3    114    bbb     C5   2854 -0.60390000  12.010000   ; qtot -0.117502
 2855         hc    114    bbb     H9   2855 0.16730000   1.008000   ; qtot 0.049798
 2856         hc    114    bbb    H10   2856 0.16730000   1.008000   ; qtot 0.217098
 2857         c3    114    bbb     C6   2857 -0.60390000  12.010000   ; qtot -0.386802
 2858         hc    114    bbb    H11   2858 0.16730000   1.008000   ; qtot -0.219502
 2859         hc    114    bbb    H12   2859 0.16730000   1.008000   ; qtot -0.052202
 2860          c    114    bbb     C7   2860 0.72110000  12.010000   ; qtot 0.668898
 2861          c    114    bbb     C8   2861 0.72110000  12.010000   ; qtot 1.389998
 2862          o    114    bbb     O1   2862 -0.61950000  16.000000   ; qtot 0.770498
 2863          o    114    bbb     O2   2863 -0.61950000  16.000000   ; qtot 0.150998
 2864          n    114    bbb     N4   2864 -0.46580000  14.010000   ; qtot -0.314802
 2865         hn    114    bbb    H21   2865 0.31480000   1.008000   ; qtot -0.000002
; residue  115 bbb rtp bbb q -0.0
 2866         c3    115    bbb     C1   2866 0.44180000  12.010000   ; qtot 0.441798
 2867         h1    115    bbb     H1   2867 -0.03530000   1.008000   ; qtot 0.406498
 2868         h1    115    bbb     H2   2868 -0.03530000   1.008000   ; qtot 0.371198
 2869         c3    115    bbb     C2   2869 -0.28250000  12.010000   ; qtot 0.088698
 2870         h1    115    bbb     H3   2870 0.15710000   1.008000   ; qtot 0.245798
 2871         h1    115    bbb     H4   2871 0.15710000   1.008000   ; qtot 0.402898
 2872         n3    115    bbb     N1   2872 -0.74090000  14.010000   ; qtot -0.338002
 2873         c3    115    bbb     C3   2873 0.51680000  12.010000   ; qtot 0.178798
 2874         h1    115    bbb     H5   2874 -0.05230000   1.008000   ; qtot 0.126498
 2875         h1    115    bbb     H6   2875 -0.05230000   1.008000   ; qtot 0.074198
 2876         c3    115    bbb     C4   2876 0.51680000  12.010000   ; qtot 0.590998
 2877         h1    115    bbb     H7   2877 -0.05230000   1.008000   ; qtot 0.538698
 2878         h1    115    bbb     H8   2878 -0.05230000   1.008000   ; qtot 0.486398
 2879         c3    115    bbb     C5   2879 -0.60390000  12.010000   ; qtot -0.117502
 2880         hc    115    bbb     H9   2880 0.16730000   1.008000   ; qtot 0.049798
 2881         hc    115    bbb    H10   2881 0.16730000   1.008000   ; qtot 0.217098
 2882         c3    115    bbb     C6   2882 -0.60390000  12.010000   ; qtot -0.386802
 2883         hc    115    bbb    H11   2883 0.16730000   1.008000   ; qtot -0.219502
 2884         hc    115    bbb    H12   2884 0.16730000   1.008000   ; qtot -0.052202
 2885          c    115    bbb     C7   2885 0.72110000  12.010000   ; qtot 0.668898
 2886          c    115    bbb     C8   2886 0.72110000  12.010000   ; qtot 1.389998
 2887          o    115    bbb     O1   2887 -0.61950000  16.000000   ; qtot 0.770498
 2888          o    115    bbb     O2   2888 -0.61950000  16.000000   ; qtot 0.150998
 2889          n    115    bbb     N4   2889 -0.46580000  14.010000   ; qtot -0.314802
 2890         hn    115    bbb    H21   2890 0.31480000   1.008000   ; qtot -0.000002
; residue  116 bbb rtp bbb q -0.0
 2891         c3    116    bbb     C1   2891 0.44180000  12.010000   ; qtot 0.441798
 2892         h1    116    bbb     H1   2892 -0.03530000   1.008000   ; qtot 0.406498
 2893         h1    116    bbb     H2   2893 -0.03530000   1.008000   ; qtot 0.371198
 2894         c3    116    bbb     C2   2894 -0.28250000  12.010000   ; qtot 0.088698
 2895         h1    116    bbb     H3   2895 0.15710000   1.008000   ; qtot 0.245798
 2896         h1    116    bbb     H4   2896 0.15710000   1.008000   ; qtot 0.402898
 2897         n3    116    bbb     N1   2897 -0.74090000  14.010000   ; qtot -0.338002
 2898         c3    116    bbb     C3   2898 0.51680000  12.010000   ; qtot 0.178798
 2899         h1    116    bbb     H5   2899 -0.05230000   1.008000   ; qtot 0.126498
 2900         h1    116    bbb     H6   2900 -0.05230000   1.008000   ; qtot 0.074198
 2901         c3    116    bbb     C4   2901 0.51680000  12.010000   ; qtot 0.590998
 2902         h1    116    bbb     H7   2902 -0.05230000   1.008000   ; qtot 0.538698
 2903         h1    116    bbb     H8   2903 -0.05230000   1.008000   ; qtot 0.486398
 2904         c3    116    bbb     C5   2904 -0.60390000  12.010000   ; qtot -0.117502
 2905         hc    116    bbb     H9   2905 0.16730000   1.008000   ; qtot 0.049798
 2906         hc    116    bbb    H10   2906 0.16730000   1.008000   ; qtot 0.217098
 2907         c3    116    bbb     C6   2907 -0.60390000  12.010000   ; qtot -0.386802
 2908         hc    116    bbb    H11   2908 0.16730000   1.008000   ; qtot -0.219502
 2909         hc    116    bbb    H12   2909 0.16730000   1.008000   ; qtot -0.052202
 2910          c    116    bbb     C7   2910 0.72110000  12.010000   ; qtot 0.668898
 2911          c    116    bbb     C8   2911 0.72110000  12.010000   ; qtot 1.389998
 2912          o    116    bbb     O1   2912 -0.61950000  16.000000   ; qtot 0.770498
 2913          o    116    bbb     O2   2913 -0.61950000  16.000000   ; qtot 0.150998
 2914          n    116    bbb     N4   2914 -0.46580000  14.010000   ; qtot -0.314802
 2915         hn    116    bbb    H21   2915 0.31480000   1.008000   ; qtot -0.000002
; residue  117 bbb rtp bbb q -0.0
 2916         c3    117    bbb     C1   2916 0.44180000  12.010000   ; qtot 0.441798
 2917         h1    117    bbb     H1   2917 -0.03530000   1.008000   ; qtot 0.406498
 2918         h1    117    bbb     H2   2918 -0.03530000   1.008000   ; qtot 0.371198
 2919         c3    117    bbb     C2   2919 -0.28250000  12.010000   ; qtot 0.088698
 2920         h1    117    bbb     H3   2920 0.15710000   1.008000   ; qtot 0.245798
 2921         h1    117    bbb     H4   2921 0.15710000   1.008000   ; qtot 0.402898
 2922         n3    117    bbb     N1   2922 -0.74090000  14.010000   ; qtot -0.338002
 2923         c3    117    bbb     C3   2923 0.51680000  12.010000   ; qtot 0.178798
 2924         h1    117    bbb     H5   2924 -0.05230000   1.008000   ; qtot 0.126498
 2925         h1    117    bbb     H6   2925 -0.05230000   1.008000   ; qtot 0.074198
 2926         c3    117    bbb     C4   2926 0.51680000  12.010000   ; qtot 0.590998
 2927         h1    117    bbb     H7   2927 -0.05230000   1.008000   ; qtot 0.538698
 2928         h1    117    bbb     H8   2928 -0.05230000   1.008000   ; qtot 0.486398
 2929         c3    117    bbb     C5   2929 -0.60390000  12.010000   ; qtot -0.117502
 2930         hc    117    bbb     H9   2930 0.16730000   1.008000   ; qtot 0.049798
 2931         hc    117    bbb    H10   2931 0.16730000   1.008000   ; qtot 0.217098
 2932         c3    117    bbb     C6   2932 -0.60390000  12.010000   ; qtot -0.386802
 2933         hc    117    bbb    H11   2933 0.16730000   1.008000   ; qtot -0.219502
 2934         hc    117    bbb    H12   2934 0.16730000   1.008000   ; qtot -0.052202
 2935          c    117    bbb     C7   2935 0.72110000  12.010000   ; qtot 0.668898
 2936          c    117    bbb     C8   2936 0.72110000  12.010000   ; qtot 1.389998
 2937          o    117    bbb     O1   2937 -0.61950000  16.000000   ; qtot 0.770498
 2938          o    117    bbb     O2   2938 -0.61950000  16.000000   ; qtot 0.150998
 2939          n    117    bbb     N4   2939 -0.46580000  14.010000   ; qtot -0.314802
 2940         hn    117    bbb    H21   2940 0.31480000   1.008000   ; qtot -0.000002
; residue  118 bbb rtp bbb q -0.0
 2941         c3    118    bbb     C1   2941 0.44180000  12.010000   ; qtot 0.441798
 2942         h1    118    bbb     H1   2942 -0.03530000   1.008000   ; qtot 0.406498
 2943         h1    118    bbb     H2   2943 -0.03530000   1.008000   ; qtot 0.371198
 2944         c3    118    bbb     C2   2944 -0.28250000  12.010000   ; qtot 0.088698
 2945         h1    118    bbb     H3   2945 0.15710000   1.008000   ; qtot 0.245798
 2946         h1    118    bbb     H4   2946 0.15710000   1.008000   ; qtot 0.402898
 2947         n3    118    bbb     N1   2947 -0.74090000  14.010000   ; qtot -0.338002
 2948         c3    118    bbb     C3   2948 0.51680000  12.010000   ; qtot 0.178798
 2949         h1    118    bbb     H5   2949 -0.05230000   1.008000   ; qtot 0.126498
 2950         h1    118    bbb     H6   2950 -0.05230000   1.008000   ; qtot 0.074198
 2951         c3    118    bbb     C4   2951 0.51680000  12.010000   ; qtot 0.590998
 2952         h1    118    bbb     H7   2952 -0.05230000   1.008000   ; qtot 0.538698
 2953         h1    118    bbb     H8   2953 -0.05230000   1.008000   ; qtot 0.486398
 2954         c3    118    bbb     C5   2954 -0.60390000  12.010000   ; qtot -0.117502
 2955         hc    118    bbb     H9   2955 0.16730000   1.008000   ; qtot 0.049798
 2956         hc    118    bbb    H10   2956 0.16730000   1.008000   ; qtot 0.217098
 2957         c3    118    bbb     C6   2957 -0.60390000  12.010000   ; qtot -0.386802
 2958         hc    118    bbb    H11   2958 0.16730000   1.008000   ; qtot -0.219502
 2959         hc    118    bbb    H12   2959 0.16730000   1.008000   ; qtot -0.052202
 2960          c    118    bbb     C7   2960 0.72110000  12.010000   ; qtot 0.668898
 2961          c    118    bbb     C8   2961 0.72110000  12.010000   ; qtot 1.389998
 2962          o    118    bbb     O1   2962 -0.61950000  16.000000   ; qtot 0.770498
 2963          o    118    bbb     O2   2963 -0.61950000  16.000000   ; qtot 0.150998
 2964          n    118    bbb     N4   2964 -0.46580000  14.010000   ; qtot -0.314802
 2965         hn    118    bbb    H21   2965 0.31480000   1.008000   ; qtot -0.000002
; residue  119 bbb rtp bbb q -0.0
 2966         c3    119    bbb     C1   2966 0.44180000  12.010000   ; qtot 0.441798
 2967         h1    119    bbb     H1   2967 -0.03530000   1.008000   ; qtot 0.406498
 2968         h1    119    bbb     H2   2968 -0.03530000   1.008000   ; qtot 0.371198
 2969         c3    119    bbb     C2   2969 -0.28250000  12.010000   ; qtot 0.088698
 2970         h1    119    bbb     H3   2970 0.15710000   1.008000   ; qtot 0.245798
 2971         h1    119    bbb     H4   2971 0.15710000   1.008000   ; qtot 0.402898
 2972         n3    119    bbb     N1   2972 -0.74090000  14.010000   ; qtot -0.338002
 2973         c3    119    bbb     C3   2973 0.51680000  12.010000   ; qtot 0.178798
 2974         h1    119    bbb     H5   2974 -0.05230000   1.008000   ; qtot 0.126498
 2975         h1    119    bbb     H6   2975 -0.05230000   1.008000   ; qtot 0.074198
 2976         c3    119    bbb     C4   2976 0.51680000  12.010000   ; qtot 0.590998
 2977         h1    119    bbb     H7   2977 -0.05230000   1.008000   ; qtot 0.538698
 2978         h1    119    bbb     H8   2978 -0.05230000   1.008000   ; qtot 0.486398
 2979         c3    119    bbb     C5   2979 -0.60390000  12.010000   ; qtot -0.117502
 2980         hc    119    bbb     H9   2980 0.16730000   1.008000   ; qtot 0.049798
 2981         hc    119    bbb    H10   2981 0.16730000   1.008000   ; qtot 0.217098
 2982         c3    119    bbb     C6   2982 -0.60390000  12.010000   ; qtot -0.386802
 2983         hc    119    bbb    H11   2983 0.16730000   1.008000   ; qtot -0.219502
 2984         hc    119    bbb    H12   2984 0.16730000   1.008000   ; qtot -0.052202
 2985          c    119    bbb     C7   2985 0.72110000  12.010000   ; qtot 0.668898
 2986          c    119    bbb     C8   2986 0.72110000  12.010000   ; qtot 1.389998
 2987          o    119    bbb     O1   2987 -0.61950000  16.000000   ; qtot 0.770498
 2988          o    119    bbb     O2   2988 -0.61950000  16.000000   ; qtot 0.150998
 2989          n    119    bbb     N4   2989 -0.46580000  14.010000   ; qtot -0.314802
 2990         hn    119    bbb    H21   2990 0.31480000   1.008000   ; qtot -0.000002
; residue  120 bbb rtp bbb q -0.0
 2991         c3    120    bbb     C1   2991 0.44180000  12.010000   ; qtot 0.441798
 2992         h1    120    bbb     H1   2992 -0.03530000   1.008000   ; qtot 0.406498
 2993         h1    120    bbb     H2   2993 -0.03530000   1.008000   ; qtot 0.371198
 2994         c3    120    bbb     C2   2994 -0.28250000  12.010000   ; qtot 0.088698
 2995         h1    120    bbb     H3   2995 0.15710000   1.008000   ; qtot 0.245798
 2996         h1    120    bbb     H4   2996 0.15710000   1.008000   ; qtot 0.402898
 2997         n3    120    bbb     N1   2997 -0.74090000  14.010000   ; qtot -0.338002
 2998         c3    120    bbb     C3   2998 0.51680000  12.010000   ; qtot 0.178798
 2999         h1    120    bbb     H5   2999 -0.05230000   1.008000   ; qtot 0.126498
 3000         h1    120    bbb     H6   3000 -0.05230000   1.008000   ; qtot 0.074198
 3001         c3    120    bbb     C4   3001 0.51680000  12.010000   ; qtot 0.590998
 3002         h1    120    bbb     H7   3002 -0.05230000   1.008000   ; qtot 0.538698
 3003         h1    120    bbb     H8   3003 -0.05230000   1.008000   ; qtot 0.486398
 3004         c3    120    bbb     C5   3004 -0.60390000  12.010000   ; qtot -0.117502
 3005         hc    120    bbb     H9   3005 0.16730000   1.008000   ; qtot 0.049798
 3006         hc    120    bbb    H10   3006 0.16730000   1.008000   ; qtot 0.217098
 3007         c3    120    bbb     C6   3007 -0.60390000  12.010000   ; qtot -0.386802
 3008         hc    120    bbb    H11   3008 0.16730000   1.008000   ; qtot -0.219502
 3009         hc    120    bbb    H12   3009 0.16730000   1.008000   ; qtot -0.052202
 3010          c    120    bbb     C7   3010 0.72110000  12.010000   ; qtot 0.668898
 3011          c    120    bbb     C8   3011 0.72110000  12.010000   ; qtot 1.389998
 3012          o    120    bbb     O1   3012 -0.61950000  16.000000   ; qtot 0.770498
 3013          o    120    bbb     O2   3013 -0.61950000  16.000000   ; qtot 0.150998
 3014          n    120    bbb     N4   3014 -0.46580000  14.010000   ; qtot -0.314802
 3015         hn    120    bbb    H21   3015 0.31480000   1.008000   ; qtot -0.000002
; residue  121 bbb rtp bbb q -0.0
 3016         c3    121    bbb     C1   3016 0.44180000  12.010000   ; qtot 0.441798
 3017         h1    121    bbb     H1   3017 -0.03530000   1.008000   ; qtot 0.406498
 3018         h1    121    bbb     H2   3018 -0.03530000   1.008000   ; qtot 0.371198
 3019         c3    121    bbb     C2   3019 -0.28250000  12.010000   ; qtot 0.088698
 3020         h1    121    bbb     H3   3020 0.15710000   1.008000   ; qtot 0.245798
 3021         h1    121    bbb     H4   3021 0.15710000   1.008000   ; qtot 0.402898
 3022         n3    121    bbb     N1   3022 -0.74090000  14.010000   ; qtot -0.338002
 3023         c3    121    bbb     C3   3023 0.51680000  12.010000   ; qtot 0.178798
 3024         h1    121    bbb     H5   3024 -0.05230000   1.008000   ; qtot 0.126498
 3025         h1    121    bbb     H6   3025 -0.05230000   1.008000   ; qtot 0.074198
 3026         c3    121    bbb     C4   3026 0.51680000  12.010000   ; qtot 0.590998
 3027         h1    121    bbb     H7   3027 -0.05230000   1.008000   ; qtot 0.538698
 3028         h1    121    bbb     H8   3028 -0.05230000   1.008000   ; qtot 0.486398
 3029         c3    121    bbb     C5   3029 -0.60390000  12.010000   ; qtot -0.117502
 3030         hc    121    bbb     H9   3030 0.16730000   1.008000   ; qtot 0.049798
 3031         hc    121    bbb    H10   3031 0.16730000   1.008000   ; qtot 0.217098
 3032         c3    121    bbb     C6   3032 -0.60390000  12.010000   ; qtot -0.386802
 3033         hc    121    bbb    H11   3033 0.16730000   1.008000   ; qtot -0.219502
 3034         hc    121    bbb    H12   3034 0.16730000   1.008000   ; qtot -0.052202
 3035          c    121    bbb     C7   3035 0.72110000  12.010000   ; qtot 0.668898
 3036          c    121    bbb     C8   3036 0.72110000  12.010000   ; qtot 1.389998
 3037          o    121    bbb     O1   3037 -0.61950000  16.000000   ; qtot 0.770498
 3038          o    121    bbb     O2   3038 -0.61950000  16.000000   ; qtot 0.150998
 3039          n    121    bbb     N4   3039 -0.46580000  14.010000   ; qtot -0.314802
 3040         hn    121    bbb    H21   3040 0.31480000   1.008000   ; qtot -0.000002
; residue  122 bbb rtp bbb q -0.0
 3041         c3    122    bbb     C1   3041 0.44180000  12.010000   ; qtot 0.441798
 3042         h1    122    bbb     H1   3042 -0.03530000   1.008000   ; qtot 0.406498
 3043         h1    122    bbb     H2   3043 -0.03530000   1.008000   ; qtot 0.371198
 3044         c3    122    bbb     C2   3044 -0.28250000  12.010000   ; qtot 0.088698
 3045         h1    122    bbb     H3   3045 0.15710000   1.008000   ; qtot 0.245798
 3046         h1    122    bbb     H4   3046 0.15710000   1.008000   ; qtot 0.402898
 3047         n3    122    bbb     N1   3047 -0.74090000  14.010000   ; qtot -0.338002
 3048         c3    122    bbb     C3   3048 0.51680000  12.010000   ; qtot 0.178798
 3049         h1    122    bbb     H5   3049 -0.05230000   1.008000   ; qtot 0.126498
 3050         h1    122    bbb     H6   3050 -0.05230000   1.008000   ; qtot 0.074198
 3051         c3    122    bbb     C4   3051 0.51680000  12.010000   ; qtot 0.590998
 3052         h1    122    bbb     H7   3052 -0.05230000   1.008000   ; qtot 0.538698
 3053         h1    122    bbb     H8   3053 -0.05230000   1.008000   ; qtot 0.486398
 3054         c3    122    bbb     C5   3054 -0.60390000  12.010000   ; qtot -0.117502
 3055         hc    122    bbb     H9   3055 0.16730000   1.008000   ; qtot 0.049798
 3056         hc    122    bbb    H10   3056 0.16730000   1.008000   ; qtot 0.217098
 3057         c3    122    bbb     C6   3057 -0.60390000  12.010000   ; qtot -0.386802
 3058         hc    122    bbb    H11   3058 0.16730000   1.008000   ; qtot -0.219502
 3059         hc    122    bbb    H12   3059 0.16730000   1.008000   ; qtot -0.052202
 3060          c    122    bbb     C7   3060 0.72110000  12.010000   ; qtot 0.668898
 3061          c    122    bbb     C8   3061 0.72110000  12.010000   ; qtot 1.389998
 3062          o    122    bbb     O1   3062 -0.61950000  16.000000   ; qtot 0.770498
 3063          o    122    bbb     O2   3063 -0.61950000  16.000000   ; qtot 0.150998
 3064          n    122    bbb     N4   3064 -0.46580000  14.010000   ; qtot -0.314802
 3065         hn    122    bbb    H21   3065 0.31480000   1.008000   ; qtot -0.000002
; residue  123 bbb rtp bbb q -0.0
 3066         c3    123    bbb     C1   3066 0.44180000  12.010000   ; qtot 0.441798
 3067         h1    123    bbb     H1   3067 -0.03530000   1.008000   ; qtot 0.406498
 3068         h1    123    bbb     H2   3068 -0.03530000   1.008000   ; qtot 0.371198
 3069         c3    123    bbb     C2   3069 -0.28250000  12.010000   ; qtot 0.088698
 3070         h1    123    bbb     H3   3070 0.15710000   1.008000   ; qtot 0.245798
 3071         h1    123    bbb     H4   3071 0.15710000   1.008000   ; qtot 0.402898
 3072         n3    123    bbb     N1   3072 -0.74090000  14.010000   ; qtot -0.338002
 3073         c3    123    bbb     C3   3073 0.51680000  12.010000   ; qtot 0.178798
 3074         h1    123    bbb     H5   3074 -0.05230000   1.008000   ; qtot 0.126498
 3075         h1    123    bbb     H6   3075 -0.05230000   1.008000   ; qtot 0.074198
 3076         c3    123    bbb     C4   3076 0.51680000  12.010000   ; qtot 0.590998
 3077         h1    123    bbb     H7   3077 -0.05230000   1.008000   ; qtot 0.538698
 3078         h1    123    bbb     H8   3078 -0.05230000   1.008000   ; qtot 0.486398
 3079         c3    123    bbb     C5   3079 -0.60390000  12.010000   ; qtot -0.117502
 3080         hc    123    bbb     H9   3080 0.16730000   1.008000   ; qtot 0.049798
 3081         hc    123    bbb    H10   3081 0.16730000   1.008000   ; qtot 0.217098
 3082         c3    123    bbb     C6   3082 -0.60390000  12.010000   ; qtot -0.386802
 3083         hc    123    bbb    H11   3083 0.16730000   1.008000   ; qtot -0.219502
 3084         hc    123    bbb    H12   3084 0.16730000   1.008000   ; qtot -0.052202
 3085          c    123    bbb     C7   3085 0.72110000  12.010000   ; qtot 0.668898
 3086          c    123    bbb     C8   3086 0.72110000  12.010000   ; qtot 1.389998
 3087          o    123    bbb     O1   3087 -0.61950000  16.000000   ; qtot 0.770498
 3088          o    123    bbb     O2   3088 -0.61950000  16.000000   ; qtot 0.150998
 3089          n    123    bbb     N4   3089 -0.46580000  14.010000   ; qtot -0.314802
 3090         hn    123    bbb    H21   3090 0.31480000   1.008000   ; qtot -0.000002
; residue  124 bbb rtp bbb q -0.0
 3091         c3    124    bbb     C1   3091 0.44180000  12.010000   ; qtot 0.441798
 3092         h1    124    bbb     H1   3092 -0.03530000   1.008000   ; qtot 0.406498
 3093         h1    124    bbb     H2   3093 -0.03530000   1.008000   ; qtot 0.371198
 3094         c3    124    bbb     C2   3094 -0.28250000  12.010000   ; qtot 0.088698
 3095         h1    124    bbb     H3   3095 0.15710000   1.008000   ; qtot 0.245798
 3096         h1    124    bbb     H4   3096 0.15710000   1.008000   ; qtot 0.402898
 3097         n3    124    bbb     N1   3097 -0.74090000  14.010000   ; qtot -0.338002
 3098         c3    124    bbb     C3   3098 0.51680000  12.010000   ; qtot 0.178798
 3099         h1    124    bbb     H5   3099 -0.05230000   1.008000   ; qtot 0.126498
 3100         h1    124    bbb     H6   3100 -0.05230000   1.008000   ; qtot 0.074198
 3101         c3    124    bbb     C4   3101 0.51680000  12.010000   ; qtot 0.590998
 3102         h1    124    bbb     H7   3102 -0.05230000   1.008000   ; qtot 0.538698
 3103         h1    124    bbb     H8   3103 -0.05230000   1.008000   ; qtot 0.486398
 3104         c3    124    bbb     C5   3104 -0.60390000  12.010000   ; qtot -0.117502
 3105         hc    124    bbb     H9   3105 0.16730000   1.008000   ; qtot 0.049798
 3106         hc    124    bbb    H10   3106 0.16730000   1.008000   ; qtot 0.217098
 3107         c3    124    bbb     C6   3107 -0.60390000  12.010000   ; qtot -0.386802
 3108         hc    124    bbb    H11   3108 0.16730000   1.008000   ; qtot -0.219502
 3109         hc    124    bbb    H12   3109 0.16730000   1.008000   ; qtot -0.052202
 3110          c    124    bbb     C7   3110 0.72110000  12.010000   ; qtot 0.668898
 3111          c    124    bbb     C8   3111 0.72110000  12.010000   ; qtot 1.389998
 3112          o    124    bbb     O1   3112 -0.61950000  16.000000   ; qtot 0.770498
 3113          o    124    bbb     O2   3113 -0.61950000  16.000000   ; qtot 0.150998
 3114          n    124    bbb     N4   3114 -0.46580000  14.010000   ; qtot -0.314802
 3115         hn    124    bbb    H21   3115 0.31480000   1.008000   ; qtot -0.000002
; residue  125 bbb rtp bbb q -0.0
 3116         c3    125    bbb     C1   3116 0.44180000  12.010000   ; qtot 0.441798
 3117         h1    125    bbb     H1   3117 -0.03530000   1.008000   ; qtot 0.406498
 3118         h1    125    bbb     H2   3118 -0.03530000   1.008000   ; qtot 0.371198
 3119         c3    125    bbb     C2   3119 -0.28250000  12.010000   ; qtot 0.088698
 3120         h1    125    bbb     H3   3120 0.15710000   1.008000   ; qtot 0.245798
 3121         h1    125    bbb     H4   3121 0.15710000   1.008000   ; qtot 0.402898
 3122         n3    125    bbb     N1   3122 -0.74090000  14.010000   ; qtot -0.338002
 3123         c3    125    bbb     C3   3123 0.51680000  12.010000   ; qtot 0.178798
 3124         h1    125    bbb     H5   3124 -0.05230000   1.008000   ; qtot 0.126498
 3125         h1    125    bbb     H6   3125 -0.05230000   1.008000   ; qtot 0.074198
 3126         c3    125    bbb     C4   3126 0.51680000  12.010000   ; qtot 0.590998
 3127         h1    125    bbb     H7   3127 -0.05230000   1.008000   ; qtot 0.538698
 3128         h1    125    bbb     H8   3128 -0.05230000   1.008000   ; qtot 0.486398
 3129         c3    125    bbb     C5   3129 -0.60390000  12.010000   ; qtot -0.117502
 3130         hc    125    bbb     H9   3130 0.16730000   1.008000   ; qtot 0.049798
 3131         hc    125    bbb    H10   3131 0.16730000   1.008000   ; qtot 0.217098
 3132         c3    125    bbb     C6   3132 -0.60390000  12.010000   ; qtot -0.386802
 3133         hc    125    bbb    H11   3133 0.16730000   1.008000   ; qtot -0.219502
 3134         hc    125    bbb    H12   3134 0.16730000   1.008000   ; qtot -0.052202
 3135          c    125    bbb     C7   3135 0.72110000  12.010000   ; qtot 0.668898
 3136          c    125    bbb     C8   3136 0.72110000  12.010000   ; qtot 1.389998
 3137          o    125    bbb     O1   3137 -0.61950000  16.000000   ; qtot 0.770498
 3138          o    125    bbb     O2   3138 -0.61950000  16.000000   ; qtot 0.150998
 3139          n    125    bbb     N4   3139 -0.46580000  14.010000   ; qtot -0.314802
 3140         hn    125    bbb    H21   3140 0.31480000   1.008000   ; qtot -0.000002
; residue  126 ccc rtp ccc q 1.0
 3141          n    126    ccc     N1   3141 -0.26410000  14.010000   ; qtot -0.264102
 3142         hn    126    ccc     H4   3142 0.27630000   1.008000   ; qtot 0.012198
 3143         c3    126    ccc     C3   3143 -0.17900000  12.010000   ; qtot -0.166802
 3144         c3    126    ccc     C4   3144 0.08000000  12.010000   ; qtot -0.086802
 3145         h1    126    ccc     H5   3145 0.13870000   1.008000   ; qtot 0.051898
 3146         h1    126    ccc     H6   3146 0.13870000   1.008000   ; qtot 0.190598
 3147         hx    126    ccc     H7   3147 0.07790000   1.008000   ; qtot 0.268498
 3148         hx    126    ccc     H8   3148 0.07790000   1.008000   ; qtot 0.346398
 3149         n4    126    ccc     N2   3149 -0.16780000  14.010000   ; qtot 0.178598
 3150         hn    126    ccc     H9   3150 0.27380000   1.008000   ; qtot 0.452398
 3151         hn    126    ccc    H10   3151 0.27380000   1.008000   ; qtot 0.726198
 3152         hn    126    ccc    H11   3152 0.27380000   1.008000   ; qtot 0.999998
; residue  127 ccc rtp ccc q 1.0
 3153          n    127    ccc     N1   3153 -0.26410000  14.010000   ; qtot 0.735898
 3154         hn    127    ccc     H4   3154 0.27630000   1.008000   ; qtot 1.012198
 3155         c3    127    ccc     C3   3155 -0.17900000  12.010000   ; qtot 0.833198
 3156         c3    127    ccc     C4   3156 0.08000000  12.010000   ; qtot 0.913198
 3157         h1    127    ccc     H5   3157 0.13870000   1.008000   ; qtot 1.051898
 3158         h1    127    ccc     H6   3158 0.13870000   1.008000   ; qtot 1.190598
 3159         hx    127    ccc     H7   3159 0.07790000   1.008000   ; qtot 1.268498
 3160         hx    127    ccc     H8   3160 0.07790000   1.008000   ; qtot 1.346398
 3161         n4    127    ccc     N2   3161 -0.16780000  14.010000   ; qtot 1.178598
 3162         hn    127    ccc     H9   3162 0.27380000   1.008000   ; qtot 1.452398
 3163         hn    127    ccc    H10   3163 0.27380000   1.008000   ; qtot 1.726198
 3164         hn    127    ccc    H11   3164 0.27380000   1.008000   ; qtot 1.999998
; residue  128 ccc rtp ccc q 1.0
 3165          n    128    ccc     N1   3165 -0.26410000  14.010000   ; qtot 1.735898
 3166         hn    128    ccc     H4   3166 0.27630000   1.008000   ; qtot 2.012198
 3167         c3    128    ccc     C3   3167 -0.17900000  12.010000   ; qtot 1.833198
 3168         c3    128    ccc     C4   3168 0.08000000  12.010000   ; qtot 1.913198
 3169         h1    128    ccc     H5   3169 0.13870000   1.008000   ; qtot 2.051898
 3170         h1    128    ccc     H6   3170 0.13870000   1.008000   ; qtot 2.190598
 3171         hx    128    ccc     H7   3171 0.07790000   1.008000   ; qtot 2.268498
 3172         hx    128    ccc     H8   3172 0.07790000   1.008000   ; qtot 2.346398
 3173         n4    128    ccc     N2   3173 -0.16780000  14.010000   ; qtot 2.178598
 3174         hn    128    ccc     H9   3174 0.27380000   1.008000   ; qtot 2.452398
 3175         hn    128    ccc    H10   3175 0.27380000   1.008000   ; qtot 2.726198
 3176         hn    128    ccc    H11   3176 0.27380000   1.008000   ; qtot 2.999998
; residue  129 ccc rtp ccc q 1.0
 3177          n    129    ccc     N1   3177 -0.26410000  14.010000   ; qtot 2.735898
 3178         hn    129    ccc     H4   3178 0.27630000   1.008000   ; qtot 3.012198
 3179         c3    129    ccc     C3   3179 -0.17900000  12.010000   ; qtot 2.833198
 3180         c3    129    ccc     C4   3180 0.08000000  12.010000   ; qtot 2.913198
 3181         h1    129    ccc     H5   3181 0.13870000   1.008000   ; qtot 3.051898
 3182         h1    129    ccc     H6   3182 0.13870000   1.008000   ; qtot 3.190598
 3183         hx    129    ccc     H7   3183 0.07790000   1.008000   ; qtot 3.268498
 3184         hx    129    ccc     H8   3184 0.07790000   1.008000   ; qtot 3.346398
 3185         n4    129    ccc     N2   3185 -0.16780000  14.010000   ; qtot 3.178598
 3186         hn    129    ccc     H9   3186 0.27380000   1.008000   ; qtot 3.452398
 3187         hn    129    ccc    H10   3187 0.27380000   1.008000   ; qtot 3.726198
 3188         hn    129    ccc    H11   3188 0.27380000   1.008000   ; qtot 3.999998
; residue  130 ccc rtp ccc q 1.0
 3189          n    130    ccc     N1   3189 -0.26410000  14.010000   ; qtot 3.735898
 3190         hn    130    ccc     H4   3190 0.27630000   1.008000   ; qtot 4.012198
 3191         c3    130    ccc     C3   3191 -0.17900000  12.010000   ; qtot 3.833198
 3192         c3    130    ccc     C4   3192 0.08000000  12.010000   ; qtot 3.913198
 3193         h1    130    ccc     H5   3193 0.13870000   1.008000   ; qtot 4.051898
 3194         h1    130    ccc     H6   3194 0.13870000   1.008000   ; qtot 4.190598
 3195         hx    130    ccc     H7   3195 0.07790000   1.008000   ; qtot 4.268498
 3196         hx    130    ccc     H8   3196 0.07790000   1.008000   ; qtot 4.346398
 3197         n4    130    ccc     N2   3197 -0.16780000  14.010000   ; qtot 4.178598
 3198         hn    130    ccc     H9   3198 0.27380000   1.008000   ; qtot 4.452398
 3199         hn    130    ccc    H10   3199 0.27380000   1.008000   ; qtot 4.726198
 3200         hn    130    ccc    H11   3200 0.27380000   1.008000   ; qtot 4.999998
; residue  131 ccc rtp ccc q 1.0
 3201          n    131    ccc     N1   3201 -0.26410000  14.010000   ; qtot 4.735898
 3202         hn    131    ccc     H4   3202 0.27630000   1.008000   ; qtot 5.012198
 3203         c3    131    ccc     C3   3203 -0.17900000  12.010000   ; qtot 4.833198
 3204         c3    131    ccc     C4   3204 0.08000000  12.010000   ; qtot 4.913198
 3205         h1    131    ccc     H5   3205 0.13870000   1.008000   ; qtot 5.051898
 3206         h1    131    ccc     H6   3206 0.13870000   1.008000   ; qtot 5.190598
 3207         hx    131    ccc     H7   3207 0.07790000   1.008000   ; qtot 5.268498
 3208         hx    131    ccc     H8   3208 0.07790000   1.008000   ; qtot 5.346398
 3209         n4    131    ccc     N2   3209 -0.16780000  14.010000   ; qtot 5.178598
 3210         hn    131    ccc     H9   3210 0.27380000   1.008000   ; qtot 5.452398
 3211         hn    131    ccc    H10   3211 0.27380000   1.008000   ; qtot 5.726198
 3212         hn    131    ccc    H11   3212 0.27380000   1.008000   ; qtot 5.999998
; residue  132 ccc rtp ccc q 1.0
 3213          n    132    ccc     N1   3213 -0.26410000  14.010000   ; qtot 5.735898
 3214         hn    132    ccc     H4   3214 0.27630000   1.008000   ; qtot 6.012198
 3215         c3    132    ccc     C3   3215 -0.17900000  12.010000   ; qtot 5.833198
 3216         c3    132    ccc     C4   3216 0.08000000  12.010000   ; qtot 5.913198
 3217         h1    132    ccc     H5   3217 0.13870000   1.008000   ; qtot 6.051898
 3218         h1    132    ccc     H6   3218 0.13870000   1.008000   ; qtot 6.190598
 3219         hx    132    ccc     H7   3219 0.07790000   1.008000   ; qtot 6.268498
 3220         hx    132    ccc     H8   3220 0.07790000   1.008000   ; qtot 6.346398
 3221         n4    132    ccc     N2   3221 -0.16780000  14.010000   ; qtot 6.178598
 3222         hn    132    ccc     H9   3222 0.27380000   1.008000   ; qtot 6.452398
 3223         hn    132    ccc    H10   3223 0.27380000   1.008000   ; qtot 6.726198
 3224         hn    132    ccc    H11   3224 0.27380000   1.008000   ; qtot 6.999998
; residue  133 ccc rtp ccc q 1.0
 3225          n    133    ccc     N1   3225 -0.26410000  14.010000   ; qtot 6.735898
 3226         hn    133    ccc     H4   3226 0.27630000   1.008000   ; qtot 7.012198
 3227         c3    133    ccc     C3   3227 -0.17900000  12.010000   ; qtot 6.833198
 3228         c3    133    ccc     C4   3228 0.08000000  12.010000   ; qtot 6.913198
 3229         h1    133    ccc     H5   3229 0.13870000   1.008000   ; qtot 7.051898
 3230         h1    133    ccc     H6   3230 0.13870000   1.008000   ; qtot 7.190598
 3231         hx    133    ccc     H7   3231 0.07790000   1.008000   ; qtot 7.268498
 3232         hx    133    ccc     H8   3232 0.07790000   1.008000   ; qtot 7.346398
 3233         n4    133    ccc     N2   3233 -0.16780000  14.010000   ; qtot 7.178598
 3234         hn    133    ccc     H9   3234 0.27380000   1.008000   ; qtot 7.452398
 3235         hn    133    ccc    H10   3235 0.27380000   1.008000   ; qtot 7.726198
 3236         hn    133    ccc    H11   3236 0.27380000   1.008000   ; qtot 7.999998
; residue  134 ccc rtp ccc q 1.0
 3237          n    134    ccc     N1   3237 -0.26410000  14.010000   ; qtot 7.735898
 3238         hn    134    ccc     H4   3238 0.27630000   1.008000   ; qtot 8.012198
 3239         c3    134    ccc     C3   3239 -0.17900000  12.010000   ; qtot 7.833198
 3240         c3    134    ccc     C4   3240 0.08000000  12.010000   ; qtot 7.913198
 3241         h1    134    ccc     H5   3241 0.13870000   1.008000   ; qtot 8.051898
 3242         h1    134    ccc     H6   3242 0.13870000   1.008000   ; qtot 8.190598
 3243         hx    134    ccc     H7   3243 0.07790000   1.008000   ; qtot 8.268498
 3244         hx    134    ccc     H8   3244 0.07790000   1.008000   ; qtot 8.346398
 3245         n4    134    ccc     N2   3245 -0.16780000  14.010000   ; qtot 8.178598
 3246         hn    134    ccc     H9   3246 0.27380000   1.008000   ; qtot 8.452398
 3247         hn    134    ccc    H10   3247 0.27380000   1.008000   ; qtot 8.726198
 3248         hn    134    ccc    H11   3248 0.27380000   1.008000   ; qtot 8.999998
; residue  135 ccc rtp ccc q 1.0
 3249          n    135    ccc     N1   3249 -0.26410000  14.010000   ; qtot 8.735898
 3250         hn    135    ccc     H4   3250 0.27630000   1.008000   ; qtot 9.012198
 3251         c3    135    ccc     C3   3251 -0.17900000  12.010000   ; qtot 8.833198
 3252         c3    135    ccc     C4   3252 0.08000000  12.010000   ; qtot 8.913198
 3253         h1    135    ccc     H5   3253 0.13870000   1.008000   ; qtot 9.051898
 3254         h1    135    ccc     H6   3254 0.13870000   1.008000   ; qtot 9.190598
 3255         hx    135    ccc     H7   3255 0.07790000   1.008000   ; qtot 9.268498
 3256         hx    135    ccc     H8   3256 0.07790000   1.008000   ; qtot 9.346398
 3257         n4    135    ccc     N2   3257 -0.16780000  14.010000   ; qtot 9.178598
 3258         hn    135    ccc     H9   3258 0.27380000   1.008000   ; qtot 9.452398
 3259         hn    135    ccc    H10   3259 0.27380000   1.008000   ; qtot 9.726198
 3260         hn    135    ccc    H11   3260 0.27380000   1.008000   ; qtot 9.999998
; residue  136 ccc rtp ccc q 1.0
 3261          n    136    ccc     N1   3261 -0.26410000  14.010000   ; qtot 9.735898
 3262         hn    136    ccc     H4   3262 0.27630000   1.008000   ; qtot 10.012198
 3263         c3    136    ccc     C3   3263 -0.17900000  12.010000   ; qtot 9.833198
 3264         c3    136    ccc     C4   3264 0.08000000  12.010000   ; qtot 9.913198
 3265         h1    136    ccc     H5   3265 0.13870000   1.008000   ; qtot 10.051898
 3266         h1    136    ccc     H6   3266 0.13870000   1.008000   ; qtot 10.190598
 3267         hx    136    ccc     H7   3267 0.07790000   1.008000   ; qtot 10.268498
 3268         hx    136    ccc     H8   3268 0.07790000   1.008000   ; qtot 10.346398
 3269         n4    136    ccc     N2   3269 -0.16780000  14.010000   ; qtot 10.178598
 3270         hn    136    ccc     H9   3270 0.27380000   1.008000   ; qtot 10.452398
 3271         hn    136    ccc    H10   3271 0.27380000   1.008000   ; qtot 10.726198
 3272         hn    136    ccc    H11   3272 0.27380000   1.008000   ; qtot 10.999998
; residue  137 ccc rtp ccc q 1.0
 3273          n    137    ccc     N1   3273 -0.26410000  14.010000   ; qtot 10.735898
 3274         hn    137    ccc     H4   3274 0.27630000   1.008000   ; qtot 11.012198
 3275         c3    137    ccc     C3   3275 -0.17900000  12.010000   ; qtot 10.833198
 3276         c3    137    ccc     C4   3276 0.08000000  12.010000   ; qtot 10.913198
 3277         h1    137    ccc     H5   3277 0.13870000   1.008000   ; qtot 11.051898
 3278         h1    137    ccc     H6   3278 0.13870000   1.008000   ; qtot 11.190598
 3279         hx    137    ccc     H7   3279 0.07790000   1.008000   ; qtot 11.268498
 3280         hx    137    ccc     H8   3280 0.07790000   1.008000   ; qtot 11.346398
 3281         n4    137    ccc     N2   3281 -0.16780000  14.010000   ; qtot 11.178598
 3282         hn    137    ccc     H9   3282 0.27380000   1.008000   ; qtot 11.452398
 3283         hn    137    ccc    H10   3283 0.27380000   1.008000   ; qtot 11.726198
 3284         hn    137    ccc    H11   3284 0.27380000   1.008000   ; qtot 11.999998
; residue  138 ccc rtp ccc q 1.0
 3285          n    138    ccc     N1   3285 -0.26410000  14.010000   ; qtot 11.735898
 3286         hn    138    ccc     H4   3286 0.27630000   1.008000   ; qtot 12.012198
 3287         c3    138    ccc     C3   3287 -0.17900000  12.010000   ; qtot 11.833198
 3288         c3    138    ccc     C4   3288 0.08000000  12.010000   ; qtot 11.913198
 3289         h1    138    ccc     H5   3289 0.13870000   1.008000   ; qtot 12.051898
 3290         h1    138    ccc     H6   3290 0.13870000   1.008000   ; qtot 12.190598
 3291         hx    138    ccc     H7   3291 0.07790000   1.008000   ; qtot 12.268498
 3292         hx    138    ccc     H8   3292 0.07790000   1.008000   ; qtot 12.346398
 3293         n4    138    ccc     N2   3293 -0.16780000  14.010000   ; qtot 12.178598
 3294         hn    138    ccc     H9   3294 0.27380000   1.008000   ; qtot 12.452398
 3295         hn    138    ccc    H10   3295 0.27380000   1.008000   ; qtot 12.726198
 3296         hn    138    ccc    H11   3296 0.27380000   1.008000   ; qtot 12.999998
; residue  139 ccc rtp ccc q 1.0
 3297          n    139    ccc     N1   3297 -0.26410000  14.010000   ; qtot 12.735898
 3298         hn    139    ccc     H4   3298 0.27630000   1.008000   ; qtot 13.012198
 3299         c3    139    ccc     C3   3299 -0.17900000  12.010000   ; qtot 12.833198
 3300         c3    139    ccc     C4   3300 0.08000000  12.010000   ; qtot 12.913198
 3301         h1    139    ccc     H5   3301 0.13870000   1.008000   ; qtot 13.051898
 3302         h1    139    ccc     H6   3302 0.13870000   1.008000   ; qtot 13.190598
 3303         hx    139    ccc     H7   3303 0.07790000   1.008000   ; qtot 13.268498
 3304         hx    139    ccc     H8   3304 0.07790000   1.008000   ; qtot 13.346398
 3305         n4    139    ccc     N2   3305 -0.16780000  14.010000   ; qtot 13.178598
 3306         hn    139    ccc     H9   3306 0.27380000   1.008000   ; qtot 13.452398
 3307         hn    139    ccc    H10   3307 0.27380000   1.008000   ; qtot 13.726198
 3308         hn    139    ccc    H11   3308 0.27380000   1.008000   ; qtot 13.999998
; residue  140 ccc rtp ccc q 1.0
 3309          n    140    ccc     N1   3309 -0.26410000  14.010000   ; qtot 13.735898
 3310         hn    140    ccc     H4   3310 0.27630000   1.008000   ; qtot 14.012198
 3311         c3    140    ccc     C3   3311 -0.17900000  12.010000   ; qtot 13.833198
 3312         c3    140    ccc     C4   3312 0.08000000  12.010000   ; qtot 13.913198
 3313         h1    140    ccc     H5   3313 0.13870000   1.008000   ; qtot 14.051898
 3314         h1    140    ccc     H6   3314 0.13870000   1.008000   ; qtot 14.190598
 3315         hx    140    ccc     H7   3315 0.07790000   1.008000   ; qtot 14.268498
 3316         hx    140    ccc     H8   3316 0.07790000   1.008000   ; qtot 14.346398
 3317         n4    140    ccc     N2   3317 -0.16780000  14.010000   ; qtot 14.178598
 3318         hn    140    ccc     H9   3318 0.27380000   1.008000   ; qtot 14.452398
 3319         hn    140    ccc    H10   3319 0.27380000   1.008000   ; qtot 14.726198
 3320         hn    140    ccc    H11   3320 0.27380000   1.008000   ; qtot 14.999998
; residue  141 ccc rtp ccc q 1.0
 3321          n    141    ccc     N1   3321 -0.26410000  14.010000   ; qtot 14.735898
 3322         hn    141    ccc     H4   3322 0.27630000   1.008000   ; qtot 15.012198
 3323         c3    141    ccc     C3   3323 -0.17900000  12.010000   ; qtot 14.833198
 3324         c3    141    ccc     C4   3324 0.08000000  12.010000   ; qtot 14.913198
 3325         h1    141    ccc     H5   3325 0.13870000   1.008000   ; qtot 15.051898
 3326         h1    141    ccc     H6   3326 0.13870000   1.008000   ; qtot 15.190598
 3327         hx    141    ccc     H7   3327 0.07790000   1.008000   ; qtot 15.268498
 3328         hx    141    ccc     H8   3328 0.07790000   1.008000   ; qtot 15.346398
 3329         n4    141    ccc     N2   3329 -0.16780000  14.010000   ; qtot 15.178598
 3330         hn    141    ccc     H9   3330 0.27380000   1.008000   ; qtot 15.452398
 3331         hn    141    ccc    H10   3331 0.27380000   1.008000   ; qtot 15.726198
 3332         hn    141    ccc    H11   3332 0.27380000   1.008000   ; qtot 15.999998
; residue  142 ccc rtp ccc q 1.0
 3333          n    142    ccc     N1   3333 -0.26410000  14.010000   ; qtot 15.735898
 3334         hn    142    ccc     H4   3334 0.27630000   1.008000   ; qtot 16.012198
 3335         c3    142    ccc     C3   3335 -0.17900000  12.010000   ; qtot 15.833198
 3336         c3    142    ccc     C4   3336 0.08000000  12.010000   ; qtot 15.913198
 3337         h1    142    ccc     H5   3337 0.13870000   1.008000   ; qtot 16.051898
 3338         h1    142    ccc     H6   3338 0.13870000   1.008000   ; qtot 16.190598
 3339         hx    142    ccc     H7   3339 0.07790000   1.008000   ; qtot 16.268498
 3340         hx    142    ccc     H8   3340 0.07790000   1.008000   ; qtot 16.346398
 3341         n4    142    ccc     N2   3341 -0.16780000  14.010000   ; qtot 16.178598
 3342         hn    142    ccc     H9   3342 0.27380000   1.008000   ; qtot 16.452398
 3343         hn    142    ccc    H10   3343 0.27380000   1.008000   ; qtot 16.726198
 3344         hn    142    ccc    H11   3344 0.27380000   1.008000   ; qtot 16.999998
; residue  143 ccc rtp ccc q 1.0
 3345          n    143    ccc     N1   3345 -0.26410000  14.010000   ; qtot 16.735898
 3346         hn    143    ccc     H4   3346 0.27630000   1.008000   ; qtot 17.012198
 3347         c3    143    ccc     C3   3347 -0.17900000  12.010000   ; qtot 16.833198
 3348         c3    143    ccc     C4   3348 0.08000000  12.010000   ; qtot 16.913198
 3349         h1    143    ccc     H5   3349 0.13870000   1.008000   ; qtot 17.051898
 3350         h1    143    ccc     H6   3350 0.13870000   1.008000   ; qtot 17.190598
 3351         hx    143    ccc     H7   3351 0.07790000   1.008000   ; qtot 17.268498
 3352         hx    143    ccc     H8   3352 0.07790000   1.008000   ; qtot 17.346398
 3353         n4    143    ccc     N2   3353 -0.16780000  14.010000   ; qtot 17.178598
 3354         hn    143    ccc     H9   3354 0.27380000   1.008000   ; qtot 17.452398
 3355         hn    143    ccc    H10   3355 0.27380000   1.008000   ; qtot 17.726198
 3356         hn    143    ccc    H11   3356 0.27380000   1.008000   ; qtot 17.999998
; residue  144 ccc rtp ccc q 1.0
 3357          n    144    ccc     N1   3357 -0.26410000  14.010000   ; qtot 17.735898
 3358         hn    144    ccc     H4   3358 0.27630000   1.008000   ; qtot 18.012198
 3359         c3    144    ccc     C3   3359 -0.17900000  12.010000   ; qtot 17.833198
 3360         c3    144    ccc     C4   3360 0.08000000  12.010000   ; qtot 17.913198
 3361         h1    144    ccc     H5   3361 0.13870000   1.008000   ; qtot 18.051898
 3362         h1    144    ccc     H6   3362 0.13870000   1.008000   ; qtot 18.190598
 3363         hx    144    ccc     H7   3363 0.07790000   1.008000   ; qtot 18.268498
 3364         hx    144    ccc     H8   3364 0.07790000   1.008000   ; qtot 18.346398
 3365         n4    144    ccc     N2   3365 -0.16780000  14.010000   ; qtot 18.178598
 3366         hn    144    ccc     H9   3366 0.27380000   1.008000   ; qtot 18.452398
 3367         hn    144    ccc    H10   3367 0.27380000   1.008000   ; qtot 18.726198
 3368         hn    144    ccc    H11   3368 0.27380000   1.008000   ; qtot 18.999998
; residue  145 ccc rtp ccc q 1.0
 3369          n    145    ccc     N1   3369 -0.26410000  14.010000   ; qtot 18.735898
 3370         hn    145    ccc     H4   3370 0.27630000   1.008000   ; qtot 19.012198
 3371         c3    145    ccc     C3   3371 -0.17900000  12.010000   ; qtot 18.833198
 3372         c3    145    ccc     C4   3372 0.08000000  12.010000   ; qtot 18.913198
 3373         h1    145    ccc     H5   3373 0.13870000   1.008000   ; qtot 19.051898
 3374         h1    145    ccc     H6   3374 0.13870000   1.008000   ; qtot 19.190598
 3375         hx    145    ccc     H7   3375 0.07790000   1.008000   ; qtot 19.268498
 3376         hx    145    ccc     H8   3376 0.07790000   1.008000   ; qtot 19.346398
 3377         n4    145    ccc     N2   3377 -0.16780000  14.010000   ; qtot 19.178598
 3378         hn    145    ccc     H9   3378 0.27380000   1.008000   ; qtot 19.452398
 3379         hn    145    ccc    H10   3379 0.27380000   1.008000   ; qtot 19.726198
 3380         hn    145    ccc    H11   3380 0.27380000   1.008000   ; qtot 19.999998
; residue  146 ccc rtp ccc q 1.0
 3381          n    146    ccc     N1   3381 -0.26410000  14.010000   ; qtot 19.735898
 3382         hn    146    ccc     H4   3382 0.27630000   1.008000   ; qtot 20.012198
 3383         c3    146    ccc     C3   3383 -0.17900000  12.010000   ; qtot 19.833198
 3384         c3    146    ccc     C4   3384 0.08000000  12.010000   ; qtot 19.913198
 3385         h1    146    ccc     H5   3385 0.13870000   1.008000   ; qtot 20.051898
 3386         h1    146    ccc     H6   3386 0.13870000   1.008000   ; qtot 20.190598
 3387         hx    146    ccc     H7   3387 0.07790000   1.008000   ; qtot 20.268498
 3388         hx    146    ccc     H8   3388 0.07790000   1.008000   ; qtot 20.346398
 3389         n4    146    ccc     N2   3389 -0.16780000  14.010000   ; qtot 20.178598
 3390         hn    146    ccc     H9   3390 0.27380000   1.008000   ; qtot 20.452398
 3391         hn    146    ccc    H10   3391 0.27380000   1.008000   ; qtot 20.726198
 3392         hn    146    ccc    H11   3392 0.27380000   1.008000   ; qtot 20.999998
; residue  147 ccc rtp ccc q 1.0
 3393          n    147    ccc     N1   3393 -0.26410000  14.010000   ; qtot 20.735898
 3394         hn    147    ccc     H4   3394 0.27630000   1.008000   ; qtot 21.012198
 3395         c3    147    ccc     C3   3395 -0.17900000  12.010000   ; qtot 20.833198
 3396         c3    147    ccc     C4   3396 0.08000000  12.010000   ; qtot 20.913198
 3397         h1    147    ccc     H5   3397 0.13870000   1.008000   ; qtot 21.051898
 3398         h1    147    ccc     H6   3398 0.13870000   1.008000   ; qtot 21.190598
 3399         hx    147    ccc     H7   3399 0.07790000   1.008000   ; qtot 21.268498
 3400         hx    147    ccc     H8   3400 0.07790000   1.008000   ; qtot 21.346398
 3401         n4    147    ccc     N2   3401 -0.16780000  14.010000   ; qtot 21.178598
 3402         hn    147    ccc     H9   3402 0.27380000   1.008000   ; qtot 21.452398
 3403         hn    147    ccc    H10   3403 0.27380000   1.008000   ; qtot 21.726198
 3404         hn    147    ccc    H11   3404 0.27380000   1.008000   ; qtot 21.999998
; residue  148 ccc rtp ccc q 1.0
 3405          n    148    ccc     N1   3405 -0.26410000  14.010000   ; qtot 21.735898
 3406         hn    148    ccc     H4   3406 0.27630000   1.008000   ; qtot 22.012198
 3407         c3    148    ccc     C3   3407 -0.17900000  12.010000   ; qtot 21.833198
 3408         c3    148    ccc     C4   3408 0.08000000  12.010000   ; qtot 21.913198
 3409         h1    148    ccc     H5   3409 0.13870000   1.008000   ; qtot 22.051898
 3410         h1    148    ccc     H6   3410 0.13870000   1.008000   ; qtot 22.190598
 3411         hx    148    ccc     H7   3411 0.07790000   1.008000   ; qtot 22.268498
 3412         hx    148    ccc     H8   3412 0.07790000   1.008000   ; qtot 22.346398
 3413         n4    148    ccc     N2   3413 -0.16780000  14.010000   ; qtot 22.178598
 3414         hn    148    ccc     H9   3414 0.27380000   1.008000   ; qtot 22.452398
 3415         hn    148    ccc    H10   3415 0.27380000   1.008000   ; qtot 22.726198
 3416         hn    148    ccc    H11   3416 0.27380000   1.008000   ; qtot 22.999998
; residue  149 ccc rtp ccc q 1.0
 3417          n    149    ccc     N1   3417 -0.26410000  14.010000   ; qtot 22.735898
 3418         hn    149    ccc     H4   3418 0.27630000   1.008000   ; qtot 23.012198
 3419         c3    149    ccc     C3   3419 -0.17900000  12.010000   ; qtot 22.833198
 3420         c3    149    ccc     C4   3420 0.08000000  12.010000   ; qtot 22.913198
 3421         h1    149    ccc     H5   3421 0.13870000   1.008000   ; qtot 23.051898
 3422         h1    149    ccc     H6   3422 0.13870000   1.008000   ; qtot 23.190598
 3423         hx    149    ccc     H7   3423 0.07790000   1.008000   ; qtot 23.268498
 3424         hx    149    ccc     H8   3424 0.07790000   1.008000   ; qtot 23.346398
 3425         n4    149    ccc     N2   3425 -0.16780000  14.010000   ; qtot 23.178598
 3426         hn    149    ccc     H9   3426 0.27380000   1.008000   ; qtot 23.452398
 3427         hn    149    ccc    H10   3427 0.27380000   1.008000   ; qtot 23.726198
 3428         hn    149    ccc    H11   3428 0.27380000   1.008000   ; qtot 23.999998
; residue  150 ccc rtp ccc q 1.0
 3429          n    150    ccc     N1   3429 -0.26410000  14.010000   ; qtot 23.735898
 3430         hn    150    ccc     H4   3430 0.27630000   1.008000   ; qtot 24.012198
 3431         c3    150    ccc     C3   3431 -0.17900000  12.010000   ; qtot 23.833198
 3432         c3    150    ccc     C4   3432 0.08000000  12.010000   ; qtot 23.913198
 3433         h1    150    ccc     H5   3433 0.13870000   1.008000   ; qtot 24.051898
 3434         h1    150    ccc     H6   3434 0.13870000   1.008000   ; qtot 24.190598
 3435         hx    150    ccc     H7   3435 0.07790000   1.008000   ; qtot 24.268498
 3436         hx    150    ccc     H8   3436 0.07790000   1.008000   ; qtot 24.346398
 3437         n4    150    ccc     N2   3437 -0.16780000  14.010000   ; qtot 24.178598
 3438         hn    150    ccc     H9   3438 0.27380000   1.008000   ; qtot 24.452398
 3439         hn    150    ccc    H10   3439 0.27380000   1.008000   ; qtot 24.726198
 3440         hn    150    ccc    H11   3440 0.27380000   1.008000   ; qtot 24.999998
; residue  151 ccc rtp ccc q 1.0
 3441          n    151    ccc     N1   3441 -0.26410000  14.010000   ; qtot 24.735898
 3442         hn    151    ccc     H4   3442 0.27630000   1.008000   ; qtot 25.012198
 3443         c3    151    ccc     C3   3443 -0.17900000  12.010000   ; qtot 24.833198
 3444         c3    151    ccc     C4   3444 0.08000000  12.010000   ; qtot 24.913198
 3445         h1    151    ccc     H5   3445 0.13870000   1.008000   ; qtot 25.051898
 3446         h1    151    ccc     H6   3446 0.13870000   1.008000   ; qtot 25.190598
 3447         hx    151    ccc     H7   3447 0.07790000   1.008000   ; qtot 25.268498
 3448         hx    151    ccc     H8   3448 0.07790000   1.008000   ; qtot 25.346398
 3449         n4    151    ccc     N2   3449 -0.16780000  14.010000   ; qtot 25.178598
 3450         hn    151    ccc     H9   3450 0.27380000   1.008000   ; qtot 25.452398
 3451         hn    151    ccc    H10   3451 0.27380000   1.008000   ; qtot 25.726198
 3452         hn    151    ccc    H11   3452 0.27380000   1.008000   ; qtot 25.999998
; residue  152 ccc rtp ccc q 1.0
 3453          n    152    ccc     N1   3453 -0.26410000  14.010000   ; qtot 25.735898
 3454         hn    152    ccc     H4   3454 0.27630000   1.008000   ; qtot 26.012198
 3455         c3    152    ccc     C3   3455 -0.17900000  12.010000   ; qtot 25.833198
 3456         c3    152    ccc     C4   3456 0.08000000  12.010000   ; qtot 25.913198
 3457         h1    152    ccc     H5   3457 0.13870000   1.008000   ; qtot 26.051898
 3458         h1    152    ccc     H6   3458 0.13870000   1.008000   ; qtot 26.190598
 3459         hx    152    ccc     H7   3459 0.07790000   1.008000   ; qtot 26.268498
 3460         hx    152    ccc     H8   3460 0.07790000   1.008000   ; qtot 26.346398
 3461         n4    152    ccc     N2   3461 -0.16780000  14.010000   ; qtot 26.178598
 3462         hn    152    ccc     H9   3462 0.27380000   1.008000   ; qtot 26.452398
 3463         hn    152    ccc    H10   3463 0.27380000   1.008000   ; qtot 26.726198
 3464         hn    152    ccc    H11   3464 0.27380000   1.008000   ; qtot 26.999998
; residue  153 ccc rtp ccc q 1.0
 3465          n    153    ccc     N1   3465 -0.26410000  14.010000   ; qtot 26.735898
 3466         hn    153    ccc     H4   3466 0.27630000   1.008000   ; qtot 27.012198
 3467         c3    153    ccc     C3   3467 -0.17900000  12.010000   ; qtot 26.833198
 3468         c3    153    ccc     C4   3468 0.08000000  12.010000   ; qtot 26.913198
 3469         h1    153    ccc     H5   3469 0.13870000   1.008000   ; qtot 27.051898
 3470         h1    153    ccc     H6   3470 0.13870000   1.008000   ; qtot 27.190598
 3471         hx    153    ccc     H7   3471 0.07790000   1.008000   ; qtot 27.268498
 3472         hx    153    ccc     H8   3472 0.07790000   1.008000   ; qtot 27.346398
 3473         n4    153    ccc     N2   3473 -0.16780000  14.010000   ; qtot 27.178598
 3474         hn    153    ccc     H9   3474 0.27380000   1.008000   ; qtot 27.452398
 3475         hn    153    ccc    H10   3475 0.27380000   1.008000   ; qtot 27.726198
 3476         hn    153    ccc    H11   3476 0.27380000   1.008000   ; qtot 27.999998
; residue  154 ccc rtp ccc q 1.0
 3477          n    154    ccc     N1   3477 -0.26410000  14.010000   ; qtot 27.735898
 3478         hn    154    ccc     H4   3478 0.27630000   1.008000   ; qtot 28.012198
 3479         c3    154    ccc     C3   3479 -0.17900000  12.010000   ; qtot 27.833198
 3480         c3    154    ccc     C4   3480 0.08000000  12.010000   ; qtot 27.913198
 3481         h1    154    ccc     H5   3481 0.13870000   1.008000   ; qtot 28.051898
 3482         h1    154    ccc     H6   3482 0.13870000   1.008000   ; qtot 28.190598
 3483         hx    154    ccc     H7   3483 0.07790000   1.008000   ; qtot 28.268498
 3484         hx    154    ccc     H8   3484 0.07790000   1.008000   ; qtot 28.346398
 3485         n4    154    ccc     N2   3485 -0.16780000  14.010000   ; qtot 28.178598
 3486         hn    154    ccc     H9   3486 0.27380000   1.008000   ; qtot 28.452398
 3487         hn    154    ccc    H10   3487 0.27380000   1.008000   ; qtot 28.726198
 3488         hn    154    ccc    H11   3488 0.27380000   1.008000   ; qtot 28.999998
; residue  155 ccc rtp ccc q 1.0
 3489          n    155    ccc     N1   3489 -0.26410000  14.010000   ; qtot 28.735898
 3490         hn    155    ccc     H4   3490 0.27630000   1.008000   ; qtot 29.012198
 3491         c3    155    ccc     C3   3491 -0.17900000  12.010000   ; qtot 28.833198
 3492         c3    155    ccc     C4   3492 0.08000000  12.010000   ; qtot 28.913198
 3493         h1    155    ccc     H5   3493 0.13870000   1.008000   ; qtot 29.051898
 3494         h1    155    ccc     H6   3494 0.13870000   1.008000   ; qtot 29.190598
 3495         hx    155    ccc     H7   3495 0.07790000   1.008000   ; qtot 29.268498
 3496         hx    155    ccc     H8   3496 0.07790000   1.008000   ; qtot 29.346398
 3497         n4    155    ccc     N2   3497 -0.16780000  14.010000   ; qtot 29.178598
 3498         hn    155    ccc     H9   3498 0.27380000   1.008000   ; qtot 29.452398
 3499         hn    155    ccc    H10   3499 0.27380000   1.008000   ; qtot 29.726198
 3500         hn    155    ccc    H11   3500 0.27380000   1.008000   ; qtot 29.999998
; residue  156 ccc rtp ccc q 1.0
 3501          n    156    ccc     N1   3501 -0.26410000  14.010000   ; qtot 29.735898
 3502         hn    156    ccc     H4   3502 0.27630000   1.008000   ; qtot 30.012198
 3503         c3    156    ccc     C3   3503 -0.17900000  12.010000   ; qtot 29.833198
 3504         c3    156    ccc     C4   3504 0.08000000  12.010000   ; qtot 29.913198
 3505         h1    156    ccc     H5   3505 0.13870000   1.008000   ; qtot 30.051898
 3506         h1    156    ccc     H6   3506 0.13870000   1.008000   ; qtot 30.190598
 3507         hx    156    ccc     H7   3507 0.07790000   1.008000   ; qtot 30.268498
 3508         hx    156    ccc     H8   3508 0.07790000   1.008000   ; qtot 30.346398
 3509         n4    156    ccc     N2   3509 -0.16780000  14.010000   ; qtot 30.178598
 3510         hn    156    ccc     H9   3510 0.27380000   1.008000   ; qtot 30.452398
 3511         hn    156    ccc    H10   3511 0.27380000   1.008000   ; qtot 30.726198
 3512         hn    156    ccc    H11   3512 0.27380000   1.008000   ; qtot 30.999998
; residue  157 ccc rtp ccc q 1.0
 3513          n    157    ccc     N1   3513 -0.26410000  14.010000   ; qtot 30.735898
 3514         hn    157    ccc     H4   3514 0.27630000   1.008000   ; qtot 31.012198
 3515         c3    157    ccc     C3   3515 -0.17900000  12.010000   ; qtot 30.833198
 3516         c3    157    ccc     C4   3516 0.08000000  12.010000   ; qtot 30.913198
 3517         h1    157    ccc     H5   3517 0.13870000   1.008000   ; qtot 31.051898
 3518         h1    157    ccc     H6   3518 0.13870000   1.008000   ; qtot 31.190598
 3519         hx    157    ccc     H7   3519 0.07790000   1.008000   ; qtot 31.268498
 3520         hx    157    ccc     H8   3520 0.07790000   1.008000   ; qtot 31.346398
 3521         n4    157    ccc     N2   3521 -0.16780000  14.010000   ; qtot 31.178598
 3522         hn    157    ccc     H9   3522 0.27380000   1.008000   ; qtot 31.452398
 3523         hn    157    ccc    H10   3523 0.27380000   1.008000   ; qtot 31.726198
 3524         hn    157    ccc    H11   3524 0.27380000   1.008000   ; qtot 31.999998
; residue  158 ccc rtp ccc q 1.0
 3525          n    158    ccc     N1   3525 -0.26410000  14.010000   ; qtot 31.735898
 3526         hn    158    ccc     H4   3526 0.27630000   1.008000   ; qtot 32.012198
 3527         c3    158    ccc     C3   3527 -0.17900000  12.010000   ; qtot 31.833198
 3528         c3    158    ccc     C4   3528 0.08000000  12.010000   ; qtot 31.913198
 3529         h1    158    ccc     H5   3529 0.13870000   1.008000   ; qtot 32.051898
 3530         h1    158    ccc     H6   3530 0.13870000   1.008000   ; qtot 32.190598
 3531         hx    158    ccc     H7   3531 0.07790000   1.008000   ; qtot 32.268498
 3532         hx    158    ccc     H8   3532 0.07790000   1.008000   ; qtot 32.346398
 3533         n4    158    ccc     N2   3533 -0.16780000  14.010000   ; qtot 32.178598
 3534         hn    158    ccc     H9   3534 0.27380000   1.008000   ; qtot 32.452398
 3535         hn    158    ccc    H10   3535 0.27380000   1.008000   ; qtot 32.726198
 3536         hn    158    ccc    H11   3536 0.27380000   1.008000   ; qtot 32.999998
; residue  159 ccc rtp ccc q 1.0
 3537          n    159    ccc     N1   3537 -0.26410000  14.010000   ; qtot 32.735898
 3538         hn    159    ccc     H4   3538 0.27630000   1.008000   ; qtot 33.012198
 3539         c3    159    ccc     C3   3539 -0.17900000  12.010000   ; qtot 32.833198
 3540         c3    159    ccc     C4   3540 0.08000000  12.010000   ; qtot 32.913198
 3541         h1    159    ccc     H5   3541 0.13870000   1.008000   ; qtot 33.051898
 3542         h1    159    ccc     H6   3542 0.13870000   1.008000   ; qtot 33.190598
 3543         hx    159    ccc     H7   3543 0.07790000   1.008000   ; qtot 33.268498
 3544         hx    159    ccc     H8   3544 0.07790000   1.008000   ; qtot 33.346398
 3545         n4    159    ccc     N2   3545 -0.16780000  14.010000   ; qtot 33.178598
 3546         hn    159    ccc     H9   3546 0.27380000   1.008000   ; qtot 33.452398
 3547         hn    159    ccc    H10   3547 0.27380000   1.008000   ; qtot 33.726198
 3548         hn    159    ccc    H11   3548 0.27380000   1.008000   ; qtot 33.999998
; residue  160 ccc rtp ccc q 1.0
 3549          n    160    ccc     N1   3549 -0.26410000  14.010000   ; qtot 33.735898
 3550         hn    160    ccc     H4   3550 0.27630000   1.008000   ; qtot 34.012198
 3551         c3    160    ccc     C3   3551 -0.17900000  12.010000   ; qtot 33.833198
 3552         c3    160    ccc     C4   3552 0.08000000  12.010000   ; qtot 33.913198
 3553         h1    160    ccc     H5   3553 0.13870000   1.008000   ; qtot 34.051898
 3554         h1    160    ccc     H6   3554 0.13870000   1.008000   ; qtot 34.190598
 3555         hx    160    ccc     H7   3555 0.07790000   1.008000   ; qtot 34.268498
 3556         hx    160    ccc     H8   3556 0.07790000   1.008000   ; qtot 34.346398
 3557         n4    160    ccc     N2   3557 -0.16780000  14.010000   ; qtot 34.178598
 3558         hn    160    ccc     H9   3558 0.27380000   1.008000   ; qtot 34.452398
 3559         hn    160    ccc    H10   3559 0.27380000   1.008000   ; qtot 34.726198
 3560         hn    160    ccc    H11   3560 0.27380000   1.008000   ; qtot 34.999998
; residue  161 ccc rtp ccc q 1.0
 3561          n    161    ccc     N1   3561 -0.26410000  14.010000   ; qtot 34.735898
 3562         hn    161    ccc     H4   3562 0.27630000   1.008000   ; qtot 35.012198
 3563         c3    161    ccc     C3   3563 -0.17900000  12.010000   ; qtot 34.833198
 3564         c3    161    ccc     C4   3564 0.08000000  12.010000   ; qtot 34.913198
 3565         h1    161    ccc     H5   3565 0.13870000   1.008000   ; qtot 35.051898
 3566         h1    161    ccc     H6   3566 0.13870000   1.008000   ; qtot 35.190598
 3567         hx    161    ccc     H7   3567 0.07790000   1.008000   ; qtot 35.268498
 3568         hx    161    ccc     H8   3568 0.07790000   1.008000   ; qtot 35.346398
 3569         n4    161    ccc     N2   3569 -0.16780000  14.010000   ; qtot 35.178598
 3570         hn    161    ccc     H9   3570 0.27380000   1.008000   ; qtot 35.452398
 3571         hn    161    ccc    H10   3571 0.27380000   1.008000   ; qtot 35.726198
 3572         hn    161    ccc    H11   3572 0.27380000   1.008000   ; qtot 35.999998
; residue  162 ccc rtp ccc q 1.0
 3573          n    162    ccc     N1   3573 -0.26410000  14.010000   ; qtot 35.735898
 3574         hn    162    ccc     H4   3574 0.27630000   1.008000   ; qtot 36.012198
 3575         c3    162    ccc     C3   3575 -0.17900000  12.010000   ; qtot 35.833198
 3576         c3    162    ccc     C4   3576 0.08000000  12.010000   ; qtot 35.913198
 3577         h1    162    ccc     H5   3577 0.13870000   1.008000   ; qtot 36.051898
 3578         h1    162    ccc     H6   3578 0.13870000   1.008000   ; qtot 36.190598
 3579         hx    162    ccc     H7   3579 0.07790000   1.008000   ; qtot 36.268498
 3580         hx    162    ccc     H8   3580 0.07790000   1.008000   ; qtot 36.346398
 3581         n4    162    ccc     N2   3581 -0.16780000  14.010000   ; qtot 36.178598
 3582         hn    162    ccc     H9   3582 0.27380000   1.008000   ; qtot 36.452398
 3583         hn    162    ccc    H10   3583 0.27380000   1.008000   ; qtot 36.726198
 3584         hn    162    ccc    H11   3584 0.27380000   1.008000   ; qtot 36.999998
; residue  163 ccc rtp ccc q 1.0
 3585          n    163    ccc     N1   3585 -0.26410000  14.010000   ; qtot 36.735898
 3586         hn    163    ccc     H4   3586 0.27630000   1.008000   ; qtot 37.012198
 3587         c3    163    ccc     C3   3587 -0.17900000  12.010000   ; qtot 36.833198
 3588         c3    163    ccc     C4   3588 0.08000000  12.010000   ; qtot 36.913198
 3589         h1    163    ccc     H5   3589 0.13870000   1.008000   ; qtot 37.051898
 3590         h1    163    ccc     H6   3590 0.13870000   1.008000   ; qtot 37.190598
 3591         hx    163    ccc     H7   3591 0.07790000   1.008000   ; qtot 37.268498
 3592         hx    163    ccc     H8   3592 0.07790000   1.008000   ; qtot 37.346398
 3593         n4    163    ccc     N2   3593 -0.16780000  14.010000   ; qtot 37.178598
 3594         hn    163    ccc     H9   3594 0.27380000   1.008000   ; qtot 37.452398
 3595         hn    163    ccc    H10   3595 0.27380000   1.008000   ; qtot 37.726198
 3596         hn    163    ccc    H11   3596 0.27380000   1.008000   ; qtot 37.999998
; residue  164 ccc rtp ccc q 1.0
 3597          n    164    ccc     N1   3597 -0.26410000  14.010000   ; qtot 37.735898
 3598         hn    164    ccc     H4   3598 0.27630000   1.008000   ; qtot 38.012198
 3599         c3    164    ccc     C3   3599 -0.17900000  12.010000   ; qtot 37.833198
 3600         c3    164    ccc     C4   3600 0.08000000  12.010000   ; qtot 37.913198
 3601         h1    164    ccc     H5   3601 0.13870000   1.008000   ; qtot 38.051898
 3602         h1    164    ccc     H6   3602 0.13870000   1.008000   ; qtot 38.190598
 3603         hx    164    ccc     H7   3603 0.07790000   1.008000   ; qtot 38.268498
 3604         hx    164    ccc     H8   3604 0.07790000   1.008000   ; qtot 38.346398
 3605         n4    164    ccc     N2   3605 -0.16780000  14.010000   ; qtot 38.178598
 3606         hn    164    ccc     H9   3606 0.27380000   1.008000   ; qtot 38.452398
 3607         hn    164    ccc    H10   3607 0.27380000   1.008000   ; qtot 38.726198
 3608         hn    164    ccc    H11   3608 0.27380000   1.008000   ; qtot 38.999998
; residue  165 ccc rtp ccc q 1.0
 3609          n    165    ccc     N1   3609 -0.26410000  14.010000   ; qtot 38.735898
 3610         hn    165    ccc     H4   3610 0.27630000   1.008000   ; qtot 39.012198
 3611         c3    165    ccc     C3   3611 -0.17900000  12.010000   ; qtot 38.833198
 3612         c3    165    ccc     C4   3612 0.08000000  12.010000   ; qtot 38.913198
 3613         h1    165    ccc     H5   3613 0.13870000   1.008000   ; qtot 39.051898
 3614         h1    165    ccc     H6   3614 0.13870000   1.008000   ; qtot 39.190598
 3615         hx    165    ccc     H7   3615 0.07790000   1.008000   ; qtot 39.268498
 3616         hx    165    ccc     H8   3616 0.07790000   1.008000   ; qtot 39.346398
 3617         n4    165    ccc     N2   3617 -0.16780000  14.010000   ; qtot 39.178598
 3618         hn    165    ccc     H9   3618 0.27380000   1.008000   ; qtot 39.452398
 3619         hn    165    ccc    H10   3619 0.27380000   1.008000   ; qtot 39.726198
 3620         hn    165    ccc    H11   3620 0.27380000   1.008000   ; qtot 39.999998
; residue  166 ccc rtp ccc q 1.0
 3621          n    166    ccc     N1   3621 -0.26410000  14.010000   ; qtot 39.735898
 3622         hn    166    ccc     H4   3622 0.27630000   1.008000   ; qtot 40.012198
 3623         c3    166    ccc     C3   3623 -0.17900000  12.010000   ; qtot 39.833198
 3624         c3    166    ccc     C4   3624 0.08000000  12.010000   ; qtot 39.913198
 3625         h1    166    ccc     H5   3625 0.13870000   1.008000   ; qtot 40.051898
 3626         h1    166    ccc     H6   3626 0.13870000   1.008000   ; qtot 40.190598
 3627         hx    166    ccc     H7   3627 0.07790000   1.008000   ; qtot 40.268498
 3628         hx    166    ccc     H8   3628 0.07790000   1.008000   ; qtot 40.346398
 3629         n4    166    ccc     N2   3629 -0.16780000  14.010000   ; qtot 40.178598
 3630         hn    166    ccc     H9   3630 0.27380000   1.008000   ; qtot 40.452398
 3631         hn    166    ccc    H10   3631 0.27380000   1.008000   ; qtot 40.726198
 3632         hn    166    ccc    H11   3632 0.27380000   1.008000   ; qtot 40.999998
; residue  167 ccc rtp ccc q 1.0
 3633          n    167    ccc     N1   3633 -0.26410000  14.010000   ; qtot 40.735898
 3634         hn    167    ccc     H4   3634 0.27630000   1.008000   ; qtot 41.012198
 3635         c3    167    ccc     C3   3635 -0.17900000  12.010000   ; qtot 40.833198
 3636         c3    167    ccc     C4   3636 0.08000000  12.010000   ; qtot 40.913198
 3637         h1    167    ccc     H5   3637 0.13870000   1.008000   ; qtot 41.051898
 3638         h1    167    ccc     H6   3638 0.13870000   1.008000   ; qtot 41.190598
 3639         hx    167    ccc     H7   3639 0.07790000   1.008000   ; qtot 41.268498
 3640         hx    167    ccc     H8   3640 0.07790000   1.008000   ; qtot 41.346398
 3641         n4    167    ccc     N2   3641 -0.16780000  14.010000   ; qtot 41.178598
 3642         hn    167    ccc     H9   3642 0.27380000   1.008000   ; qtot 41.452398
 3643         hn    167    ccc    H10   3643 0.27380000   1.008000   ; qtot 41.726198
 3644         hn    167    ccc    H11   3644 0.27380000   1.008000   ; qtot 41.999998
; residue  168 ccc rtp ccc q 1.0
 3645          n    168    ccc     N1   3645 -0.26410000  14.010000   ; qtot 41.735898
 3646         hn    168    ccc     H4   3646 0.27630000   1.008000   ; qtot 42.012198
 3647         c3    168    ccc     C3   3647 -0.17900000  12.010000   ; qtot 41.833198
 3648         c3    168    ccc     C4   3648 0.08000000  12.010000   ; qtot 41.913198
 3649         h1    168    ccc     H5   3649 0.13870000   1.008000   ; qtot 42.051898
 3650         h1    168    ccc     H6   3650 0.13870000   1.008000   ; qtot 42.190598
 3651         hx    168    ccc     H7   3651 0.07790000   1.008000   ; qtot 42.268498
 3652         hx    168    ccc     H8   3652 0.07790000   1.008000   ; qtot 42.346398
 3653         n4    168    ccc     N2   3653 -0.16780000  14.010000   ; qtot 42.178598
 3654         hn    168    ccc     H9   3654 0.27380000   1.008000   ; qtot 42.452398
 3655         hn    168    ccc    H10   3655 0.27380000   1.008000   ; qtot 42.726198
 3656         hn    168    ccc    H11   3656 0.27380000   1.008000   ; qtot 42.999998
; residue  169 ccc rtp ccc q 1.0
 3657          n    169    ccc     N1   3657 -0.26410000  14.010000   ; qtot 42.735898
 3658         hn    169    ccc     H4   3658 0.27630000   1.008000   ; qtot 43.012198
 3659         c3    169    ccc     C3   3659 -0.17900000  12.010000   ; qtot 42.833198
 3660         c3    169    ccc     C4   3660 0.08000000  12.010000   ; qtot 42.913198
 3661         h1    169    ccc     H5   3661 0.13870000   1.008000   ; qtot 43.051898
 3662         h1    169    ccc     H6   3662 0.13870000   1.008000   ; qtot 43.190598
 3663         hx    169    ccc     H7   3663 0.07790000   1.008000   ; qtot 43.268498
 3664         hx    169    ccc     H8   3664 0.07790000   1.008000   ; qtot 43.346398
 3665         n4    169    ccc     N2   3665 -0.16780000  14.010000   ; qtot 43.178598
 3666         hn    169    ccc     H9   3666 0.27380000   1.008000   ; qtot 43.452398
 3667         hn    169    ccc    H10   3667 0.27380000   1.008000   ; qtot 43.726198
 3668         hn    169    ccc    H11   3668 0.27380000   1.008000   ; qtot 43.999998
; residue  170 ccc rtp ccc q 1.0
 3669          n    170    ccc     N1   3669 -0.26410000  14.010000   ; qtot 43.735898
 3670         hn    170    ccc     H4   3670 0.27630000   1.008000   ; qtot 44.012198
 3671         c3    170    ccc     C3   3671 -0.17900000  12.010000   ; qtot 43.833198
 3672         c3    170    ccc     C4   3672 0.08000000  12.010000   ; qtot 43.913198
 3673         h1    170    ccc     H5   3673 0.13870000   1.008000   ; qtot 44.051898
 3674         h1    170    ccc     H6   3674 0.13870000   1.008000   ; qtot 44.190598
 3675         hx    170    ccc     H7   3675 0.07790000   1.008000   ; qtot 44.268498
 3676         hx    170    ccc     H8   3676 0.07790000   1.008000   ; qtot 44.346398
 3677         n4    170    ccc     N2   3677 -0.16780000  14.010000   ; qtot 44.178598
 3678         hn    170    ccc     H9   3678 0.27380000   1.008000   ; qtot 44.452398
 3679         hn    170    ccc    H10   3679 0.27380000   1.008000   ; qtot 44.726198
 3680         hn    170    ccc    H11   3680 0.27380000   1.008000   ; qtot 44.999998
; residue  171 ccc rtp ccc q 1.0
 3681          n    171    ccc     N1   3681 -0.26410000  14.010000   ; qtot 44.735898
 3682         hn    171    ccc     H4   3682 0.27630000   1.008000   ; qtot 45.012198
 3683         c3    171    ccc     C3   3683 -0.17900000  12.010000   ; qtot 44.833198
 3684         c3    171    ccc     C4   3684 0.08000000  12.010000   ; qtot 44.913198
 3685         h1    171    ccc     H5   3685 0.13870000   1.008000   ; qtot 45.051898
 3686         h1    171    ccc     H6   3686 0.13870000   1.008000   ; qtot 45.190598
 3687         hx    171    ccc     H7   3687 0.07790000   1.008000   ; qtot 45.268498
 3688         hx    171    ccc     H8   3688 0.07790000   1.008000   ; qtot 45.346398
 3689         n4    171    ccc     N2   3689 -0.16780000  14.010000   ; qtot 45.178598
 3690         hn    171    ccc     H9   3690 0.27380000   1.008000   ; qtot 45.452398
 3691         hn    171    ccc    H10   3691 0.27380000   1.008000   ; qtot 45.726198
 3692         hn    171    ccc    H11   3692 0.27380000   1.008000   ; qtot 45.999998
; residue  172 ccc rtp ccc q 1.0
 3693          n    172    ccc     N1   3693 -0.26410000  14.010000   ; qtot 45.735898
 3694         hn    172    ccc     H4   3694 0.27630000   1.008000   ; qtot 46.012198
 3695         c3    172    ccc     C3   3695 -0.17900000  12.010000   ; qtot 45.833198
 3696         c3    172    ccc     C4   3696 0.08000000  12.010000   ; qtot 45.913198
 3697         h1    172    ccc     H5   3697 0.13870000   1.008000   ; qtot 46.051898
 3698         h1    172    ccc     H6   3698 0.13870000   1.008000   ; qtot 46.190598
 3699         hx    172    ccc     H7   3699 0.07790000   1.008000   ; qtot 46.268498
 3700         hx    172    ccc     H8   3700 0.07790000   1.008000   ; qtot 46.346398
 3701         n4    172    ccc     N2   3701 -0.16780000  14.010000   ; qtot 46.178598
 3702         hn    172    ccc     H9   3702 0.27380000   1.008000   ; qtot 46.452398
 3703         hn    172    ccc    H10   3703 0.27380000   1.008000   ; qtot 46.726198
 3704         hn    172    ccc    H11   3704 0.27380000   1.008000   ; qtot 46.999998
; residue  173 ccc rtp ccc q 1.0
 3705          n    173    ccc     N1   3705 -0.26410000  14.010000   ; qtot 46.735898
 3706         hn    173    ccc     H4   3706 0.27630000   1.008000   ; qtot 47.012198
 3707         c3    173    ccc     C3   3707 -0.17900000  12.010000   ; qtot 46.833198
 3708         c3    173    ccc     C4   3708 0.08000000  12.010000   ; qtot 46.913198
 3709         h1    173    ccc     H5   3709 0.13870000   1.008000   ; qtot 47.051898
 3710         h1    173    ccc     H6   3710 0.13870000   1.008000   ; qtot 47.190598
 3711         hx    173    ccc     H7   3711 0.07790000   1.008000   ; qtot 47.268498
 3712         hx    173    ccc     H8   3712 0.07790000   1.008000   ; qtot 47.346398
 3713         n4    173    ccc     N2   3713 -0.16780000  14.010000   ; qtot 47.178598
 3714         hn    173    ccc     H9   3714 0.27380000   1.008000   ; qtot 47.452398
 3715         hn    173    ccc    H10   3715 0.27380000   1.008000   ; qtot 47.726198
 3716         hn    173    ccc    H11   3716 0.27380000   1.008000   ; qtot 47.999998
; residue  174 ccc rtp ccc q 1.0
 3717          n    174    ccc     N1   3717 -0.26410000  14.010000   ; qtot 47.735898
 3718         hn    174    ccc     H4   3718 0.27630000   1.008000   ; qtot 48.012198
 3719         c3    174    ccc     C3   3719 -0.17900000  12.010000   ; qtot 47.833198
 3720         c3    174    ccc     C4   3720 0.08000000  12.010000   ; qtot 47.913198
 3721         h1    174    ccc     H5   3721 0.13870000   1.008000   ; qtot 48.051898
 3722         h1    174    ccc     H6   3722 0.13870000   1.008000   ; qtot 48.190598
 3723         hx    174    ccc     H7   3723 0.07790000   1.008000   ; qtot 48.268498
 3724         hx    174    ccc     H8   3724 0.07790000   1.008000   ; qtot 48.346398
 3725         n4    174    ccc     N2   3725 -0.16780000  14.010000   ; qtot 48.178598
 3726         hn    174    ccc     H9   3726 0.27380000   1.008000   ; qtot 48.452398
 3727         hn    174    ccc    H10   3727 0.27380000   1.008000   ; qtot 48.726198
 3728         hn    174    ccc    H11   3728 0.27380000   1.008000   ; qtot 48.999998
; residue  175 ccc rtp ccc q 1.0
 3729          n    175    ccc     N1   3729 -0.26410000  14.010000   ; qtot 48.735898
 3730         hn    175    ccc     H4   3730 0.27630000   1.008000   ; qtot 49.012198
 3731         c3    175    ccc     C3   3731 -0.17900000  12.010000   ; qtot 48.833198
 3732         c3    175    ccc     C4   3732 0.08000000  12.010000   ; qtot 48.913198
 3733         h1    175    ccc     H5   3733 0.13870000   1.008000   ; qtot 49.051898
 3734         h1    175    ccc     H6   3734 0.13870000   1.008000   ; qtot 49.190598
 3735         hx    175    ccc     H7   3735 0.07790000   1.008000   ; qtot 49.268498
 3736         hx    175    ccc     H8   3736 0.07790000   1.008000   ; qtot 49.346398
 3737         n4    175    ccc     N2   3737 -0.16780000  14.010000   ; qtot 49.178598
 3738         hn    175    ccc     H9   3738 0.27380000   1.008000   ; qtot 49.452398
 3739         hn    175    ccc    H10   3739 0.27380000   1.008000   ; qtot 49.726198
 3740         hn    175    ccc    H11   3740 0.27380000   1.008000   ; qtot 49.999998
; residue  176 ccc rtp ccc q 1.0
 3741          n    176    ccc     N1   3741 -0.26410000  14.010000   ; qtot 49.735898
 3742         hn    176    ccc     H4   3742 0.27630000   1.008000   ; qtot 50.012198
 3743         c3    176    ccc     C3   3743 -0.17900000  12.010000   ; qtot 49.833198
 3744         c3    176    ccc     C4   3744 0.08000000  12.010000   ; qtot 49.913198
 3745         h1    176    ccc     H5   3745 0.13870000   1.008000   ; qtot 50.051898
 3746         h1    176    ccc     H6   3746 0.13870000   1.008000   ; qtot 50.190598
 3747         hx    176    ccc     H7   3747 0.07790000   1.008000   ; qtot 50.268498
 3748         hx    176    ccc     H8   3748 0.07790000   1.008000   ; qtot 50.346398
 3749         n4    176    ccc     N2   3749 -0.16780000  14.010000   ; qtot 50.178598
 3750         hn    176    ccc     H9   3750 0.27380000   1.008000   ; qtot 50.452398
 3751         hn    176    ccc    H10   3751 0.27380000   1.008000   ; qtot 50.726198
 3752         hn    176    ccc    H11   3752 0.27380000   1.008000   ; qtot 50.999998
; residue  177 ccc rtp ccc q 1.0
 3753          n    177    ccc     N1   3753 -0.26410000  14.010000   ; qtot 50.735898
 3754         hn    177    ccc     H4   3754 0.27630000   1.008000   ; qtot 51.012198
 3755         c3    177    ccc     C3   3755 -0.17900000  12.010000   ; qtot 50.833198
 3756         c3    177    ccc     C4   3756 0.08000000  12.010000   ; qtot 50.913198
 3757         h1    177    ccc     H5   3757 0.13870000   1.008000   ; qtot 51.051898
 3758         h1    177    ccc     H6   3758 0.13870000   1.008000   ; qtot 51.190598
 3759         hx    177    ccc     H7   3759 0.07790000   1.008000   ; qtot 51.268498
 3760         hx    177    ccc     H8   3760 0.07790000   1.008000   ; qtot 51.346398
 3761         n4    177    ccc     N2   3761 -0.16780000  14.010000   ; qtot 51.178598
 3762         hn    177    ccc     H9   3762 0.27380000   1.008000   ; qtot 51.452398
 3763         hn    177    ccc    H10   3763 0.27380000   1.008000   ; qtot 51.726198
 3764         hn    177    ccc    H11   3764 0.27380000   1.008000   ; qtot 51.999998
; residue  178 ccc rtp ccc q 1.0
 3765          n    178    ccc     N1   3765 -0.26410000  14.010000   ; qtot 51.735898
 3766         hn    178    ccc     H4   3766 0.27630000   1.008000   ; qtot 52.012198
 3767         c3    178    ccc     C3   3767 -0.17900000  12.010000   ; qtot 51.833198
 3768         c3    178    ccc     C4   3768 0.08000000  12.010000   ; qtot 51.913198
 3769         h1    178    ccc     H5   3769 0.13870000   1.008000   ; qtot 52.051898
 3770         h1    178    ccc     H6   3770 0.13870000   1.008000   ; qtot 52.190598
 3771         hx    178    ccc     H7   3771 0.07790000   1.008000   ; qtot 52.268498
 3772         hx    178    ccc     H8   3772 0.07790000   1.008000   ; qtot 52.346398
 3773         n4    178    ccc     N2   3773 -0.16780000  14.010000   ; qtot 52.178598
 3774         hn    178    ccc     H9   3774 0.27380000   1.008000   ; qtot 52.452398
 3775         hn    178    ccc    H10   3775 0.27380000   1.008000   ; qtot 52.726198
 3776         hn    178    ccc    H11   3776 0.27380000   1.008000   ; qtot 52.999998
; residue  179 ccc rtp ccc q 1.0
 3777          n    179    ccc     N1   3777 -0.26410000  14.010000   ; qtot 52.735898
 3778         hn    179    ccc     H4   3778 0.27630000   1.008000   ; qtot 53.012198
 3779         c3    179    ccc     C3   3779 -0.17900000  12.010000   ; qtot 52.833198
 3780         c3    179    ccc     C4   3780 0.08000000  12.010000   ; qtot 52.913198
 3781         h1    179    ccc     H5   3781 0.13870000   1.008000   ; qtot 53.051898
 3782         h1    179    ccc     H6   3782 0.13870000   1.008000   ; qtot 53.190598
 3783         hx    179    ccc     H7   3783 0.07790000   1.008000   ; qtot 53.268498
 3784         hx    179    ccc     H8   3784 0.07790000   1.008000   ; qtot 53.346398
 3785         n4    179    ccc     N2   3785 -0.16780000  14.010000   ; qtot 53.178598
 3786         hn    179    ccc     H9   3786 0.27380000   1.008000   ; qtot 53.452398
 3787         hn    179    ccc    H10   3787 0.27380000   1.008000   ; qtot 53.726198
 3788         hn    179    ccc    H11   3788 0.27380000   1.008000   ; qtot 53.999998
; residue  180 ccc rtp ccc q 1.0
 3789          n    180    ccc     N1   3789 -0.26410000  14.010000   ; qtot 53.735898
 3790         hn    180    ccc     H4   3790 0.27630000   1.008000   ; qtot 54.012198
 3791         c3    180    ccc     C3   3791 -0.17900000  12.010000   ; qtot 53.833198
 3792         c3    180    ccc     C4   3792 0.08000000  12.010000   ; qtot 53.913198
 3793         h1    180    ccc     H5   3793 0.13870000   1.008000   ; qtot 54.051898
 3794         h1    180    ccc     H6   3794 0.13870000   1.008000   ; qtot 54.190598
 3795         hx    180    ccc     H7   3795 0.07790000   1.008000   ; qtot 54.268498
 3796         hx    180    ccc     H8   3796 0.07790000   1.008000   ; qtot 54.346398
 3797         n4    180    ccc     N2   3797 -0.16780000  14.010000   ; qtot 54.178598
 3798         hn    180    ccc     H9   3798 0.27380000   1.008000   ; qtot 54.452398
 3799         hn    180    ccc    H10   3799 0.27380000   1.008000   ; qtot 54.726198
 3800         hn    180    ccc    H11   3800 0.27380000   1.008000   ; qtot 54.999998
; residue  181 ccc rtp ccc q 1.0
 3801          n    181    ccc     N1   3801 -0.26410000  14.010000   ; qtot 54.735898
 3802         hn    181    ccc     H4   3802 0.27630000   1.008000   ; qtot 55.012198
 3803         c3    181    ccc     C3   3803 -0.17900000  12.010000   ; qtot 54.833198
 3804         c3    181    ccc     C4   3804 0.08000000  12.010000   ; qtot 54.913198
 3805         h1    181    ccc     H5   3805 0.13870000   1.008000   ; qtot 55.051898
 3806         h1    181    ccc     H6   3806 0.13870000   1.008000   ; qtot 55.190598
 3807         hx    181    ccc     H7   3807 0.07790000   1.008000   ; qtot 55.268498
 3808         hx    181    ccc     H8   3808 0.07790000   1.008000   ; qtot 55.346398
 3809         n4    181    ccc     N2   3809 -0.16780000  14.010000   ; qtot 55.178598
 3810         hn    181    ccc     H9   3810 0.27380000   1.008000   ; qtot 55.452398
 3811         hn    181    ccc    H10   3811 0.27380000   1.008000   ; qtot 55.726198
 3812         hn    181    ccc    H11   3812 0.27380000   1.008000   ; qtot 55.999998
; residue  182 ccc rtp ccc q 1.0
 3813          n    182    ccc     N1   3813 -0.26410000  14.010000   ; qtot 55.735898
 3814         hn    182    ccc     H4   3814 0.27630000   1.008000   ; qtot 56.012198
 3815         c3    182    ccc     C3   3815 -0.17900000  12.010000   ; qtot 55.833198
 3816         c3    182    ccc     C4   3816 0.08000000  12.010000   ; qtot 55.913198
 3817         h1    182    ccc     H5   3817 0.13870000   1.008000   ; qtot 56.051898
 3818         h1    182    ccc     H6   3818 0.13870000   1.008000   ; qtot 56.190598
 3819         hx    182    ccc     H7   3819 0.07790000   1.008000   ; qtot 56.268498
 3820         hx    182    ccc     H8   3820 0.07790000   1.008000   ; qtot 56.346398
 3821         n4    182    ccc     N2   3821 -0.16780000  14.010000   ; qtot 56.178598
 3822         hn    182    ccc     H9   3822 0.27380000   1.008000   ; qtot 56.452398
 3823         hn    182    ccc    H10   3823 0.27380000   1.008000   ; qtot 56.726198
 3824         hn    182    ccc    H11   3824 0.27380000   1.008000   ; qtot 56.999998
; residue  183 ccc rtp ccc q 1.0
 3825          n    183    ccc     N1   3825 -0.26410000  14.010000   ; qtot 56.735898
 3826         hn    183    ccc     H4   3826 0.27630000   1.008000   ; qtot 57.012198
 3827         c3    183    ccc     C3   3827 -0.17900000  12.010000   ; qtot 56.833198
 3828         c3    183    ccc     C4   3828 0.08000000  12.010000   ; qtot 56.913198
 3829         h1    183    ccc     H5   3829 0.13870000   1.008000   ; qtot 57.051898
 3830         h1    183    ccc     H6   3830 0.13870000   1.008000   ; qtot 57.190598
 3831         hx    183    ccc     H7   3831 0.07790000   1.008000   ; qtot 57.268498
 3832         hx    183    ccc     H8   3832 0.07790000   1.008000   ; qtot 57.346398
 3833         n4    183    ccc     N2   3833 -0.16780000  14.010000   ; qtot 57.178598
 3834         hn    183    ccc     H9   3834 0.27380000   1.008000   ; qtot 57.452398
 3835         hn    183    ccc    H10   3835 0.27380000   1.008000   ; qtot 57.726198
 3836         hn    183    ccc    H11   3836 0.27380000   1.008000   ; qtot 57.999998
; residue  184 ccc rtp ccc q 1.0
 3837          n    184    ccc     N1   3837 -0.26410000  14.010000   ; qtot 57.735898
 3838         hn    184    ccc     H4   3838 0.27630000   1.008000   ; qtot 58.012198
 3839         c3    184    ccc     C3   3839 -0.17900000  12.010000   ; qtot 57.833198
 3840         c3    184    ccc     C4   3840 0.08000000  12.010000   ; qtot 57.913198
 3841         h1    184    ccc     H5   3841 0.13870000   1.008000   ; qtot 58.051898
 3842         h1    184    ccc     H6   3842 0.13870000   1.008000   ; qtot 58.190598
 3843         hx    184    ccc     H7   3843 0.07790000   1.008000   ; qtot 58.268498
 3844         hx    184    ccc     H8   3844 0.07790000   1.008000   ; qtot 58.346398
 3845         n4    184    ccc     N2   3845 -0.16780000  14.010000   ; qtot 58.178598
 3846         hn    184    ccc     H9   3846 0.27380000   1.008000   ; qtot 58.452398
 3847         hn    184    ccc    H10   3847 0.27380000   1.008000   ; qtot 58.726198
 3848         hn    184    ccc    H11   3848 0.27380000   1.008000   ; qtot 58.999998
; residue  185 ccc rtp ccc q 1.0
 3849          n    185    ccc     N1   3849 -0.26410000  14.010000   ; qtot 58.735898
 3850         hn    185    ccc     H4   3850 0.27630000   1.008000   ; qtot 59.012198
 3851         c3    185    ccc     C3   3851 -0.17900000  12.010000   ; qtot 58.833198
 3852         c3    185    ccc     C4   3852 0.08000000  12.010000   ; qtot 58.913198
 3853         h1    185    ccc     H5   3853 0.13870000   1.008000   ; qtot 59.051898
 3854         h1    185    ccc     H6   3854 0.13870000   1.008000   ; qtot 59.190598
 3855         hx    185    ccc     H7   3855 0.07790000   1.008000   ; qtot 59.268498
 3856         hx    185    ccc     H8   3856 0.07790000   1.008000   ; qtot 59.346398
 3857         n4    185    ccc     N2   3857 -0.16780000  14.010000   ; qtot 59.178598
 3858         hn    185    ccc     H9   3858 0.27380000   1.008000   ; qtot 59.452398
 3859         hn    185    ccc    H10   3859 0.27380000   1.008000   ; qtot 59.726198
 3860         hn    185    ccc    H11   3860 0.27380000   1.008000   ; qtot 59.999998
; residue  186 ccc rtp ccc q 1.0
 3861          n    186    ccc     N1   3861 -0.26410000  14.010000   ; qtot 59.735898
 3862         hn    186    ccc     H4   3862 0.27630000   1.008000   ; qtot 60.012198
 3863         c3    186    ccc     C3   3863 -0.17900000  12.010000   ; qtot 59.833198
 3864         c3    186    ccc     C4   3864 0.08000000  12.010000   ; qtot 59.913198
 3865         h1    186    ccc     H5   3865 0.13870000   1.008000   ; qtot 60.051898
 3866         h1    186    ccc     H6   3866 0.13870000   1.008000   ; qtot 60.190598
 3867         hx    186    ccc     H7   3867 0.07790000   1.008000   ; qtot 60.268498
 3868         hx    186    ccc     H8   3868 0.07790000   1.008000   ; qtot 60.346398
 3869         n4    186    ccc     N2   3869 -0.16780000  14.010000   ; qtot 60.178598
 3870         hn    186    ccc     H9   3870 0.27380000   1.008000   ; qtot 60.452398
 3871         hn    186    ccc    H10   3871 0.27380000   1.008000   ; qtot 60.726198
 3872         hn    186    ccc    H11   3872 0.27380000   1.008000   ; qtot 60.999998
; residue  187 ccc rtp ccc q 1.0
 3873          n    187    ccc     N1   3873 -0.26410000  14.010000   ; qtot 60.735898
 3874         hn    187    ccc     H4   3874 0.27630000   1.008000   ; qtot 61.012198
 3875         c3    187    ccc     C3   3875 -0.17900000  12.010000   ; qtot 60.833198
 3876         c3    187    ccc     C4   3876 0.08000000  12.010000   ; qtot 60.913198
 3877         h1    187    ccc     H5   3877 0.13870000   1.008000   ; qtot 61.051898
 3878         h1    187    ccc     H6   3878 0.13870000   1.008000   ; qtot 61.190598
 3879         hx    187    ccc     H7   3879 0.07790000   1.008000   ; qtot 61.268498
 3880         hx    187    ccc     H8   3880 0.07790000   1.008000   ; qtot 61.346398
 3881         n4    187    ccc     N2   3881 -0.16780000  14.010000   ; qtot 61.178598
 3882         hn    187    ccc     H9   3882 0.27380000   1.008000   ; qtot 61.452398
 3883         hn    187    ccc    H10   3883 0.27380000   1.008000   ; qtot 61.726198
 3884         hn    187    ccc    H11   3884 0.27380000   1.008000   ; qtot 61.999998
; residue  188 ccc rtp ccc q 1.0
 3885          n    188    ccc     N1   3885 -0.26410000  14.010000   ; qtot 61.735898
 3886         hn    188    ccc     H4   3886 0.27630000   1.008000   ; qtot 62.012198
 3887         c3    188    ccc     C3   3887 -0.17900000  12.010000   ; qtot 61.833198
 3888         c3    188    ccc     C4   3888 0.08000000  12.010000   ; qtot 61.913198
 3889         h1    188    ccc     H5   3889 0.13870000   1.008000   ; qtot 62.051898
 3890         h1    188    ccc     H6   3890 0.13870000   1.008000   ; qtot 62.190598
 3891         hx    188    ccc     H7   3891 0.07790000   1.008000   ; qtot 62.268498
 3892         hx    188    ccc     H8   3892 0.07790000   1.008000   ; qtot 62.346398
 3893         n4    188    ccc     N2   3893 -0.16780000  14.010000   ; qtot 62.178598
 3894         hn    188    ccc     H9   3894 0.27380000   1.008000   ; qtot 62.452398
 3895         hn    188    ccc    H10   3895 0.27380000   1.008000   ; qtot 62.726198
 3896         hn    188    ccc    H11   3896 0.27380000   1.008000   ; qtot 62.999998
; residue  189 ccc rtp ccc q 1.0
 3897          n    189    ccc     N1   3897 -0.26410000  14.010000   ; qtot 62.735898
 3898         hn    189    ccc     H4   3898 0.27630000   1.008000   ; qtot 63.012198
 3899         c3    189    ccc     C3   3899 -0.17900000  12.010000   ; qtot 62.833198
 3900         c3    189    ccc     C4   3900 0.08000000  12.010000   ; qtot 62.913198
 3901         h1    189    ccc     H5   3901 0.13870000   1.008000   ; qtot 63.051898
 3902         h1    189    ccc     H6   3902 0.13870000   1.008000   ; qtot 63.190598
 3903         hx    189    ccc     H7   3903 0.07790000   1.008000   ; qtot 63.268498
 3904         hx    189    ccc     H8   3904 0.07790000   1.008000   ; qtot 63.346398
 3905         n4    189    ccc     N2   3905 -0.16780000  14.010000   ; qtot 63.178598
 3906         hn    189    ccc     H9   3906 0.27380000   1.008000   ; qtot 63.452398
 3907         hn    189    ccc    H10   3907 0.27380000   1.008000   ; qtot 63.726198
 3908         hn    189    ccc    H11   3908 0.27380000   1.008000   ; qtot 63.999998
; residue  190 ccc rtp ccc q 1.0
 3909          n    190    ccc     N1   3909 -0.26410000  14.010000   ; qtot 63.735898
 3910         hn    190    ccc     H4   3910 0.27630000   1.008000   ; qtot 64.012198
 3911         c3    190    ccc     C3   3911 -0.17900000  12.010000   ; qtot 63.833198
 3912         c3    190    ccc     C4   3912 0.08000000  12.010000   ; qtot 63.913198
 3913         h1    190    ccc     H5   3913 0.13870000   1.008000   ; qtot 64.051898
 3914         h1    190    ccc     H6   3914 0.13870000   1.008000   ; qtot 64.190598
 3915         hx    190    ccc     H7   3915 0.07790000   1.008000   ; qtot 64.268498
 3916         hx    190    ccc     H8   3916 0.07790000   1.008000   ; qtot 64.346398
 3917         n4    190    ccc     N2   3917 -0.16780000  14.010000   ; qtot 64.178598
 3918         hn    190    ccc     H9   3918 0.27380000   1.008000   ; qtot 64.452398
 3919         hn    190    ccc    H10   3919 0.27380000   1.008000   ; qtot 64.726198
 3920         hn    190    ccc    H11   3920 0.27380000   1.008000   ; qtot 64.999998
; residue  191 ccc rtp ccc q 1.0
 3921          n    191    ccc     N1   3921 -0.26410000  14.010000   ; qtot 64.735898
 3922         hn    191    ccc     H4   3922 0.27630000   1.008000   ; qtot 65.012198
 3923         c3    191    ccc     C3   3923 -0.17900000  12.010000   ; qtot 64.833198
 3924         c3    191    ccc     C4   3924 0.08000000  12.010000   ; qtot 64.913198
 3925         h1    191    ccc     H5   3925 0.13870000   1.008000   ; qtot 65.051898
 3926         h1    191    ccc     H6   3926 0.13870000   1.008000   ; qtot 65.190598
 3927         hx    191    ccc     H7   3927 0.07790000   1.008000   ; qtot 65.268498
 3928         hx    191    ccc     H8   3928 0.07790000   1.008000   ; qtot 65.346398
 3929         n4    191    ccc     N2   3929 -0.16780000  14.010000   ; qtot 65.178598
 3930         hn    191    ccc     H9   3930 0.27380000   1.008000   ; qtot 65.452398
 3931         hn    191    ccc    H10   3931 0.27380000   1.008000   ; qtot 65.726198
 3932         hn    191    ccc    H11   3932 0.27380000   1.008000   ; qtot 65.999998
; residue  192 ccc rtp ccc q 1.0
 3933          n    192    ccc     N1   3933 -0.26410000  14.010000   ; qtot 65.735898
 3934         hn    192    ccc     H4   3934 0.27630000   1.008000   ; qtot 66.012198
 3935         c3    192    ccc     C3   3935 -0.17900000  12.010000   ; qtot 65.833198
 3936         c3    192    ccc     C4   3936 0.08000000  12.010000   ; qtot 65.913198
 3937         h1    192    ccc     H5   3937 0.13870000   1.008000   ; qtot 66.051898
 3938         h1    192    ccc     H6   3938 0.13870000   1.008000   ; qtot 66.190598
 3939         hx    192    ccc     H7   3939 0.07790000   1.008000   ; qtot 66.268498
 3940         hx    192    ccc     H8   3940 0.07790000   1.008000   ; qtot 66.346398
 3941         n4    192    ccc     N2   3941 -0.16780000  14.010000   ; qtot 66.178598
 3942         hn    192    ccc     H9   3942 0.27380000   1.008000   ; qtot 66.452398
 3943         hn    192    ccc    H10   3943 0.27380000   1.008000   ; qtot 66.726198
 3944         hn    192    ccc    H11   3944 0.27380000   1.008000   ; qtot 66.999998
; residue  193 ccc rtp ccc q 1.0
 3945          n    193    ccc     N1   3945 -0.26410000  14.010000   ; qtot 66.735898
 3946         hn    193    ccc     H4   3946 0.27630000   1.008000   ; qtot 67.012198
 3947         c3    193    ccc     C3   3947 -0.17900000  12.010000   ; qtot 66.833198
 3948         c3    193    ccc     C4   3948 0.08000000  12.010000   ; qtot 66.913198
 3949         h1    193    ccc     H5   3949 0.13870000   1.008000   ; qtot 67.051898
 3950         h1    193    ccc     H6   3950 0.13870000   1.008000   ; qtot 67.190598
 3951         hx    193    ccc     H7   3951 0.07790000   1.008000   ; qtot 67.268498
 3952         hx    193    ccc     H8   3952 0.07790000   1.008000   ; qtot 67.346398
 3953         n4    193    ccc     N2   3953 -0.16780000  14.010000   ; qtot 67.178598
 3954         hn    193    ccc     H9   3954 0.27380000   1.008000   ; qtot 67.452398
 3955         hn    193    ccc    H10   3955 0.27380000   1.008000   ; qtot 67.726198
 3956         hn    193    ccc    H11   3956 0.27380000   1.008000   ; qtot 67.999998
; residue  194 ccc rtp ccc q 1.0
 3957          n    194    ccc     N1   3957 -0.26410000  14.010000   ; qtot 67.735898
 3958         hn    194    ccc     H4   3958 0.27630000   1.008000   ; qtot 68.012198
 3959         c3    194    ccc     C3   3959 -0.17900000  12.010000   ; qtot 67.833198
 3960         c3    194    ccc     C4   3960 0.08000000  12.010000   ; qtot 67.913198
 3961         h1    194    ccc     H5   3961 0.13870000   1.008000   ; qtot 68.051898
 3962         h1    194    ccc     H6   3962 0.13870000   1.008000   ; qtot 68.190598
 3963         hx    194    ccc     H7   3963 0.07790000   1.008000   ; qtot 68.268498
 3964         hx    194    ccc     H8   3964 0.07790000   1.008000   ; qtot 68.346398
 3965         n4    194    ccc     N2   3965 -0.16780000  14.010000   ; qtot 68.178598
 3966         hn    194    ccc     H9   3966 0.27380000   1.008000   ; qtot 68.452398
 3967         hn    194    ccc    H10   3967 0.27380000   1.008000   ; qtot 68.726198
 3968         hn    194    ccc    H11   3968 0.27380000   1.008000   ; qtot 68.999998
; residue  195 ccc rtp ccc q 1.0
 3969          n    195    ccc     N1   3969 -0.26410000  14.010000   ; qtot 68.735898
 3970         hn    195    ccc     H4   3970 0.27630000   1.008000   ; qtot 69.012198
 3971         c3    195    ccc     C3   3971 -0.17900000  12.010000   ; qtot 68.833198
 3972         c3    195    ccc     C4   3972 0.08000000  12.010000   ; qtot 68.913198
 3973         h1    195    ccc     H5   3973 0.13870000   1.008000   ; qtot 69.051898
 3974         h1    195    ccc     H6   3974 0.13870000   1.008000   ; qtot 69.190598
 3975         hx    195    ccc     H7   3975 0.07790000   1.008000   ; qtot 69.268498
 3976         hx    195    ccc     H8   3976 0.07790000   1.008000   ; qtot 69.346398
 3977         n4    195    ccc     N2   3977 -0.16780000  14.010000   ; qtot 69.178598
 3978         hn    195    ccc     H9   3978 0.27380000   1.008000   ; qtot 69.452398
 3979         hn    195    ccc    H10   3979 0.27380000   1.008000   ; qtot 69.726198
 3980         hn    195    ccc    H11   3980 0.27380000   1.008000   ; qtot 69.999998
; residue  196 ccc rtp ccc q 1.0
 3981          n    196    ccc     N1   3981 -0.26410000  14.010000   ; qtot 69.735898
 3982         hn    196    ccc     H4   3982 0.27630000   1.008000   ; qtot 70.012198
 3983         c3    196    ccc     C3   3983 -0.17900000  12.010000   ; qtot 69.833198
 3984         c3    196    ccc     C4   3984 0.08000000  12.010000   ; qtot 69.913198
 3985         h1    196    ccc     H5   3985 0.13870000   1.008000   ; qtot 70.051898
 3986         h1    196    ccc     H6   3986 0.13870000   1.008000   ; qtot 70.190598
 3987         hx    196    ccc     H7   3987 0.07790000   1.008000   ; qtot 70.268498
 3988         hx    196    ccc     H8   3988 0.07790000   1.008000   ; qtot 70.346398
 3989         n4    196    ccc     N2   3989 -0.16780000  14.010000   ; qtot 70.178598
 3990         hn    196    ccc     H9   3990 0.27380000   1.008000   ; qtot 70.452398
 3991         hn    196    ccc    H10   3991 0.27380000   1.008000   ; qtot 70.726198
 3992         hn    196    ccc    H11   3992 0.27380000   1.008000   ; qtot 70.999998
; residue  197 ccc rtp ccc q 1.0
 3993          n    197    ccc     N1   3993 -0.26410000  14.010000   ; qtot 70.735898
 3994         hn    197    ccc     H4   3994 0.27630000   1.008000   ; qtot 71.012198
 3995         c3    197    ccc     C3   3995 -0.17900000  12.010000   ; qtot 70.833198
 3996         c3    197    ccc     C4   3996 0.08000000  12.010000   ; qtot 70.913198
 3997         h1    197    ccc     H5   3997 0.13870000   1.008000   ; qtot 71.051898
 3998         h1    197    ccc     H6   3998 0.13870000   1.008000   ; qtot 71.190598
 3999         hx    197    ccc     H7   3999 0.07790000   1.008000   ; qtot 71.268498
 4000         hx    197    ccc     H8   4000 0.07790000   1.008000   ; qtot 71.346398
 4001         n4    197    ccc     N2   4001 -0.16780000  14.010000   ; qtot 71.178598
 4002         hn    197    ccc     H9   4002 0.27380000   1.008000   ; qtot 71.452398
 4003         hn    197    ccc    H10   4003 0.27380000   1.008000   ; qtot 71.726198
 4004         hn    197    ccc    H11   4004 0.27380000   1.008000   ; qtot 71.999998
; residue  198 ccc rtp ccc q 1.0
 4005          n    198    ccc     N1   4005 -0.26410000  14.010000   ; qtot 71.735898
 4006         hn    198    ccc     H4   4006 0.27630000   1.008000   ; qtot 72.012198
 4007         c3    198    ccc     C3   4007 -0.17900000  12.010000   ; qtot 71.833198
 4008         c3    198    ccc     C4   4008 0.08000000  12.010000   ; qtot 71.913198
 4009         h1    198    ccc     H5   4009 0.13870000   1.008000   ; qtot 72.051898
 4010         h1    198    ccc     H6   4010 0.13870000   1.008000   ; qtot 72.190598
 4011         hx    198    ccc     H7   4011 0.07790000   1.008000   ; qtot 72.268498
 4012         hx    198    ccc     H8   4012 0.07790000   1.008000   ; qtot 72.346398
 4013         n4    198    ccc     N2   4013 -0.16780000  14.010000   ; qtot 72.178598
 4014         hn    198    ccc     H9   4014 0.27380000   1.008000   ; qtot 72.452398
 4015         hn    198    ccc    H10   4015 0.27380000   1.008000   ; qtot 72.726198
 4016         hn    198    ccc    H11   4016 0.27380000   1.008000   ; qtot 72.999998
; residue  199 ccc rtp ccc q 1.0
 4017          n    199    ccc     N1   4017 -0.26410000  14.010000   ; qtot 72.735898
 4018         hn    199    ccc     H4   4018 0.27630000   1.008000   ; qtot 73.012198
 4019         c3    199    ccc     C3   4019 -0.17900000  12.010000   ; qtot 72.833198
 4020         c3    199    ccc     C4   4020 0.08000000  12.010000   ; qtot 72.913198
 4021         h1    199    ccc     H5   4021 0.13870000   1.008000   ; qtot 73.051898
 4022         h1    199    ccc     H6   4022 0.13870000   1.008000   ; qtot 73.190598
 4023         hx    199    ccc     H7   4023 0.07790000   1.008000   ; qtot 73.268498
 4024         hx    199    ccc     H8   4024 0.07790000   1.008000   ; qtot 73.346398
 4025         n4    199    ccc     N2   4025 -0.16780000  14.010000   ; qtot 73.178598
 4026         hn    199    ccc     H9   4026 0.27380000   1.008000   ; qtot 73.452398
 4027         hn    199    ccc    H10   4027 0.27380000   1.008000   ; qtot 73.726198
 4028         hn    199    ccc    H11   4028 0.27380000   1.008000   ; qtot 73.999998
; residue  200 ccc rtp ccc q 1.0
 4029          n    200    ccc     N1   4029 -0.26410000  14.010000   ; qtot 73.735898
 4030         hn    200    ccc     H4   4030 0.27630000   1.008000   ; qtot 74.012198
 4031         c3    200    ccc     C3   4031 -0.17900000  12.010000   ; qtot 73.833198
 4032         c3    200    ccc     C4   4032 0.08000000  12.010000   ; qtot 73.913198
 4033         h1    200    ccc     H5   4033 0.13870000   1.008000   ; qtot 74.051898
 4034         h1    200    ccc     H6   4034 0.13870000   1.008000   ; qtot 74.190598
 4035         hx    200    ccc     H7   4035 0.07790000   1.008000   ; qtot 74.268498
 4036         hx    200    ccc     H8   4036 0.07790000   1.008000   ; qtot 74.346398
 4037         n4    200    ccc     N2   4037 -0.16780000  14.010000   ; qtot 74.178598
 4038         hn    200    ccc     H9   4038 0.27380000   1.008000   ; qtot 74.452398
 4039         hn    200    ccc    H10   4039 0.27380000   1.008000   ; qtot 74.726198
 4040         hn    200    ccc    H11   4040 0.27380000   1.008000   ; qtot 74.999998
; residue  201 ccc rtp ccc q 1.0
 4041          n    201    ccc     N1   4041 -0.26410000  14.010000   ; qtot 74.735898
 4042         hn    201    ccc     H4   4042 0.27630000   1.008000   ; qtot 75.012198
 4043         c3    201    ccc     C3   4043 -0.17900000  12.010000   ; qtot 74.833198
 4044         c3    201    ccc     C4   4044 0.08000000  12.010000   ; qtot 74.913198
 4045         h1    201    ccc     H5   4045 0.13870000   1.008000   ; qtot 75.051898
 4046         h1    201    ccc     H6   4046 0.13870000   1.008000   ; qtot 75.190598
 4047         hx    201    ccc     H7   4047 0.07790000   1.008000   ; qtot 75.268498
 4048         hx    201    ccc     H8   4048 0.07790000   1.008000   ; qtot 75.346398
 4049         n4    201    ccc     N2   4049 -0.16780000  14.010000   ; qtot 75.178598
 4050         hn    201    ccc     H9   4050 0.27380000   1.008000   ; qtot 75.452398
 4051         hn    201    ccc    H10   4051 0.27380000   1.008000   ; qtot 75.726198
 4052         hn    201    ccc    H11   4052 0.27380000   1.008000   ; qtot 75.999998
; residue  202 ccc rtp ccc q 1.0
 4053          n    202    ccc     N1   4053 -0.26410000  14.010000   ; qtot 75.735898
 4054         hn    202    ccc     H4   4054 0.27630000   1.008000   ; qtot 76.012198
 4055         c3    202    ccc     C3   4055 -0.17900000  12.010000   ; qtot 75.833198
 4056         c3    202    ccc     C4   4056 0.08000000  12.010000   ; qtot 75.913198
 4057         h1    202    ccc     H5   4057 0.13870000   1.008000   ; qtot 76.051898
 4058         h1    202    ccc     H6   4058 0.13870000   1.008000   ; qtot 76.190598
 4059         hx    202    ccc     H7   4059 0.07790000   1.008000   ; qtot 76.268498
 4060         hx    202    ccc     H8   4060 0.07790000   1.008000   ; qtot 76.346398
 4061         n4    202    ccc     N2   4061 -0.16780000  14.010000   ; qtot 76.178598
 4062         hn    202    ccc     H9   4062 0.27380000   1.008000   ; qtot 76.452398
 4063         hn    202    ccc    H10   4063 0.27380000   1.008000   ; qtot 76.726198
 4064         hn    202    ccc    H11   4064 0.27380000   1.008000   ; qtot 76.999998
; residue  203 ccc rtp ccc q 1.0
 4065          n    203    ccc     N1   4065 -0.26410000  14.010000   ; qtot 76.735898
 4066         hn    203    ccc     H4   4066 0.27630000   1.008000   ; qtot 77.012198
 4067         c3    203    ccc     C3   4067 -0.17900000  12.010000   ; qtot 76.833198
 4068         c3    203    ccc     C4   4068 0.08000000  12.010000   ; qtot 76.913198
 4069         h1    203    ccc     H5   4069 0.13870000   1.008000   ; qtot 77.051898
 4070         h1    203    ccc     H6   4070 0.13870000   1.008000   ; qtot 77.190598
 4071         hx    203    ccc     H7   4071 0.07790000   1.008000   ; qtot 77.268498
 4072         hx    203    ccc     H8   4072 0.07790000   1.008000   ; qtot 77.346398
 4073         n4    203    ccc     N2   4073 -0.16780000  14.010000   ; qtot 77.178598
 4074         hn    203    ccc     H9   4074 0.27380000   1.008000   ; qtot 77.452398
 4075         hn    203    ccc    H10   4075 0.27380000   1.008000   ; qtot 77.726198
 4076         hn    203    ccc    H11   4076 0.27380000   1.008000   ; qtot 77.999998
; residue  204 ccc rtp ccc q 1.0
 4077          n    204    ccc     N1   4077 -0.26410000  14.010000   ; qtot 77.735898
 4078         hn    204    ccc     H4   4078 0.27630000   1.008000   ; qtot 78.012198
 4079         c3    204    ccc     C3   4079 -0.17900000  12.010000   ; qtot 77.833198
 4080         c3    204    ccc     C4   4080 0.08000000  12.010000   ; qtot 77.913198
 4081         h1    204    ccc     H5   4081 0.13870000   1.008000   ; qtot 78.051898
 4082         h1    204    ccc     H6   4082 0.13870000   1.008000   ; qtot 78.190598
 4083         hx    204    ccc     H7   4083 0.07790000   1.008000   ; qtot 78.268498
 4084         hx    204    ccc     H8   4084 0.07790000   1.008000   ; qtot 78.346398
 4085         n4    204    ccc     N2   4085 -0.16780000  14.010000   ; qtot 78.178598
 4086         hn    204    ccc     H9   4086 0.27380000   1.008000   ; qtot 78.452398
 4087         hn    204    ccc    H10   4087 0.27380000   1.008000   ; qtot 78.726198
 4088         hn    204    ccc    H11   4088 0.27380000   1.008000   ; qtot 78.999998
; residue  205 ccc rtp ccc q 1.0
 4089          n    205    ccc     N1   4089 -0.26410000  14.010000   ; qtot 78.735898
 4090         hn    205    ccc     H4   4090 0.27630000   1.008000   ; qtot 79.012198
 4091         c3    205    ccc     C3   4091 -0.17900000  12.010000   ; qtot 78.833198
 4092         c3    205    ccc     C4   4092 0.08000000  12.010000   ; qtot 78.913198
 4093         h1    205    ccc     H5   4093 0.13870000   1.008000   ; qtot 79.051898
 4094         h1    205    ccc     H6   4094 0.13870000   1.008000   ; qtot 79.190598
 4095         hx    205    ccc     H7   4095 0.07790000   1.008000   ; qtot 79.268498
 4096         hx    205    ccc     H8   4096 0.07790000   1.008000   ; qtot 79.346398
 4097         n4    205    ccc     N2   4097 -0.16780000  14.010000   ; qtot 79.178598
 4098         hn    205    ccc     H9   4098 0.27380000   1.008000   ; qtot 79.452398
 4099         hn    205    ccc    H10   4099 0.27380000   1.008000   ; qtot 79.726198
 4100         hn    205    ccc    H11   4100 0.27380000   1.008000   ; qtot 79.999998
; residue  206 ccc rtp ccc q 1.0
 4101          n    206    ccc     N1   4101 -0.26410000  14.010000   ; qtot 79.735898
 4102         hn    206    ccc     H4   4102 0.27630000   1.008000   ; qtot 80.012198
 4103         c3    206    ccc     C3   4103 -0.17900000  12.010000   ; qtot 79.833198
 4104         c3    206    ccc     C4   4104 0.08000000  12.010000   ; qtot 79.913198
 4105         h1    206    ccc     H5   4105 0.13870000   1.008000   ; qtot 80.051898
 4106         h1    206    ccc     H6   4106 0.13870000   1.008000   ; qtot 80.190598
 4107         hx    206    ccc     H7   4107 0.07790000   1.008000   ; qtot 80.268498
 4108         hx    206    ccc     H8   4108 0.07790000   1.008000   ; qtot 80.346398
 4109         n4    206    ccc     N2   4109 -0.16780000  14.010000   ; qtot 80.178598
 4110         hn    206    ccc     H9   4110 0.27380000   1.008000   ; qtot 80.452398
 4111         hn    206    ccc    H10   4111 0.27380000   1.008000   ; qtot 80.726198
 4112         hn    206    ccc    H11   4112 0.27380000   1.008000   ; qtot 80.999998
; residue  207 ccc rtp ccc q 1.0
 4113          n    207    ccc     N1   4113 -0.26410000  14.010000   ; qtot 80.735898
 4114         hn    207    ccc     H4   4114 0.27630000   1.008000   ; qtot 81.012198
 4115         c3    207    ccc     C3   4115 -0.17900000  12.010000   ; qtot 80.833198
 4116         c3    207    ccc     C4   4116 0.08000000  12.010000   ; qtot 80.913198
 4117         h1    207    ccc     H5   4117 0.13870000   1.008000   ; qtot 81.051898
 4118         h1    207    ccc     H6   4118 0.13870000   1.008000   ; qtot 81.190598
 4119         hx    207    ccc     H7   4119 0.07790000   1.008000   ; qtot 81.268498
 4120         hx    207    ccc     H8   4120 0.07790000   1.008000   ; qtot 81.346398
 4121         n4    207    ccc     N2   4121 -0.16780000  14.010000   ; qtot 81.178598
 4122         hn    207    ccc     H9   4122 0.27380000   1.008000   ; qtot 81.452398
 4123         hn    207    ccc    H10   4123 0.27380000   1.008000   ; qtot 81.726198
 4124         hn    207    ccc    H11   4124 0.27380000   1.008000   ; qtot 81.999998
; residue  208 ccc rtp ccc q 1.0
 4125          n    208    ccc     N1   4125 -0.26410000  14.010000   ; qtot 81.735898
 4126         hn    208    ccc     H4   4126 0.27630000   1.008000   ; qtot 82.012198
 4127         c3    208    ccc     C3   4127 -0.17900000  12.010000   ; qtot 81.833198
 4128         c3    208    ccc     C4   4128 0.08000000  12.010000   ; qtot 81.913198
 4129         h1    208    ccc     H5   4129 0.13870000   1.008000   ; qtot 82.051898
 4130         h1    208    ccc     H6   4130 0.13870000   1.008000   ; qtot 82.190598
 4131         hx    208    ccc     H7   4131 0.07790000   1.008000   ; qtot 82.268498
 4132         hx    208    ccc     H8   4132 0.07790000   1.008000   ; qtot 82.346398
 4133         n4    208    ccc     N2   4133 -0.16780000  14.010000   ; qtot 82.178598
 4134         hn    208    ccc     H9   4134 0.27380000   1.008000   ; qtot 82.452398
 4135         hn    208    ccc    H10   4135 0.27380000   1.008000   ; qtot 82.726198
 4136         hn    208    ccc    H11   4136 0.27380000   1.008000   ; qtot 82.999998
; residue  209 ccc rtp ccc q 1.0
 4137          n    209    ccc     N1   4137 -0.26410000  14.010000   ; qtot 82.735898
 4138         hn    209    ccc     H4   4138 0.27630000   1.008000   ; qtot 83.012198
 4139         c3    209    ccc     C3   4139 -0.17900000  12.010000   ; qtot 82.833198
 4140         c3    209    ccc     C4   4140 0.08000000  12.010000   ; qtot 82.913198
 4141         h1    209    ccc     H5   4141 0.13870000   1.008000   ; qtot 83.051898
 4142         h1    209    ccc     H6   4142 0.13870000   1.008000   ; qtot 83.190598
 4143         hx    209    ccc     H7   4143 0.07790000   1.008000   ; qtot 83.268498
 4144         hx    209    ccc     H8   4144 0.07790000   1.008000   ; qtot 83.346398
 4145         n4    209    ccc     N2   4145 -0.16780000  14.010000   ; qtot 83.178598
 4146         hn    209    ccc     H9   4146 0.27380000   1.008000   ; qtot 83.452398
 4147         hn    209    ccc    H10   4147 0.27380000   1.008000   ; qtot 83.726198
 4148         hn    209    ccc    H11   4148 0.27380000   1.008000   ; qtot 83.999998
; residue  210 ccc rtp ccc q 1.0
 4149          n    210    ccc     N1   4149 -0.26410000  14.010000   ; qtot 83.735898
 4150         hn    210    ccc     H4   4150 0.27630000   1.008000   ; qtot 84.012198
 4151         c3    210    ccc     C3   4151 -0.17900000  12.010000   ; qtot 83.833198
 4152         c3    210    ccc     C4   4152 0.08000000  12.010000   ; qtot 83.913198
 4153         h1    210    ccc     H5   4153 0.13870000   1.008000   ; qtot 84.051898
 4154         h1    210    ccc     H6   4154 0.13870000   1.008000   ; qtot 84.190598
 4155         hx    210    ccc     H7   4155 0.07790000   1.008000   ; qtot 84.268498
 4156         hx    210    ccc     H8   4156 0.07790000   1.008000   ; qtot 84.346398
 4157         n4    210    ccc     N2   4157 -0.16780000  14.010000   ; qtot 84.178598
 4158         hn    210    ccc     H9   4158 0.27380000   1.008000   ; qtot 84.452398
 4159         hn    210    ccc    H10   4159 0.27380000   1.008000   ; qtot 84.726198
 4160         hn    210    ccc    H11   4160 0.27380000   1.008000   ; qtot 84.999998
; residue  211 ccc rtp ccc q 1.0
 4161          n    211    ccc     N1   4161 -0.26410000  14.010000   ; qtot 84.735898
 4162         hn    211    ccc     H4   4162 0.27630000   1.008000   ; qtot 85.012198
 4163         c3    211    ccc     C3   4163 -0.17900000  12.010000   ; qtot 84.833198
 4164         c3    211    ccc     C4   4164 0.08000000  12.010000   ; qtot 84.913198
 4165         h1    211    ccc     H5   4165 0.13870000   1.008000   ; qtot 85.051898
 4166         h1    211    ccc     H6   4166 0.13870000   1.008000   ; qtot 85.190598
 4167         hx    211    ccc     H7   4167 0.07790000   1.008000   ; qtot 85.268498
 4168         hx    211    ccc     H8   4168 0.07790000   1.008000   ; qtot 85.346398
 4169         n4    211    ccc     N2   4169 -0.16780000  14.010000   ; qtot 85.178598
 4170         hn    211    ccc     H9   4170 0.27380000   1.008000   ; qtot 85.452398
 4171         hn    211    ccc    H10   4171 0.27380000   1.008000   ; qtot 85.726198
 4172         hn    211    ccc    H11   4172 0.27380000   1.008000   ; qtot 85.999998
; residue  212 ccc rtp ccc q 1.0
 4173          n    212    ccc     N1   4173 -0.26410000  14.010000   ; qtot 85.735898
 4174         hn    212    ccc     H4   4174 0.27630000   1.008000   ; qtot 86.012198
 4175         c3    212    ccc     C3   4175 -0.17900000  12.010000   ; qtot 85.833198
 4176         c3    212    ccc     C4   4176 0.08000000  12.010000   ; qtot 85.913198
 4177         h1    212    ccc     H5   4177 0.13870000   1.008000   ; qtot 86.051898
 4178         h1    212    ccc     H6   4178 0.13870000   1.008000   ; qtot 86.190598
 4179         hx    212    ccc     H7   4179 0.07790000   1.008000   ; qtot 86.268498
 4180         hx    212    ccc     H8   4180 0.07790000   1.008000   ; qtot 86.346398
 4181         n4    212    ccc     N2   4181 -0.16780000  14.010000   ; qtot 86.178598
 4182         hn    212    ccc     H9   4182 0.27380000   1.008000   ; qtot 86.452398
 4183         hn    212    ccc    H10   4183 0.27380000   1.008000   ; qtot 86.726198
 4184         hn    212    ccc    H11   4184 0.27380000   1.008000   ; qtot 86.999998
; residue  213 ccc rtp ccc q 1.0
 4185          n    213    ccc     N1   4185 -0.26410000  14.010000   ; qtot 86.735898
 4186         hn    213    ccc     H4   4186 0.27630000   1.008000   ; qtot 87.012198
 4187         c3    213    ccc     C3   4187 -0.17900000  12.010000   ; qtot 86.833198
 4188         c3    213    ccc     C4   4188 0.08000000  12.010000   ; qtot 86.913198
 4189         h1    213    ccc     H5   4189 0.13870000   1.008000   ; qtot 87.051898
 4190         h1    213    ccc     H6   4190 0.13870000   1.008000   ; qtot 87.190598
 4191         hx    213    ccc     H7   4191 0.07790000   1.008000   ; qtot 87.268498
 4192         hx    213    ccc     H8   4192 0.07790000   1.008000   ; qtot 87.346398
 4193         n4    213    ccc     N2   4193 -0.16780000  14.010000   ; qtot 87.178598
 4194         hn    213    ccc     H9   4194 0.27380000   1.008000   ; qtot 87.452398
 4195         hn    213    ccc    H10   4195 0.27380000   1.008000   ; qtot 87.726198
 4196         hn    213    ccc    H11   4196 0.27380000   1.008000   ; qtot 87.999998
; residue  214 ccc rtp ccc q 1.0
 4197          n    214    ccc     N1   4197 -0.26410000  14.010000   ; qtot 87.735898
 4198         hn    214    ccc     H4   4198 0.27630000   1.008000   ; qtot 88.012198
 4199         c3    214    ccc     C3   4199 -0.17900000  12.010000   ; qtot 87.833198
 4200         c3    214    ccc     C4   4200 0.08000000  12.010000   ; qtot 87.913198
 4201         h1    214    ccc     H5   4201 0.13870000   1.008000   ; qtot 88.051898
 4202         h1    214    ccc     H6   4202 0.13870000   1.008000   ; qtot 88.190598
 4203         hx    214    ccc     H7   4203 0.07790000   1.008000   ; qtot 88.268498
 4204         hx    214    ccc     H8   4204 0.07790000   1.008000   ; qtot 88.346398
 4205         n4    214    ccc     N2   4205 -0.16780000  14.010000   ; qtot 88.178598
 4206         hn    214    ccc     H9   4206 0.27380000   1.008000   ; qtot 88.452398
 4207         hn    214    ccc    H10   4207 0.27380000   1.008000   ; qtot 88.726198
 4208         hn    214    ccc    H11   4208 0.27380000   1.008000   ; qtot 88.999998
; residue  215 ccc rtp ccc q 1.0
 4209          n    215    ccc     N1   4209 -0.26410000  14.010000   ; qtot 88.735898
 4210         hn    215    ccc     H4   4210 0.27630000   1.008000   ; qtot 89.012198
 4211         c3    215    ccc     C3   4211 -0.17900000  12.010000   ; qtot 88.833198
 4212         c3    215    ccc     C4   4212 0.08000000  12.010000   ; qtot 88.913198
 4213         h1    215    ccc     H5   4213 0.13870000   1.008000   ; qtot 89.051898
 4214         h1    215    ccc     H6   4214 0.13870000   1.008000   ; qtot 89.190598
 4215         hx    215    ccc     H7   4215 0.07790000   1.008000   ; qtot 89.268498
 4216         hx    215    ccc     H8   4216 0.07790000   1.008000   ; qtot 89.346398
 4217         n4    215    ccc     N2   4217 -0.16780000  14.010000   ; qtot 89.178598
 4218         hn    215    ccc     H9   4218 0.27380000   1.008000   ; qtot 89.452398
 4219         hn    215    ccc    H10   4219 0.27380000   1.008000   ; qtot 89.726198
 4220         hn    215    ccc    H11   4220 0.27380000   1.008000   ; qtot 89.999998
; residue  216 ccc rtp ccc q 1.0
 4221          n    216    ccc     N1   4221 -0.26410000  14.010000   ; qtot 89.735898
 4222         hn    216    ccc     H4   4222 0.27630000   1.008000   ; qtot 90.012198
 4223         c3    216    ccc     C3   4223 -0.17900000  12.010000   ; qtot 89.833198
 4224         c3    216    ccc     C4   4224 0.08000000  12.010000   ; qtot 89.913198
 4225         h1    216    ccc     H5   4225 0.13870000   1.008000   ; qtot 90.051898
 4226         h1    216    ccc     H6   4226 0.13870000   1.008000   ; qtot 90.190598
 4227         hx    216    ccc     H7   4227 0.07790000   1.008000   ; qtot 90.268498
 4228         hx    216    ccc     H8   4228 0.07790000   1.008000   ; qtot 90.346398
 4229         n4    216    ccc     N2   4229 -0.16780000  14.010000   ; qtot 90.178598
 4230         hn    216    ccc     H9   4230 0.27380000   1.008000   ; qtot 90.452398
 4231         hn    216    ccc    H10   4231 0.27380000   1.008000   ; qtot 90.726198
 4232         hn    216    ccc    H11   4232 0.27380000   1.008000   ; qtot 90.999998
; residue  217 ccc rtp ccc q 1.0
 4233          n    217    ccc     N1   4233 -0.26410000  14.010000   ; qtot 90.735898
 4234         hn    217    ccc     H4   4234 0.27630000   1.008000   ; qtot 91.012198
 4235         c3    217    ccc     C3   4235 -0.17900000  12.010000   ; qtot 90.833198
 4236         c3    217    ccc     C4   4236 0.08000000  12.010000   ; qtot 90.913198
 4237         h1    217    ccc     H5   4237 0.13870000   1.008000   ; qtot 91.051898
 4238         h1    217    ccc     H6   4238 0.13870000   1.008000   ; qtot 91.190598
 4239         hx    217    ccc     H7   4239 0.07790000   1.008000   ; qtot 91.268498
 4240         hx    217    ccc     H8   4240 0.07790000   1.008000   ; qtot 91.346398
 4241         n4    217    ccc     N2   4241 -0.16780000  14.010000   ; qtot 91.178598
 4242         hn    217    ccc     H9   4242 0.27380000   1.008000   ; qtot 91.452398
 4243         hn    217    ccc    H10   4243 0.27380000   1.008000   ; qtot 91.726198
 4244         hn    217    ccc    H11   4244 0.27380000   1.008000   ; qtot 91.999998
; residue  218 ccc rtp ccc q 1.0
 4245          n    218    ccc     N1   4245 -0.26410000  14.010000   ; qtot 91.735898
 4246         hn    218    ccc     H4   4246 0.27630000   1.008000   ; qtot 92.012198
 4247         c3    218    ccc     C3   4247 -0.17900000  12.010000   ; qtot 91.833198
 4248         c3    218    ccc     C4   4248 0.08000000  12.010000   ; qtot 91.913198
 4249         h1    218    ccc     H5   4249 0.13870000   1.008000   ; qtot 92.051898
 4250         h1    218    ccc     H6   4250 0.13870000   1.008000   ; qtot 92.190598
 4251         hx    218    ccc     H7   4251 0.07790000   1.008000   ; qtot 92.268498
 4252         hx    218    ccc     H8   4252 0.07790000   1.008000   ; qtot 92.346398
 4253         n4    218    ccc     N2   4253 -0.16780000  14.010000   ; qtot 92.178598
 4254         hn    218    ccc     H9   4254 0.27380000   1.008000   ; qtot 92.452398
 4255         hn    218    ccc    H10   4255 0.27380000   1.008000   ; qtot 92.726198
 4256         hn    218    ccc    H11   4256 0.27380000   1.008000   ; qtot 92.999998
; residue  219 ccc rtp ccc q 1.0
 4257          n    219    ccc     N1   4257 -0.26410000  14.010000   ; qtot 92.735898
 4258         hn    219    ccc     H4   4258 0.27630000   1.008000   ; qtot 93.012198
 4259         c3    219    ccc     C3   4259 -0.17900000  12.010000   ; qtot 92.833198
 4260         c3    219    ccc     C4   4260 0.08000000  12.010000   ; qtot 92.913198
 4261         h1    219    ccc     H5   4261 0.13870000   1.008000   ; qtot 93.051898
 4262         h1    219    ccc     H6   4262 0.13870000   1.008000   ; qtot 93.190598
 4263         hx    219    ccc     H7   4263 0.07790000   1.008000   ; qtot 93.268498
 4264         hx    219    ccc     H8   4264 0.07790000   1.008000   ; qtot 93.346398
 4265         n4    219    ccc     N2   4265 -0.16780000  14.010000   ; qtot 93.178598
 4266         hn    219    ccc     H9   4266 0.27380000   1.008000   ; qtot 93.452398
 4267         hn    219    ccc    H10   4267 0.27380000   1.008000   ; qtot 93.726198
 4268         hn    219    ccc    H11   4268 0.27380000   1.008000   ; qtot 93.999998
; residue  220 ccc rtp ccc q 1.0
 4269          n    220    ccc     N1   4269 -0.26410000  14.010000   ; qtot 93.735898
 4270         hn    220    ccc     H4   4270 0.27630000   1.008000   ; qtot 94.012198
 4271         c3    220    ccc     C3   4271 -0.17900000  12.010000   ; qtot 93.833198
 4272         c3    220    ccc     C4   4272 0.08000000  12.010000   ; qtot 93.913198
 4273         h1    220    ccc     H5   4273 0.13870000   1.008000   ; qtot 94.051898
 4274         h1    220    ccc     H6   4274 0.13870000   1.008000   ; qtot 94.190598
 4275         hx    220    ccc     H7   4275 0.07790000   1.008000   ; qtot 94.268498
 4276         hx    220    ccc     H8   4276 0.07790000   1.008000   ; qtot 94.346398
 4277         n4    220    ccc     N2   4277 -0.16780000  14.010000   ; qtot 94.178598
 4278         hn    220    ccc     H9   4278 0.27380000   1.008000   ; qtot 94.452398
 4279         hn    220    ccc    H10   4279 0.27380000   1.008000   ; qtot 94.726198
 4280         hn    220    ccc    H11   4280 0.27380000   1.008000   ; qtot 94.999998
; residue  221 ccc rtp ccc q 1.0
 4281          n    221    ccc     N1   4281 -0.26410000  14.010000   ; qtot 94.735898
 4282         hn    221    ccc     H4   4282 0.27630000   1.008000   ; qtot 95.012198
 4283         c3    221    ccc     C3   4283 -0.17900000  12.010000   ; qtot 94.833198
 4284         c3    221    ccc     C4   4284 0.08000000  12.010000   ; qtot 94.913198
 4285         h1    221    ccc     H5   4285 0.13870000   1.008000   ; qtot 95.051898
 4286         h1    221    ccc     H6   4286 0.13870000   1.008000   ; qtot 95.190598
 4287         hx    221    ccc     H7   4287 0.07790000   1.008000   ; qtot 95.268498
 4288         hx    221    ccc     H8   4288 0.07790000   1.008000   ; qtot 95.346398
 4289         n4    221    ccc     N2   4289 -0.16780000  14.010000   ; qtot 95.178598
 4290         hn    221    ccc     H9   4290 0.27380000   1.008000   ; qtot 95.452398
 4291         hn    221    ccc    H10   4291 0.27380000   1.008000   ; qtot 95.726198
 4292         hn    221    ccc    H11   4292 0.27380000   1.008000   ; qtot 95.999998
; residue  222 ccc rtp ccc q 1.0
 4293          n    222    ccc     N1   4293 -0.26410000  14.010000   ; qtot 95.735898
 4294         hn    222    ccc     H4   4294 0.27630000   1.008000   ; qtot 96.012198
 4295         c3    222    ccc     C3   4295 -0.17900000  12.010000   ; qtot 95.833198
 4296         c3    222    ccc     C4   4296 0.08000000  12.010000   ; qtot 95.913198
 4297         h1    222    ccc     H5   4297 0.13870000   1.008000   ; qtot 96.051898
 4298         h1    222    ccc     H6   4298 0.13870000   1.008000   ; qtot 96.190598
 4299         hx    222    ccc     H7   4299 0.07790000   1.008000   ; qtot 96.268498
 4300         hx    222    ccc     H8   4300 0.07790000   1.008000   ; qtot 96.346398
 4301         n4    222    ccc     N2   4301 -0.16780000  14.010000   ; qtot 96.178598
 4302         hn    222    ccc     H9   4302 0.27380000   1.008000   ; qtot 96.452398
 4303         hn    222    ccc    H10   4303 0.27380000   1.008000   ; qtot 96.726198
 4304         hn    222    ccc    H11   4304 0.27380000   1.008000   ; qtot 96.999998
; residue  223 ccc rtp ccc q 1.0
 4305          n    223    ccc     N1   4305 -0.26410000  14.010000   ; qtot 96.735898
 4306         hn    223    ccc     H4   4306 0.27630000   1.008000   ; qtot 97.012198
 4307         c3    223    ccc     C3   4307 -0.17900000  12.010000   ; qtot 96.833198
 4308         c3    223    ccc     C4   4308 0.08000000  12.010000   ; qtot 96.913198
 4309         h1    223    ccc     H5   4309 0.13870000   1.008000   ; qtot 97.051898
 4310         h1    223    ccc     H6   4310 0.13870000   1.008000   ; qtot 97.190598
 4311         hx    223    ccc     H7   4311 0.07790000   1.008000   ; qtot 97.268498
 4312         hx    223    ccc     H8   4312 0.07790000   1.008000   ; qtot 97.346398
 4313         n4    223    ccc     N2   4313 -0.16780000  14.010000   ; qtot 97.178598
 4314         hn    223    ccc     H9   4314 0.27380000   1.008000   ; qtot 97.452398
 4315         hn    223    ccc    H10   4315 0.27380000   1.008000   ; qtot 97.726198
 4316         hn    223    ccc    H11   4316 0.27380000   1.008000   ; qtot 97.999998
; residue  224 ccc rtp ccc q 1.0
 4317          n    224    ccc     N1   4317 -0.26410000  14.010000   ; qtot 97.735898
 4318         hn    224    ccc     H4   4318 0.27630000   1.008000   ; qtot 98.012198
 4319         c3    224    ccc     C3   4319 -0.17900000  12.010000   ; qtot 97.833198
 4320         c3    224    ccc     C4   4320 0.08000000  12.010000   ; qtot 97.913198
 4321         h1    224    ccc     H5   4321 0.13870000   1.008000   ; qtot 98.051898
 4322         h1    224    ccc     H6   4322 0.13870000   1.008000   ; qtot 98.190598
 4323         hx    224    ccc     H7   4323 0.07790000   1.008000   ; qtot 98.268498
 4324         hx    224    ccc     H8   4324 0.07790000   1.008000   ; qtot 98.346398
 4325         n4    224    ccc     N2   4325 -0.16780000  14.010000   ; qtot 98.178598
 4326         hn    224    ccc     H9   4326 0.27380000   1.008000   ; qtot 98.452398
 4327         hn    224    ccc    H10   4327 0.27380000   1.008000   ; qtot 98.726198
 4328         hn    224    ccc    H11   4328 0.27380000   1.008000   ; qtot 98.999998
; residue  225 ccc rtp ccc q 1.0
 4329          n    225    ccc     N1   4329 -0.26410000  14.010000   ; qtot 98.735898
 4330         hn    225    ccc     H4   4330 0.27630000   1.008000   ; qtot 99.012198
 4331         c3    225    ccc     C3   4331 -0.17900000  12.010000   ; qtot 98.833198
 4332         c3    225    ccc     C4   4332 0.08000000  12.010000   ; qtot 98.913198
 4333         h1    225    ccc     H5   4333 0.13870000   1.008000   ; qtot 99.051898
 4334         h1    225    ccc     H6   4334 0.13870000   1.008000   ; qtot 99.190598
 4335         hx    225    ccc     H7   4335 0.07790000   1.008000   ; qtot 99.268498
 4336         hx    225    ccc     H8   4336 0.07790000   1.008000   ; qtot 99.346398
 4337         n4    225    ccc     N2   4337 -0.16780000  14.010000   ; qtot 99.178598
 4338         hn    225    ccc     H9   4338 0.27380000   1.008000   ; qtot 99.452398
 4339         hn    225    ccc    H10   4339 0.27380000   1.008000   ; qtot 99.726198
 4340         hn    225    ccc    H11   4340 0.27380000   1.008000   ; qtot 99.999998
; residue  226 ccc rtp ccc q 1.0
 4341          n    226    ccc     N1   4341 -0.26410000  14.010000   ; qtot 99.735898
 4342         hn    226    ccc     H4   4342 0.27630000   1.008000   ; qtot 100.012198
 4343         c3    226    ccc     C3   4343 -0.17900000  12.010000   ; qtot 99.833198
 4344         c3    226    ccc     C4   4344 0.08000000  12.010000   ; qtot 99.913198
 4345         h1    226    ccc     H5   4345 0.13870000   1.008000   ; qtot 100.051898
 4346         h1    226    ccc     H6   4346 0.13870000   1.008000   ; qtot 100.190598
 4347         hx    226    ccc     H7   4347 0.07790000   1.008000   ; qtot 100.268498
 4348         hx    226    ccc     H8   4348 0.07790000   1.008000   ; qtot 100.346398
 4349         n4    226    ccc     N2   4349 -0.16780000  14.010000   ; qtot 100.178598
 4350         hn    226    ccc     H9   4350 0.27380000   1.008000   ; qtot 100.452398
 4351         hn    226    ccc    H10   4351 0.27380000   1.008000   ; qtot 100.726198
 4352         hn    226    ccc    H11   4352 0.27380000   1.008000   ; qtot 100.999998
; residue  227 ccc rtp ccc q 1.0
 4353          n    227    ccc     N1   4353 -0.26410000  14.010000   ; qtot 100.735898
 4354         hn    227    ccc     H4   4354 0.27630000   1.008000   ; qtot 101.012198
 4355         c3    227    ccc     C3   4355 -0.17900000  12.010000   ; qtot 100.833198
 4356         c3    227    ccc     C4   4356 0.08000000  12.010000   ; qtot 100.913198
 4357         h1    227    ccc     H5   4357 0.13870000   1.008000   ; qtot 101.051898
 4358         h1    227    ccc     H6   4358 0.13870000   1.008000   ; qtot 101.190598
 4359         hx    227    ccc     H7   4359 0.07790000   1.008000   ; qtot 101.268498
 4360         hx    227    ccc     H8   4360 0.07790000   1.008000   ; qtot 101.346398
 4361         n4    227    ccc     N2   4361 -0.16780000  14.010000   ; qtot 101.178598
 4362         hn    227    ccc     H9   4362 0.27380000   1.008000   ; qtot 101.452398
 4363         hn    227    ccc    H10   4363 0.27380000   1.008000   ; qtot 101.726198
 4364         hn    227    ccc    H11   4364 0.27380000   1.008000   ; qtot 101.999998
; residue  228 ccc rtp ccc q 1.0
 4365          n    228    ccc     N1   4365 -0.26410000  14.010000   ; qtot 101.735898
 4366         hn    228    ccc     H4   4366 0.27630000   1.008000   ; qtot 102.012198
 4367         c3    228    ccc     C3   4367 -0.17900000  12.010000   ; qtot 101.833198
 4368         c3    228    ccc     C4   4368 0.08000000  12.010000   ; qtot 101.913198
 4369         h1    228    ccc     H5   4369 0.13870000   1.008000   ; qtot 102.051898
 4370         h1    228    ccc     H6   4370 0.13870000   1.008000   ; qtot 102.190598
 4371         hx    228    ccc     H7   4371 0.07790000   1.008000   ; qtot 102.268498
 4372         hx    228    ccc     H8   4372 0.07790000   1.008000   ; qtot 102.346398
 4373         n4    228    ccc     N2   4373 -0.16780000  14.010000   ; qtot 102.178598
 4374         hn    228    ccc     H9   4374 0.27380000   1.008000   ; qtot 102.452398
 4375         hn    228    ccc    H10   4375 0.27380000   1.008000   ; qtot 102.726198
 4376         hn    228    ccc    H11   4376 0.27380000   1.008000   ; qtot 102.999998
; residue  229 ccc rtp ccc q 1.0
 4377          n    229    ccc     N1   4377 -0.26410000  14.010000   ; qtot 102.735898
 4378         hn    229    ccc     H4   4378 0.27630000   1.008000   ; qtot 103.012198
 4379         c3    229    ccc     C3   4379 -0.17900000  12.010000   ; qtot 102.833198
 4380         c3    229    ccc     C4   4380 0.08000000  12.010000   ; qtot 102.913198
 4381         h1    229    ccc     H5   4381 0.13870000   1.008000   ; qtot 103.051898
 4382         h1    229    ccc     H6   4382 0.13870000   1.008000   ; qtot 103.190598
 4383         hx    229    ccc     H7   4383 0.07790000   1.008000   ; qtot 103.268498
 4384         hx    229    ccc     H8   4384 0.07790000   1.008000   ; qtot 103.346398
 4385         n4    229    ccc     N2   4385 -0.16780000  14.010000   ; qtot 103.178598
 4386         hn    229    ccc     H9   4386 0.27380000   1.008000   ; qtot 103.452398
 4387         hn    229    ccc    H10   4387 0.27380000   1.008000   ; qtot 103.726198
 4388         hn    229    ccc    H11   4388 0.27380000   1.008000   ; qtot 103.999998
; residue  230 ccc rtp ccc q 1.0
 4389          n    230    ccc     N1   4389 -0.26410000  14.010000   ; qtot 103.735898
 4390         hn    230    ccc     H4   4390 0.27630000   1.008000   ; qtot 104.012198
 4391         c3    230    ccc     C3   4391 -0.17900000  12.010000   ; qtot 103.833198
 4392         c3    230    ccc     C4   4392 0.08000000  12.010000   ; qtot 103.913198
 4393         h1    230    ccc     H5   4393 0.13870000   1.008000   ; qtot 104.051898
 4394         h1    230    ccc     H6   4394 0.13870000   1.008000   ; qtot 104.190598
 4395         hx    230    ccc     H7   4395 0.07790000   1.008000   ; qtot 104.268498
 4396         hx    230    ccc     H8   4396 0.07790000   1.008000   ; qtot 104.346398
 4397         n4    230    ccc     N2   4397 -0.16780000  14.010000   ; qtot 104.178598
 4398         hn    230    ccc     H9   4398 0.27380000   1.008000   ; qtot 104.452398
 4399         hn    230    ccc    H10   4399 0.27380000   1.008000   ; qtot 104.726198
 4400         hn    230    ccc    H11   4400 0.27380000   1.008000   ; qtot 104.999998
; residue  231 ccc rtp ccc q 1.0
 4401          n    231    ccc     N1   4401 -0.26410000  14.010000   ; qtot 104.735898
 4402         hn    231    ccc     H4   4402 0.27630000   1.008000   ; qtot 105.012198
 4403         c3    231    ccc     C3   4403 -0.17900000  12.010000   ; qtot 104.833198
 4404         c3    231    ccc     C4   4404 0.08000000  12.010000   ; qtot 104.913198
 4405         h1    231    ccc     H5   4405 0.13870000   1.008000   ; qtot 105.051898
 4406         h1    231    ccc     H6   4406 0.13870000   1.008000   ; qtot 105.190598
 4407         hx    231    ccc     H7   4407 0.07790000   1.008000   ; qtot 105.268498
 4408         hx    231    ccc     H8   4408 0.07790000   1.008000   ; qtot 105.346398
 4409         n4    231    ccc     N2   4409 -0.16780000  14.010000   ; qtot 105.178598
 4410         hn    231    ccc     H9   4410 0.27380000   1.008000   ; qtot 105.452398
 4411         hn    231    ccc    H10   4411 0.27380000   1.008000   ; qtot 105.726198
 4412         hn    231    ccc    H11   4412 0.27380000   1.008000   ; qtot 105.999998
; residue  232 ccc rtp ccc q 1.0
 4413          n    232    ccc     N1   4413 -0.26410000  14.010000   ; qtot 105.735898
 4414         hn    232    ccc     H4   4414 0.27630000   1.008000   ; qtot 106.012198
 4415         c3    232    ccc     C3   4415 -0.17900000  12.010000   ; qtot 105.833198
 4416         c3    232    ccc     C4   4416 0.08000000  12.010000   ; qtot 105.913198
 4417         h1    232    ccc     H5   4417 0.13870000   1.008000   ; qtot 106.051898
 4418         h1    232    ccc     H6   4418 0.13870000   1.008000   ; qtot 106.190598
 4419         hx    232    ccc     H7   4419 0.07790000   1.008000   ; qtot 106.268498
 4420         hx    232    ccc     H8   4420 0.07790000   1.008000   ; qtot 106.346398
 4421         n4    232    ccc     N2   4421 -0.16780000  14.010000   ; qtot 106.178598
 4422         hn    232    ccc     H9   4422 0.27380000   1.008000   ; qtot 106.452398
 4423         hn    232    ccc    H10   4423 0.27380000   1.008000   ; qtot 106.726198
 4424         hn    232    ccc    H11   4424 0.27380000   1.008000   ; qtot 106.999998
; residue  233 ccc rtp ccc q 1.0
 4425          n    233    ccc     N1   4425 -0.26410000  14.010000   ; qtot 106.735898
 4426         hn    233    ccc     H4   4426 0.27630000   1.008000   ; qtot 107.012198
 4427         c3    233    ccc     C3   4427 -0.17900000  12.010000   ; qtot 106.833198
 4428         c3    233    ccc     C4   4428 0.08000000  12.010000   ; qtot 106.913198
 4429         h1    233    ccc     H5   4429 0.13870000   1.008000   ; qtot 107.051898
 4430         h1    233    ccc     H6   4430 0.13870000   1.008000   ; qtot 107.190598
 4431         hx    233    ccc     H7   4431 0.07790000   1.008000   ; qtot 107.268498
 4432         hx    233    ccc     H8   4432 0.07790000   1.008000   ; qtot 107.346398
 4433         n4    233    ccc     N2   4433 -0.16780000  14.010000   ; qtot 107.178598
 4434         hn    233    ccc     H9   4434 0.27380000   1.008000   ; qtot 107.452398
 4435         hn    233    ccc    H10   4435 0.27380000   1.008000   ; qtot 107.726198
 4436         hn    233    ccc    H11   4436 0.27380000   1.008000   ; qtot 107.999998
; residue  234 ccc rtp ccc q 1.0
 4437          n    234    ccc     N1   4437 -0.26410000  14.010000   ; qtot 107.735898
 4438         hn    234    ccc     H4   4438 0.27630000   1.008000   ; qtot 108.012198
 4439         c3    234    ccc     C3   4439 -0.17900000  12.010000   ; qtot 107.833198
 4440         c3    234    ccc     C4   4440 0.08000000  12.010000   ; qtot 107.913198
 4441         h1    234    ccc     H5   4441 0.13870000   1.008000   ; qtot 108.051898
 4442         h1    234    ccc     H6   4442 0.13870000   1.008000   ; qtot 108.190598
 4443         hx    234    ccc     H7   4443 0.07790000   1.008000   ; qtot 108.268498
 4444         hx    234    ccc     H8   4444 0.07790000   1.008000   ; qtot 108.346398
 4445         n4    234    ccc     N2   4445 -0.16780000  14.010000   ; qtot 108.178598
 4446         hn    234    ccc     H9   4446 0.27380000   1.008000   ; qtot 108.452398
 4447         hn    234    ccc    H10   4447 0.27380000   1.008000   ; qtot 108.726198
 4448         hn    234    ccc    H11   4448 0.27380000   1.008000   ; qtot 108.999998
; residue  235 ccc rtp ccc q 1.0
 4449          n    235    ccc     N1   4449 -0.26410000  14.010000   ; qtot 108.735898
 4450         hn    235    ccc     H4   4450 0.27630000   1.008000   ; qtot 109.012198
 4451         c3    235    ccc     C3   4451 -0.17900000  12.010000   ; qtot 108.833198
 4452         c3    235    ccc     C4   4452 0.08000000  12.010000   ; qtot 108.913198
 4453         h1    235    ccc     H5   4453 0.13870000   1.008000   ; qtot 109.051898
 4454         h1    235    ccc     H6   4454 0.13870000   1.008000   ; qtot 109.190598
 4455         hx    235    ccc     H7   4455 0.07790000   1.008000   ; qtot 109.268498
 4456         hx    235    ccc     H8   4456 0.07790000   1.008000   ; qtot 109.346398
 4457         n4    235    ccc     N2   4457 -0.16780000  14.010000   ; qtot 109.178598
 4458         hn    235    ccc     H9   4458 0.27380000   1.008000   ; qtot 109.452398
 4459         hn    235    ccc    H10   4459 0.27380000   1.008000   ; qtot 109.726198
 4460         hn    235    ccc    H11   4460 0.27380000   1.008000   ; qtot 109.999998
; residue  236 ccc rtp ccc q 1.0
 4461          n    236    ccc     N1   4461 -0.26410000  14.010000   ; qtot 109.735898
 4462         hn    236    ccc     H4   4462 0.27630000   1.008000   ; qtot 110.012198
 4463         c3    236    ccc     C3   4463 -0.17900000  12.010000   ; qtot 109.833198
 4464         c3    236    ccc     C4   4464 0.08000000  12.010000   ; qtot 109.913198
 4465         h1    236    ccc     H5   4465 0.13870000   1.008000   ; qtot 110.051898
 4466         h1    236    ccc     H6   4466 0.13870000   1.008000   ; qtot 110.190598
 4467         hx    236    ccc     H7   4467 0.07790000   1.008000   ; qtot 110.268498
 4468         hx    236    ccc     H8   4468 0.07790000   1.008000   ; qtot 110.346398
 4469         n4    236    ccc     N2   4469 -0.16780000  14.010000   ; qtot 110.178598
 4470         hn    236    ccc     H9   4470 0.27380000   1.008000   ; qtot 110.452398
 4471         hn    236    ccc    H10   4471 0.27380000   1.008000   ; qtot 110.726198
 4472         hn    236    ccc    H11   4472 0.27380000   1.008000   ; qtot 110.999998
; residue  237 ccc rtp ccc q 1.0
 4473          n    237    ccc     N1   4473 -0.26410000  14.010000   ; qtot 110.735898
 4474         hn    237    ccc     H4   4474 0.27630000   1.008000   ; qtot 111.012198
 4475         c3    237    ccc     C3   4475 -0.17900000  12.010000   ; qtot 110.833198
 4476         c3    237    ccc     C4   4476 0.08000000  12.010000   ; qtot 110.913198
 4477         h1    237    ccc     H5   4477 0.13870000   1.008000   ; qtot 111.051898
 4478         h1    237    ccc     H6   4478 0.13870000   1.008000   ; qtot 111.190598
 4479         hx    237    ccc     H7   4479 0.07790000   1.008000   ; qtot 111.268498
 4480         hx    237    ccc     H8   4480 0.07790000   1.008000   ; qtot 111.346398
 4481         n4    237    ccc     N2   4481 -0.16780000  14.010000   ; qtot 111.178598
 4482         hn    237    ccc     H9   4482 0.27380000   1.008000   ; qtot 111.452398
 4483         hn    237    ccc    H10   4483 0.27380000   1.008000   ; qtot 111.726198
 4484         hn    237    ccc    H11   4484 0.27380000   1.008000   ; qtot 111.999998
; residue  238 ccc rtp ccc q 1.0
 4485          n    238    ccc     N1   4485 -0.26410000  14.010000   ; qtot 111.735898
 4486         hn    238    ccc     H4   4486 0.27630000   1.008000   ; qtot 112.012198
 4487         c3    238    ccc     C3   4487 -0.17900000  12.010000   ; qtot 111.833198
 4488         c3    238    ccc     C4   4488 0.08000000  12.010000   ; qtot 111.913198
 4489         h1    238    ccc     H5   4489 0.13870000   1.008000   ; qtot 112.051898
 4490         h1    238    ccc     H6   4490 0.13870000   1.008000   ; qtot 112.190598
 4491         hx    238    ccc     H7   4491 0.07790000   1.008000   ; qtot 112.268498
 4492         hx    238    ccc     H8   4492 0.07790000   1.008000   ; qtot 112.346398
 4493         n4    238    ccc     N2   4493 -0.16780000  14.010000   ; qtot 112.178598
 4494         hn    238    ccc     H9   4494 0.27380000   1.008000   ; qtot 112.452398
 4495         hn    238    ccc    H10   4495 0.27380000   1.008000   ; qtot 112.726198
 4496         hn    238    ccc    H11   4496 0.27380000   1.008000   ; qtot 112.999998
; residue  239 ccc rtp ccc q 1.0
 4497          n    239    ccc     N1   4497 -0.26410000  14.010000   ; qtot 112.735898
 4498         hn    239    ccc     H4   4498 0.27630000   1.008000   ; qtot 113.012198
 4499         c3    239    ccc     C3   4499 -0.17900000  12.010000   ; qtot 112.833198
 4500         c3    239    ccc     C4   4500 0.08000000  12.010000   ; qtot 112.913198
 4501         h1    239    ccc     H5   4501 0.13870000   1.008000   ; qtot 113.051898
 4502         h1    239    ccc     H6   4502 0.13870000   1.008000   ; qtot 113.190598
 4503         hx    239    ccc     H7   4503 0.07790000   1.008000   ; qtot 113.268498
 4504         hx    239    ccc     H8   4504 0.07790000   1.008000   ; qtot 113.346398
 4505         n4    239    ccc     N2   4505 -0.16780000  14.010000   ; qtot 113.178598
 4506         hn    239    ccc     H9   4506 0.27380000   1.008000   ; qtot 113.452398
 4507         hn    239    ccc    H10   4507 0.27380000   1.008000   ; qtot 113.726198
 4508         hn    239    ccc    H11   4508 0.27380000   1.008000   ; qtot 113.999998
; residue  240 ccc rtp ccc q 1.0
 4509          n    240    ccc     N1   4509 -0.26410000  14.010000   ; qtot 113.735898
 4510         hn    240    ccc     H4   4510 0.27630000   1.008000   ; qtot 114.012198
 4511         c3    240    ccc     C3   4511 -0.17900000  12.010000   ; qtot 113.833198
 4512         c3    240    ccc     C4   4512 0.08000000  12.010000   ; qtot 113.913198
 4513         h1    240    ccc     H5   4513 0.13870000   1.008000   ; qtot 114.051898
 4514         h1    240    ccc     H6   4514 0.13870000   1.008000   ; qtot 114.190598
 4515         hx    240    ccc     H7   4515 0.07790000   1.008000   ; qtot 114.268498
 4516         hx    240    ccc     H8   4516 0.07790000   1.008000   ; qtot 114.346398
 4517         n4    240    ccc     N2   4517 -0.16780000  14.010000   ; qtot 114.178598
 4518         hn    240    ccc     H9   4518 0.27380000   1.008000   ; qtot 114.452398
 4519         hn    240    ccc    H10   4519 0.27380000   1.008000   ; qtot 114.726198
 4520         hn    240    ccc    H11   4520 0.27380000   1.008000   ; qtot 114.999998
; residue  241 ccc rtp ccc q 1.0
 4521          n    241    ccc     N1   4521 -0.26410000  14.010000   ; qtot 114.735898
 4522         hn    241    ccc     H4   4522 0.27630000   1.008000   ; qtot 115.012198
 4523         c3    241    ccc     C3   4523 -0.17900000  12.010000   ; qtot 114.833198
 4524         c3    241    ccc     C4   4524 0.08000000  12.010000   ; qtot 114.913198
 4525         h1    241    ccc     H5   4525 0.13870000   1.008000   ; qtot 115.051898
 4526         h1    241    ccc     H6   4526 0.13870000   1.008000   ; qtot 115.190598
 4527         hx    241    ccc     H7   4527 0.07790000   1.008000   ; qtot 115.268498
 4528         hx    241    ccc     H8   4528 0.07790000   1.008000   ; qtot 115.346398
 4529         n4    241    ccc     N2   4529 -0.16780000  14.010000   ; qtot 115.178598
 4530         hn    241    ccc     H9   4530 0.27380000   1.008000   ; qtot 115.452398
 4531         hn    241    ccc    H10   4531 0.27380000   1.008000   ; qtot 115.726198
 4532         hn    241    ccc    H11   4532 0.27380000   1.008000   ; qtot 115.999998
; residue  242 ccc rtp ccc q 1.0
 4533          n    242    ccc     N1   4533 -0.26410000  14.010000   ; qtot 115.735898
 4534         hn    242    ccc     H4   4534 0.27630000   1.008000   ; qtot 116.012198
 4535         c3    242    ccc     C3   4535 -0.17900000  12.010000   ; qtot 115.833198
 4536         c3    242    ccc     C4   4536 0.08000000  12.010000   ; qtot 115.913198
 4537         h1    242    ccc     H5   4537 0.13870000   1.008000   ; qtot 116.051898
 4538         h1    242    ccc     H6   4538 0.13870000   1.008000   ; qtot 116.190598
 4539         hx    242    ccc     H7   4539 0.07790000   1.008000   ; qtot 116.268498
 4540         hx    242    ccc     H8   4540 0.07790000   1.008000   ; qtot 116.346398
 4541         n4    242    ccc     N2   4541 -0.16780000  14.010000   ; qtot 116.178598
 4542         hn    242    ccc     H9   4542 0.27380000   1.008000   ; qtot 116.452398
 4543         hn    242    ccc    H10   4543 0.27380000   1.008000   ; qtot 116.726198
 4544         hn    242    ccc    H11   4544 0.27380000   1.008000   ; qtot 116.999998
; residue  243 ccc rtp ccc q 1.0
 4545          n    243    ccc     N1   4545 -0.26410000  14.010000   ; qtot 116.735898
 4546         hn    243    ccc     H4   4546 0.27630000   1.008000   ; qtot 117.012198
 4547         c3    243    ccc     C3   4547 -0.17900000  12.010000   ; qtot 116.833198
 4548         c3    243    ccc     C4   4548 0.08000000  12.010000   ; qtot 116.913198
 4549         h1    243    ccc     H5   4549 0.13870000   1.008000   ; qtot 117.051898
 4550         h1    243    ccc     H6   4550 0.13870000   1.008000   ; qtot 117.190598
 4551         hx    243    ccc     H7   4551 0.07790000   1.008000   ; qtot 117.268498
 4552         hx    243    ccc     H8   4552 0.07790000   1.008000   ; qtot 117.346398
 4553         n4    243    ccc     N2   4553 -0.16780000  14.010000   ; qtot 117.178598
 4554         hn    243    ccc     H9   4554 0.27380000   1.008000   ; qtot 117.452398
 4555         hn    243    ccc    H10   4555 0.27380000   1.008000   ; qtot 117.726198
 4556         hn    243    ccc    H11   4556 0.27380000   1.008000   ; qtot 117.999998
; residue  244 ccc rtp ccc q 1.0
 4557          n    244    ccc     N1   4557 -0.26410000  14.010000   ; qtot 117.735898
 4558         hn    244    ccc     H4   4558 0.27630000   1.008000   ; qtot 118.012198
 4559         c3    244    ccc     C3   4559 -0.17900000  12.010000   ; qtot 117.833198
 4560         c3    244    ccc     C4   4560 0.08000000  12.010000   ; qtot 117.913198
 4561         h1    244    ccc     H5   4561 0.13870000   1.008000   ; qtot 118.051898
 4562         h1    244    ccc     H6   4562 0.13870000   1.008000   ; qtot 118.190598
 4563         hx    244    ccc     H7   4563 0.07790000   1.008000   ; qtot 118.268498
 4564         hx    244    ccc     H8   4564 0.07790000   1.008000   ; qtot 118.346398
 4565         n4    244    ccc     N2   4565 -0.16780000  14.010000   ; qtot 118.178598
 4566         hn    244    ccc     H9   4566 0.27380000   1.008000   ; qtot 118.452398
 4567         hn    244    ccc    H10   4567 0.27380000   1.008000   ; qtot 118.726198
 4568         hn    244    ccc    H11   4568 0.27380000   1.008000   ; qtot 118.999998
; residue  245 ccc rtp ccc q 1.0
 4569          n    245    ccc     N1   4569 -0.26410000  14.010000   ; qtot 118.735898
 4570         hn    245    ccc     H4   4570 0.27630000   1.008000   ; qtot 119.012198
 4571         c3    245    ccc     C3   4571 -0.17900000  12.010000   ; qtot 118.833198
 4572         c3    245    ccc     C4   4572 0.08000000  12.010000   ; qtot 118.913198
 4573         h1    245    ccc     H5   4573 0.13870000   1.008000   ; qtot 119.051898
 4574         h1    245    ccc     H6   4574 0.13870000   1.008000   ; qtot 119.190598
 4575         hx    245    ccc     H7   4575 0.07790000   1.008000   ; qtot 119.268498
 4576         hx    245    ccc     H8   4576 0.07790000   1.008000   ; qtot 119.346398
 4577         n4    245    ccc     N2   4577 -0.16780000  14.010000   ; qtot 119.178598
 4578         hn    245    ccc     H9   4578 0.27380000   1.008000   ; qtot 119.452398
 4579         hn    245    ccc    H10   4579 0.27380000   1.008000   ; qtot 119.726198
 4580         hn    245    ccc    H11   4580 0.27380000   1.008000   ; qtot 119.999998
; residue  246 ccc rtp ccc q 1.0
 4581          n    246    ccc     N1   4581 -0.26410000  14.010000   ; qtot 119.735898
 4582         hn    246    ccc     H4   4582 0.27630000   1.008000   ; qtot 120.012198
 4583         c3    246    ccc     C3   4583 -0.17900000  12.010000   ; qtot 119.833198
 4584         c3    246    ccc     C4   4584 0.08000000  12.010000   ; qtot 119.913198
 4585         h1    246    ccc     H5   4585 0.13870000   1.008000   ; qtot 120.051898
 4586         h1    246    ccc     H6   4586 0.13870000   1.008000   ; qtot 120.190598
 4587         hx    246    ccc     H7   4587 0.07790000   1.008000   ; qtot 120.268498
 4588         hx    246    ccc     H8   4588 0.07790000   1.008000   ; qtot 120.346398
 4589         n4    246    ccc     N2   4589 -0.16780000  14.010000   ; qtot 120.178598
 4590         hn    246    ccc     H9   4590 0.27380000   1.008000   ; qtot 120.452398
 4591         hn    246    ccc    H10   4591 0.27380000   1.008000   ; qtot 120.726198
 4592         hn    246    ccc    H11   4592 0.27380000   1.008000   ; qtot 120.999998
; residue  247 ccc rtp ccc q 1.0
 4593          n    247    ccc     N1   4593 -0.26410000  14.010000   ; qtot 120.735898
 4594         hn    247    ccc     H4   4594 0.27630000   1.008000   ; qtot 121.012198
 4595         c3    247    ccc     C3   4595 -0.17900000  12.010000   ; qtot 120.833198
 4596         c3    247    ccc     C4   4596 0.08000000  12.010000   ; qtot 120.913198
 4597         h1    247    ccc     H5   4597 0.13870000   1.008000   ; qtot 121.051898
 4598         h1    247    ccc     H6   4598 0.13870000   1.008000   ; qtot 121.190598
 4599         hx    247    ccc     H7   4599 0.07790000   1.008000   ; qtot 121.268498
 4600         hx    247    ccc     H8   4600 0.07790000   1.008000   ; qtot 121.346398
 4601         n4    247    ccc     N2   4601 -0.16780000  14.010000   ; qtot 121.178598
 4602         hn    247    ccc     H9   4602 0.27380000   1.008000   ; qtot 121.452398
 4603         hn    247    ccc    H10   4603 0.27380000   1.008000   ; qtot 121.726198
 4604         hn    247    ccc    H11   4604 0.27380000   1.008000   ; qtot 121.999998
; residue  248 ccc rtp ccc q 1.0
 4605          n    248    ccc     N1   4605 -0.26410000  14.010000   ; qtot 121.735898
 4606         hn    248    ccc     H4   4606 0.27630000   1.008000   ; qtot 122.012198
 4607         c3    248    ccc     C3   4607 -0.17900000  12.010000   ; qtot 121.833198
 4608         c3    248    ccc     C4   4608 0.08000000  12.010000   ; qtot 121.913198
 4609         h1    248    ccc     H5   4609 0.13870000   1.008000   ; qtot 122.051898
 4610         h1    248    ccc     H6   4610 0.13870000   1.008000   ; qtot 122.190598
 4611         hx    248    ccc     H7   4611 0.07790000   1.008000   ; qtot 122.268498
 4612         hx    248    ccc     H8   4612 0.07790000   1.008000   ; qtot 122.346398
 4613         n4    248    ccc     N2   4613 -0.16780000  14.010000   ; qtot 122.178598
 4614         hn    248    ccc     H9   4614 0.27380000   1.008000   ; qtot 122.452398
 4615         hn    248    ccc    H10   4615 0.27380000   1.008000   ; qtot 122.726198
 4616         hn    248    ccc    H11   4616 0.27380000   1.008000   ; qtot 122.999998
; residue  249 ccc rtp ccc q 1.0
 4617          n    249    ccc     N1   4617 -0.26410000  14.010000   ; qtot 122.735898
 4618         hn    249    ccc     H4   4618 0.27630000   1.008000   ; qtot 123.012198
 4619         c3    249    ccc     C3   4619 -0.17900000  12.010000   ; qtot 122.833198
 4620         c3    249    ccc     C4   4620 0.08000000  12.010000   ; qtot 122.913198
 4621         h1    249    ccc     H5   4621 0.13870000   1.008000   ; qtot 123.051898
 4622         h1    249    ccc     H6   4622 0.13870000   1.008000   ; qtot 123.190598
 4623         hx    249    ccc     H7   4623 0.07790000   1.008000   ; qtot 123.268498
 4624         hx    249    ccc     H8   4624 0.07790000   1.008000   ; qtot 123.346398
 4625         n4    249    ccc     N2   4625 -0.16780000  14.010000   ; qtot 123.178598
 4626         hn    249    ccc     H9   4626 0.27380000   1.008000   ; qtot 123.452398
 4627         hn    249    ccc    H10   4627 0.27380000   1.008000   ; qtot 123.726198
 4628         hn    249    ccc    H11   4628 0.27380000   1.008000   ; qtot 123.999998
; residue  250 ccc rtp ccc q 1.0
 4629          n    250    ccc     N1   4629 -0.26410000  14.010000   ; qtot 123.735898
 4630         hn    250    ccc     H4   4630 0.27630000   1.008000   ; qtot 124.012198
 4631         c3    250    ccc     C3   4631 -0.17900000  12.010000   ; qtot 123.833198
 4632         c3    250    ccc     C4   4632 0.08000000  12.010000   ; qtot 123.913198
 4633         h1    250    ccc     H5   4633 0.13870000   1.008000   ; qtot 124.051898
 4634         h1    250    ccc     H6   4634 0.13870000   1.008000   ; qtot 124.190598
 4635         hx    250    ccc     H7   4635 0.07790000   1.008000   ; qtot 124.268498
 4636         hx    250    ccc     H8   4636 0.07790000   1.008000   ; qtot 124.346398
 4637         n4    250    ccc     N2   4637 -0.16780000  14.010000   ; qtot 124.178598
 4638         hn    250    ccc     H9   4638 0.27380000   1.008000   ; qtot 124.452398
 4639         hn    250    ccc    H10   4639 0.27380000   1.008000   ; qtot 124.726198
 4640         hn    250    ccc    H11   4640 0.27380000   1.008000   ; qtot 124.999998
; residue  251 ccc rtp ccc q 1.0
 4641          n    251    ccc     N1   4641 -0.26410000  14.010000   ; qtot 124.735898
 4642         hn    251    ccc     H4   4642 0.27630000   1.008000   ; qtot 125.012198
 4643         c3    251    ccc     C3   4643 -0.17900000  12.010000   ; qtot 124.833198
 4644         c3    251    ccc     C4   4644 0.08000000  12.010000   ; qtot 124.913198
 4645         h1    251    ccc     H5   4645 0.13870000   1.008000   ; qtot 125.051898
 4646         h1    251    ccc     H6   4646 0.13870000   1.008000   ; qtot 125.190598
 4647         hx    251    ccc     H7   4647 0.07790000   1.008000   ; qtot 125.268498
 4648         hx    251    ccc     H8   4648 0.07790000   1.008000   ; qtot 125.346398
 4649         n4    251    ccc     N2   4649 -0.16780000  14.010000   ; qtot 125.178598
 4650         hn    251    ccc     H9   4650 0.27380000   1.008000   ; qtot 125.452398
 4651         hn    251    ccc    H10   4651 0.27380000   1.008000   ; qtot 125.726198
 4652         hn    251    ccc    H11   4652 0.27380000   1.008000   ; qtot 125.999998
; residue  252 ccc rtp ccc q 1.0
 4653          n    252    ccc     N1   4653 -0.26410000  14.010000   ; qtot 125.735898
 4654         hn    252    ccc     H4   4654 0.27630000   1.008000   ; qtot 126.012198
 4655         c3    252    ccc     C3   4655 -0.17900000  12.010000   ; qtot 125.833198
 4656         c3    252    ccc     C4   4656 0.08000000  12.010000   ; qtot 125.913198
 4657         h1    252    ccc     H5   4657 0.13870000   1.008000   ; qtot 126.051898
 4658         h1    252    ccc     H6   4658 0.13870000   1.008000   ; qtot 126.190598
 4659         hx    252    ccc     H7   4659 0.07790000   1.008000   ; qtot 126.268498
 4660         hx    252    ccc     H8   4660 0.07790000   1.008000   ; qtot 126.346398
 4661         n4    252    ccc     N2   4661 -0.16780000  14.010000   ; qtot 126.178598
 4662         hn    252    ccc     H9   4662 0.27380000   1.008000   ; qtot 126.452398
 4663         hn    252    ccc    H10   4663 0.27380000   1.008000   ; qtot 126.726198
 4664         hn    252    ccc    H11   4664 0.27380000   1.008000   ; qtot 126.999998
; residue  253 ccc rtp ccc q 1.0
 4665          n    253    ccc     N1   4665 -0.26410000  14.010000   ; qtot 126.735898
 4666         hn    253    ccc     H4   4666 0.27630000   1.008000   ; qtot 127.012198
 4667         c3    253    ccc     C3   4667 -0.17900000  12.010000   ; qtot 126.833198
 4668         c3    253    ccc     C4   4668 0.08000000  12.010000   ; qtot 126.913198
 4669         h1    253    ccc     H5   4669 0.13870000   1.008000   ; qtot 127.051898
 4670         h1    253    ccc     H6   4670 0.13870000   1.008000   ; qtot 127.190598
 4671         hx    253    ccc     H7   4671 0.07790000   1.008000   ; qtot 127.268498
 4672         hx    253    ccc     H8   4672 0.07790000   1.008000   ; qtot 127.346398
 4673         n4    253    ccc     N2   4673 -0.16780000  14.010000   ; qtot 127.178598
 4674         hn    253    ccc     H9   4674 0.27380000   1.008000   ; qtot 127.452398
 4675         hn    253    ccc    H10   4675 0.27380000   1.008000   ; qtot 127.726198
 4676         hn    253    ccc    H11   4676 0.27380000   1.008000   ; qtot 127.999998

[ bonds ]
;    ai     aj funct         c0         c1         c2         c3
      1      4     1   0.15375 251793.120000
      1      8     1   0.14647 272713.120000
      4      7     1   0.14647 272713.120000
      7     15     1   0.14647 272713.120000
      7     18     1   0.14647 272713.120000
      8      9     1   0.14647 272713.120000
      8     12     1   0.14647 272713.120000
      9     30     1   0.15375 251793.120000
     12     27     1   0.15375 251793.120000
     15     21     1   0.15375 251793.120000
     18     24     1   0.15375 251793.120000
     21     35     1   0.15241 261918.400000
     24     36     1   0.15241 261918.400000
     27     33     1   0.15241 261918.400000
     30     34     1   0.15241 261918.400000
     33     37     1   0.12183 533627.360000
     33     64     1   0.13789 357815.680000
     34     40     1   0.12183 533627.360000
     34     89     1   0.13789 357815.680000
     35     38     1   0.12183 533627.360000
     35    114     1   0.13789 357815.680000
     36     39     1   0.12183 533627.360000
     36    139     1   0.13789 357815.680000
     41     44     1   0.15375 251793.120000
     41     47     1   0.14647 272713.120000
     44     64     1   0.14619 275056.160000
     47     48     1   0.14647 272713.120000
     47     51     1   0.14647 272713.120000
     48     57     1   0.15375 251793.120000
     51     54     1   0.15375 251793.120000
     54     60     1   0.15241 261918.400000
     57     61     1   0.15241 261918.400000
     60     62     1   0.12183 533627.360000
     60    164     1   0.13789 357815.680000
     61     63     1   0.12183 533627.360000
     61    189     1   0.13789 357815.680000
     66     69     1   0.15375 251793.120000
     66     72     1   0.14647 272713.120000
     69     89     1   0.14619 275056.160000
     72     73     1   0.14647 272713.120000
     72     76     1   0.14647 272713.120000
     73     82     1   0.15375 251793.120000
     76     79     1   0.15375 251793.120000
     79     85     1   0.15241 261918.400000
     82     86     1   0.15241 261918.400000
     85     87     1   0.12183 533627.360000
     85    214     1   0.13789 357815.680000
     86     88     1   0.12183 533627.360000
     86    239     1   0.13789 357815.680000
     91     94     1   0.15375 251793.120000
     91     97     1   0.14647 272713.120000
     94    114     1   0.14619 275056.160000
     97     98     1   0.14647 272713.120000
     97    101     1   0.14647 272713.120000
     98    107     1   0.15375 251793.120000
    101    104     1   0.15375 251793.120000
    104    110     1   0.15241 261918.400000
    107    111     1   0.15241 261918.400000
    110    112     1   0.12183 533627.360000
    110    264     1   0.13789 357815.680000
    111    113     1   0.12183 533627.360000
    111    289     1   0.13789 357815.680000
    116    119     1   0.15375 251793.120000
    116    122     1   0.14647 272713.120000
    119    139     1   0.14619 275056.160000
    122    123     1   0.14647 272713.120000
    122    126     1   0.14647 272713.120000
    123    132     1   0.15375 251793.120000
    126    129     1   0.15375 251793.120000
    129    135     1   0.15241 261918.400000
    132    136     1   0.15241 261918.400000
    135    137     1   0.12183 533627.360000
    135    314     1   0.13789 357815.680000
    136    138     1   0.12183 533627.360000
    136    339     1   0.13789 357815.680000
    141    144     1   0.15375 251793.120000
    141    147     1   0.14647 272713.120000
    144    164     1   0.14619 275056.160000
    147    148     1   0.14647 272713.120000
    147    151     1   0.14647 272713.120000
    148    157     1   0.15375 251793.120000
    151    154     1   0.15375 251793.120000
    154    160     1   0.15241 261918.400000
    157    161     1   0.15241 261918.400000
    160    162     1   0.12183 533627.360000
    160    364     1   0.13789 357815.680000
    161    163     1   0.12183 533627.360000
    161    389     1   0.13789 357815.680000
    166    169     1   0.15375 251793.120000
    166    172     1   0.14647 272713.120000
    169    189     1   0.14619 275056.160000
    172    173     1   0.14647 272713.120000
    172    176     1   0.14647 272713.120000
    173    182     1   0.15375 251793.120000
    176    179     1   0.15375 251793.120000
    179    185     1   0.15241 261918.400000
    182    186     1   0.15241 261918.400000
    185    187     1   0.12183 533627.360000
    185    414     1   0.13789 357815.680000
    186    188     1   0.12183 533627.360000
    186    439     1   0.13789 357815.680000
    191    194     1   0.15375 251793.120000
    191    197     1   0.14647 272713.120000
    194    214     1   0.14619 275056.160000
    197    198     1   0.14647 272713.120000
    197    201     1   0.14647 272713.120000
    198    207     1   0.15375 251793.120000
    201    204     1   0.15375 251793.120000
    204    210     1   0.15241 261918.400000
    207    211     1   0.15241 261918.400000
    210    212     1   0.12183 533627.360000
    210    464     1   0.13789 357815.680000
    211    213     1   0.12183 533627.360000
    211    489     1   0.13789 357815.680000
    216    219     1   0.15375 251793.120000
    216    222     1   0.14647 272713.120000
    219    239     1   0.14619 275056.160000
    222    223     1   0.14647 272713.120000
    222    226     1   0.14647 272713.120000
    223    232     1   0.15375 251793.120000
    226    229     1   0.15375 251793.120000
    229    235     1   0.15241 261918.400000
    232    236     1   0.15241 261918.400000
    235    237     1   0.12183 533627.360000
    235    514     1   0.13789 357815.680000
    236    238     1   0.12183 533627.360000
    236    539     1   0.13789 357815.680000
    241    244     1   0.15375 251793.120000
    241    247     1   0.14647 272713.120000
    244    264     1   0.14619 275056.160000
    247    248     1   0.14647 272713.120000
    247    251     1   0.14647 272713.120000
    248    257     1   0.15375 251793.120000
    251    254     1   0.15375 251793.120000
    254    260     1   0.15241 261918.400000
    257    261     1   0.15241 261918.400000
    260    262     1   0.12183 533627.360000
    260    564     1   0.13789 357815.680000
    261    263     1   0.12183 533627.360000
    261    589     1   0.13789 357815.680000
    266    269     1   0.15375 251793.120000
    266    272     1   0.14647 272713.120000
    269    289     1   0.14619 275056.160000
    272    273     1   0.14647 272713.120000
    272    276     1   0.14647 272713.120000
    273    282     1   0.15375 251793.120000
    276    279     1   0.15375 251793.120000
    279    285     1   0.15241 261918.400000
    282    286     1   0.15241 261918.400000
    285    287     1   0.12183 533627.360000
    285    614     1   0.13789 357815.680000
    286    288     1   0.12183 533627.360000
    286    639     1   0.13789 357815.680000
    291    294     1   0.15375 251793.120000
    291    297     1   0.14647 272713.120000
    294    314     1   0.14619 275056.160000
    297    298     1   0.14647 272713.120000
    297    301     1   0.14647 272713.120000
    298    307     1   0.15375 251793.120000
    301    304     1   0.15375 251793.120000
    304    310     1   0.15241 261918.400000
    307    311     1   0.15241 261918.400000
    310    312     1   0.12183 533627.360000
    310    664     1   0.13789 357815.680000
    311    313     1   0.12183 533627.360000
    311    689     1   0.13789 357815.680000
    316    319     1   0.15375 251793.120000
    316    322     1   0.14647 272713.120000
    319    339     1   0.14619 275056.160000
    322    323     1   0.14647 272713.120000
    322    326     1   0.14647 272713.120000
    323    332     1   0.15375 251793.120000
    326    329     1   0.15375 251793.120000
    329    335     1   0.15241 261918.400000
    332    336     1   0.15241 261918.400000
    335    337     1   0.12183 533627.360000
    335    714     1   0.13789 357815.680000
    336    338     1   0.12183 533627.360000
    336    739     1   0.13789 357815.680000
    341    344     1   0.15375 251793.120000
    341    347     1   0.14647 272713.120000
    344    364     1   0.14619 275056.160000
    347    348     1   0.14647 272713.120000
    347    351     1   0.14647 272713.120000
    348    357     1   0.15375 251793.120000
    351    354     1   0.15375 251793.120000
    354    360     1   0.15241 261918.400000
    357    361     1   0.15241 261918.400000
    360    362     1   0.12183 533627.360000
    360    764     1   0.13789 357815.680000
    361    363     1   0.12183 533627.360000
    361    789     1   0.13789 357815.680000
    366    369     1   0.15375 251793.120000
    366    372     1   0.14647 272713.120000
    369    389     1   0.14619 275056.160000
    372    373     1   0.14647 272713.120000
    372    376     1   0.14647 272713.120000
    373    382     1   0.15375 251793.120000
    376    379     1   0.15375 251793.120000
    379    385     1   0.15241 261918.400000
    382    386     1   0.15241 261918.400000
    385    387     1   0.12183 533627.360000
    385    814     1   0.13789 357815.680000
    386    388     1   0.12183 533627.360000
    386    839     1   0.13789 357815.680000
    391    394     1   0.15375 251793.120000
    391    397     1   0.14647 272713.120000
    394    414     1   0.14619 275056.160000
    397    398     1   0.14647 272713.120000
    397    401     1   0.14647 272713.120000
    398    407     1   0.15375 251793.120000
    401    404     1   0.15375 251793.120000
    404    410     1   0.15241 261918.400000
    407    411     1   0.15241 261918.400000
    410    412     1   0.12183 533627.360000
    410    864     1   0.13789 357815.680000
    411    413     1   0.12183 533627.360000
    411    889     1   0.13789 357815.680000
    416    419     1   0.15375 251793.120000
    416    422     1   0.14647 272713.120000
    419    439     1   0.14619 275056.160000
    422    423     1   0.14647 272713.120000
    422    426     1   0.14647 272713.120000
    423    432     1   0.15375 251793.120000
    426    429     1   0.15375 251793.120000
    429    435     1   0.15241 261918.400000
    432    436     1   0.15241 261918.400000
    435    437     1   0.12183 533627.360000
    435    914     1   0.13789 357815.680000
    436    438     1   0.12183 533627.360000
    436    939     1   0.13789 357815.680000
    441    444     1   0.15375 251793.120000
    441    447     1   0.14647 272713.120000
    444    464     1   0.14619 275056.160000
    447    448     1   0.14647 272713.120000
    447    451     1   0.14647 272713.120000
    448    457     1   0.15375 251793.120000
    451    454     1   0.15375 251793.120000
    454    460     1   0.15241 261918.400000
    457    461     1   0.15241 261918.400000
    460    462     1   0.12183 533627.360000
    460    964     1   0.13789 357815.680000
    461    463     1   0.12183 533627.360000
    461    989     1   0.13789 357815.680000
    466    469     1   0.15375 251793.120000
    466    472     1   0.14647 272713.120000
    469    489     1   0.14619 275056.160000
    472    473     1   0.14647 272713.120000
    472    476     1   0.14647 272713.120000
    473    482     1   0.15375 251793.120000
    476    479     1   0.15375 251793.120000
    479    485     1   0.15241 261918.400000
    482    486     1   0.15241 261918.400000
    485    487     1   0.12183 533627.360000
    485   1014     1   0.13789 357815.680000
    486    488     1   0.12183 533627.360000
    486   1039     1   0.13789 357815.680000
    491    494     1   0.15375 251793.120000
    491    497     1   0.14647 272713.120000
    494    514     1   0.14619 275056.160000
    497    498     1   0.14647 272713.120000
    497    501     1   0.14647 272713.120000
    498    507     1   0.15375 251793.120000
    501    504     1   0.15375 251793.120000
    504    510     1   0.15241 261918.400000
    507    511     1   0.15241 261918.400000
    510    512     1   0.12183 533627.360000
    510   1064     1   0.13789 357815.680000
    511    513     1   0.12183 533627.360000
    511   1089     1   0.13789 357815.680000
    516    519     1   0.15375 251793.120000
    516    522     1   0.14647 272713.120000
    519    539     1   0.14619 275056.160000
    522    523     1   0.14647 272713.120000
    522    526     1   0.14647 272713.120000
    523    532     1   0.15375 251793.120000
    526    529     1   0.15375 251793.120000
    529    535     1   0.15241 261918.400000
    532    536     1   0.15241 261918.400000
    535    537     1   0.12183 533627.360000
    535   1114     1   0.13789 357815.680000
    536    538     1   0.12183 533627.360000
    536   1139     1   0.13789 357815.680000
    541    544     1   0.15375 251793.120000
    541    547     1   0.14647 272713.120000
    544    564     1   0.14619 275056.160000
    547    548     1   0.14647 272713.120000
    547    551     1   0.14647 272713.120000
    548    557     1   0.15375 251793.120000
    551    554     1   0.15375 251793.120000
    554    560     1   0.15241 261918.400000
    557    561     1   0.15241 261918.400000
    560    562     1   0.12183 533627.360000
    560   1164     1   0.13789 357815.680000
    561    563     1   0.12183 533627.360000
    561   1189     1   0.13789 357815.680000
    566    569     1   0.15375 251793.120000
    566    572     1   0.14647 272713.120000
    569    589     1   0.14619 275056.160000
    572    573     1   0.14647 272713.120000
    572    576     1   0.14647 272713.120000
    573    582     1   0.15375 251793.120000
    576    579     1   0.15375 251793.120000
    579    585     1   0.15241 261918.400000
    582    586     1   0.15241 261918.400000
    585    587     1   0.12183 533627.360000
    585   1214     1   0.13789 357815.680000
    586    588     1   0.12183 533627.360000
    586   1239     1   0.13789 357815.680000
    591    594     1   0.15375 251793.120000
    591    597     1   0.14647 272713.120000
    594    614     1   0.14619 275056.160000
    597    598     1   0.14647 272713.120000
    597    601     1   0.14647 272713.120000
    598    607     1   0.15375 251793.120000
    601    604     1   0.15375 251793.120000
    604    610     1   0.15241 261918.400000
    607    611     1   0.15241 261918.400000
    610    612     1   0.12183 533627.360000
    610   1264     1   0.13789 357815.680000
    611    613     1   0.12183 533627.360000
    611   1289     1   0.13789 357815.680000
    616    619     1   0.15375 251793.120000
    616    622     1   0.14647 272713.120000
    619    639     1   0.14619 275056.160000
    622    623     1   0.14647 272713.120000
    622    626     1   0.14647 272713.120000
    623    632     1   0.15375 251793.120000
    626    629     1   0.15375 251793.120000
    629    635     1   0.15241 261918.400000
    632    636     1   0.15241 261918.400000
    635    637     1   0.12183 533627.360000
    635   1314     1   0.13789 357815.680000
    636    638     1   0.12183 533627.360000
    636   1339     1   0.13789 357815.680000
    641    644     1   0.15375 251793.120000
    641    647     1   0.14647 272713.120000
    644    664     1   0.14619 275056.160000
    647    648     1   0.14647 272713.120000
    647    651     1   0.14647 272713.120000
    648    657     1   0.15375 251793.120000
    651    654     1   0.15375 251793.120000
    654    660     1   0.15241 261918.400000
    657    661     1   0.15241 261918.400000
    660    662     1   0.12183 533627.360000
    660   1364     1   0.13789 357815.680000
    661    663     1   0.12183 533627.360000
    661   1389     1   0.13789 357815.680000
    666    669     1   0.15375 251793.120000
    666    672     1   0.14647 272713.120000
    669    689     1   0.14619 275056.160000
    672    673     1   0.14647 272713.120000
    672    676     1   0.14647 272713.120000
    673    682     1   0.15375 251793.120000
    676    679     1   0.15375 251793.120000
    679    685     1   0.15241 261918.400000
    682    686     1   0.15241 261918.400000
    685    687     1   0.12183 533627.360000
    685   1414     1   0.13789 357815.680000
    686    688     1   0.12183 533627.360000
    686   1439     1   0.13789 357815.680000
    691    694     1   0.15375 251793.120000
    691    697     1   0.14647 272713.120000
    694    714     1   0.14619 275056.160000
    697    698     1   0.14647 272713.120000
    697    701     1   0.14647 272713.120000
    698    707     1   0.15375 251793.120000
    701    704     1   0.15375 251793.120000
    704    710     1   0.15241 261918.400000
    707    711     1   0.15241 261918.400000
    710    712     1   0.12183 533627.360000
    710   1464     1   0.13789 357815.680000
    711    713     1   0.12183 533627.360000
    711   1489     1   0.13789 357815.680000
    716    719     1   0.15375 251793.120000
    716    722     1   0.14647 272713.120000
    719    739     1   0.14619 275056.160000
    722    723     1   0.14647 272713.120000
    722    726     1   0.14647 272713.120000
    723    732     1   0.15375 251793.120000
    726    729     1   0.15375 251793.120000
    729    735     1   0.15241 261918.400000
    732    736     1   0.15241 261918.400000
    735    737     1   0.12183 533627.360000
    735   1514     1   0.13789 357815.680000
    736    738     1   0.12183 533627.360000
    736   1539     1   0.13789 357815.680000
    741    744     1   0.15375 251793.120000
    741    747     1   0.14647 272713.120000
    744    764     1   0.14619 275056.160000
    747    748     1   0.14647 272713.120000
    747    751     1   0.14647 272713.120000
    748    757     1   0.15375 251793.120000
    751    754     1   0.15375 251793.120000
    754    760     1   0.15241 261918.400000
    757    761     1   0.15241 261918.400000
    760    762     1   0.12183 533627.360000
    760   1564     1   0.13789 357815.680000
    761    763     1   0.12183 533627.360000
    761   1589     1   0.13789 357815.680000
    766    769     1   0.15375 251793.120000
    766    772     1   0.14647 272713.120000
    769    789     1   0.14619 275056.160000
    772    773     1   0.14647 272713.120000
    772    776     1   0.14647 272713.120000
    773    782     1   0.15375 251793.120000
    776    779     1   0.15375 251793.120000
    779    785     1   0.15241 261918.400000
    782    786     1   0.15241 261918.400000
    785    787     1   0.12183 533627.360000
    785   1614     1   0.13789 357815.680000
    786    788     1   0.12183 533627.360000
    786   1639     1   0.13789 357815.680000
    791    794     1   0.15375 251793.120000
    791    797     1   0.14647 272713.120000
    794    814     1   0.14619 275056.160000
    797    798     1   0.14647 272713.120000
    797    801     1   0.14647 272713.120000
    798    807     1   0.15375 251793.120000
    801    804     1   0.15375 251793.120000
    804    810     1   0.15241 261918.400000
    807    811     1   0.15241 261918.400000
    810    812     1   0.12183 533627.360000
    810   1664     1   0.13789 357815.680000
    811    813     1   0.12183 533627.360000
    811   1689     1   0.13789 357815.680000
    816    819     1   0.15375 251793.120000
    816    822     1   0.14647 272713.120000
    819    839     1   0.14619 275056.160000
    822    823     1   0.14647 272713.120000
    822    826     1   0.14647 272713.120000
    823    832     1   0.15375 251793.120000
    826    829     1   0.15375 251793.120000
    829    835     1   0.15241 261918.400000
    832    836     1   0.15241 261918.400000
    835    837     1   0.12183 533627.360000
    835   1714     1   0.13789 357815.680000
    836    838     1   0.12183 533627.360000
    836   1739     1   0.13789 357815.680000
    841    844     1   0.15375 251793.120000
    841    847     1   0.14647 272713.120000
    844    864     1   0.14619 275056.160000
    847    848     1   0.14647 272713.120000
    847    851     1   0.14647 272713.120000
    848    857     1   0.15375 251793.120000
    851    854     1   0.15375 251793.120000
    854    860     1   0.15241 261918.400000
    857    861     1   0.15241 261918.400000
    860    862     1   0.12183 533627.360000
    860   1764     1   0.13789 357815.680000
    861    863     1   0.12183 533627.360000
    861   1789     1   0.13789 357815.680000
    866    869     1   0.15375 251793.120000
    866    872     1   0.14647 272713.120000
    869    889     1   0.14619 275056.160000
    872    873     1   0.14647 272713.120000
    872    876     1   0.14647 272713.120000
    873    882     1   0.15375 251793.120000
    876    879     1   0.15375 251793.120000
    879    885     1   0.15241 261918.400000
    882    886     1   0.15241 261918.400000
    885    887     1   0.12183 533627.360000
    885   1814     1   0.13789 357815.680000
    886    888     1   0.12183 533627.360000
    886   1839     1   0.13789 357815.680000
    891    894     1   0.15375 251793.120000
    891    897     1   0.14647 272713.120000
    894    914     1   0.14619 275056.160000
    897    898     1   0.14647 272713.120000
    897    901     1   0.14647 272713.120000
    898    907     1   0.15375 251793.120000
    901    904     1   0.15375 251793.120000
    904    910     1   0.15241 261918.400000
    907    911     1   0.15241 261918.400000
    910    912     1   0.12183 533627.360000
    910   1864     1   0.13789 357815.680000
    911    913     1   0.12183 533627.360000
    911   1889     1   0.13789 357815.680000
    916    919     1   0.15375 251793.120000
    916    922     1   0.14647 272713.120000
    919    939     1   0.14619 275056.160000
    922    923     1   0.14647 272713.120000
    922    926     1   0.14647 272713.120000
    923    932     1   0.15375 251793.120000
    926    929     1   0.15375 251793.120000
    929    935     1   0.15241 261918.400000
    932    936     1   0.15241 261918.400000
    935    937     1   0.12183 533627.360000
    935   1914     1   0.13789 357815.680000
    936    938     1   0.12183 533627.360000
    936   1939     1   0.13789 357815.680000
    941    944     1   0.15375 251793.120000
    941    947     1   0.14647 272713.120000
    944    964     1   0.14619 275056.160000
    947    948     1   0.14647 272713.120000
    947    951     1   0.14647 272713.120000
    948    957     1   0.15375 251793.120000
    951    954     1   0.15375 251793.120000
    954    960     1   0.15241 261918.400000
    957    961     1   0.15241 261918.400000
    960    962     1   0.12183 533627.360000
    960   1964     1   0.13789 357815.680000
    961    963     1   0.12183 533627.360000
    961   1989     1   0.13789 357815.680000
    966    969     1   0.15375 251793.120000
    966    972     1   0.14647 272713.120000
    969    989     1   0.14619 275056.160000
    972    973     1   0.14647 272713.120000
    972    976     1   0.14647 272713.120000
    973    982     1   0.15375 251793.120000
    976    979     1   0.15375 251793.120000
    979    985     1   0.15241 261918.400000
    982    986     1   0.15241 261918.400000
    985    987     1   0.12183 533627.360000
    985   2014     1   0.13789 357815.680000
    986    988     1   0.12183 533627.360000
    986   2039     1   0.13789 357815.680000
    991    994     1   0.15375 251793.120000
    991    997     1   0.14647 272713.120000
    994   1014     1   0.14619 275056.160000
    997    998     1   0.14647 272713.120000
    997   1001     1   0.14647 272713.120000
    998   1007     1   0.15375 251793.120000
   1001   1004     1   0.15375 251793.120000
   1004   1010     1   0.15241 261918.400000
   1007   1011     1   0.15241 261918.400000
   1010   1012     1   0.12183 533627.360000
   1010   2064     1   0.13789 357815.680000
   1011   1013     1   0.12183 533627.360000
   1011   2089     1   0.13789 357815.680000
   1016   1019     1   0.15375 251793.120000
   1016   1022     1   0.14647 272713.120000
   1019   1039     1   0.14619 275056.160000
   1022   1023     1   0.14647 272713.120000
   1022   1026     1   0.14647 272713.120000
   1023   1032     1   0.15375 251793.120000
   1026   1029     1   0.15375 251793.120000
   1029   1035     1   0.15241 261918.400000
   1032   1036     1   0.15241 261918.400000
   1035   1037     1   0.12183 533627.360000
   1035   2114     1   0.13789 357815.680000
   1036   1038     1   0.12183 533627.360000
   1036   2139     1   0.13789 357815.680000
   1041   1044     1   0.15375 251793.120000
   1041   1047     1   0.14647 272713.120000
   1044   1064     1   0.14619 275056.160000
   1047   1048     1   0.14647 272713.120000
   1047   1051     1   0.14647 272713.120000
   1048   1057     1   0.15375 251793.120000
   1051   1054     1   0.15375 251793.120000
   1054   1060     1   0.15241 261918.400000
   1057   1061     1   0.15241 261918.400000
   1060   1062     1   0.12183 533627.360000
   1060   2164     1   0.13789 357815.680000
   1061   1063     1   0.12183 533627.360000
   1061   2189     1   0.13789 357815.680000
   1066   1069     1   0.15375 251793.120000
   1066   1072     1   0.14647 272713.120000
   1069   1089     1   0.14619 275056.160000
   1072   1073     1   0.14647 272713.120000
   1072   1076     1   0.14647 272713.120000
   1073   1082     1   0.15375 251793.120000
   1076   1079     1   0.15375 251793.120000
   1079   1085     1   0.15241 261918.400000
   1082   1086     1   0.15241 261918.400000
   1085   1087     1   0.12183 533627.360000
   1085   2214     1   0.13789 357815.680000
   1086   1088     1   0.12183 533627.360000
   1086   2239     1   0.13789 357815.680000
   1091   1094     1   0.15375 251793.120000
   1091   1097     1   0.14647 272713.120000
   1094   1114     1   0.14619 275056.160000
   1097   1098     1   0.14647 272713.120000
   1097   1101     1   0.14647 272713.120000
   1098   1107     1   0.15375 251793.120000
   1101   1104     1   0.15375 251793.120000
   1104   1110     1   0.15241 261918.400000
   1107   1111     1   0.15241 261918.400000
   1110   1112     1   0.12183 533627.360000
   1110   2264     1   0.13789 357815.680000
   1111   1113     1   0.12183 533627.360000
   1111   2289     1   0.13789 357815.680000
   1116   1119     1   0.15375 251793.120000
   1116   1122     1   0.14647 272713.120000
   1119   1139     1   0.14619 275056.160000
   1122   1123     1   0.14647 272713.120000
   1122   1126     1   0.14647 272713.120000
   1123   1132     1   0.15375 251793.120000
   1126   1129     1   0.15375 251793.120000
   1129   1135     1   0.15241 261918.400000
   1132   1136     1   0.15241 261918.400000
   1135   1137     1   0.12183 533627.360000
   1135   2314     1   0.13789 357815.680000
   1136   1138     1   0.12183 533627.360000
   1136   2339     1   0.13789 357815.680000
   1141   1144     1   0.15375 251793.120000
   1141   1147     1   0.14647 272713.120000
   1144   1164     1   0.14619 275056.160000
   1147   1148     1   0.14647 272713.120000
   1147   1151     1   0.14647 272713.120000
   1148   1157     1   0.15375 251793.120000
   1151   1154     1   0.15375 251793.120000
   1154   1160     1   0.15241 261918.400000
   1157   1161     1   0.15241 261918.400000
   1160   1162     1   0.12183 533627.360000
   1160   2364     1   0.13789 357815.680000
   1161   1163     1   0.12183 533627.360000
   1161   2389     1   0.13789 357815.680000
   1166   1169     1   0.15375 251793.120000
   1166   1172     1   0.14647 272713.120000
   1169   1189     1   0.14619 275056.160000
   1172   1173     1   0.14647 272713.120000
   1172   1176     1   0.14647 272713.120000
   1173   1182     1   0.15375 251793.120000
   1176   1179     1   0.15375 251793.120000
   1179   1185     1   0.15241 261918.400000
   1182   1186     1   0.15241 261918.400000
   1185   1187     1   0.12183 533627.360000
   1185   2414     1   0.13789 357815.680000
   1186   1188     1   0.12183 533627.360000
   1186   2439     1   0.13789 357815.680000
   1191   1194     1   0.15375 251793.120000
   1191   1197     1   0.14647 272713.120000
   1194   1214     1   0.14619 275056.160000
   1197   1198     1   0.14647 272713.120000
   1197   1201     1   0.14647 272713.120000
   1198   1207     1   0.15375 251793.120000
   1201   1204     1   0.15375 251793.120000
   1204   1210     1   0.15241 261918.400000
   1207   1211     1   0.15241 261918.400000
   1210   1212     1   0.12183 533627.360000
   1210   2464     1   0.13789 357815.680000
   1211   1213     1   0.12183 533627.360000
   1211   2489     1   0.13789 357815.680000
   1216   1219     1   0.15375 251793.120000
   1216   1222     1   0.14647 272713.120000
   1219   1239     1   0.14619 275056.160000
   1222   1223     1   0.14647 272713.120000
   1222   1226     1   0.14647 272713.120000
   1223   1232     1   0.15375 251793.120000
   1226   1229     1   0.15375 251793.120000
   1229   1235     1   0.15241 261918.400000
   1232   1236     1   0.15241 261918.400000
   1235   1237     1   0.12183 533627.360000
   1235   2514     1   0.13789 357815.680000
   1236   1238     1   0.12183 533627.360000
   1236   2539     1   0.13789 357815.680000
   1241   1244     1   0.15375 251793.120000
   1241   1247     1   0.14647 272713.120000
   1244   1264     1   0.14619 275056.160000
   1247   1248     1   0.14647 272713.120000
   1247   1251     1   0.14647 272713.120000
   1248   1257     1   0.15375 251793.120000
   1251   1254     1   0.15375 251793.120000
   1254   1260     1   0.15241 261918.400000
   1257   1261     1   0.15241 261918.400000
   1260   1262     1   0.12183 533627.360000
   1260   2564     1   0.13789 357815.680000
   1261   1263     1   0.12183 533627.360000
   1261   2589     1   0.13789 357815.680000
   1266   1269     1   0.15375 251793.120000
   1266   1272     1   0.14647 272713.120000
   1269   1289     1   0.14619 275056.160000
   1272   1273     1   0.14647 272713.120000
   1272   1276     1   0.14647 272713.120000
   1273   1282     1   0.15375 251793.120000
   1276   1279     1   0.15375 251793.120000
   1279   1285     1   0.15241 261918.400000
   1282   1286     1   0.15241 261918.400000
   1285   1287     1   0.12183 533627.360000
   1285   2614     1   0.13789 357815.680000
   1286   1288     1   0.12183 533627.360000
   1286   2639     1   0.13789 357815.680000
   1291   1294     1   0.15375 251793.120000
   1291   1297     1   0.14647 272713.120000
   1294   1314     1   0.14619 275056.160000
   1297   1298     1   0.14647 272713.120000
   1297   1301     1   0.14647 272713.120000
   1298   1307     1   0.15375 251793.120000
   1301   1304     1   0.15375 251793.120000
   1304   1310     1   0.15241 261918.400000
   1307   1311     1   0.15241 261918.400000
   1310   1312     1   0.12183 533627.360000
   1310   2664     1   0.13789 357815.680000
   1311   1313     1   0.12183 533627.360000
   1311   2689     1   0.13789 357815.680000
   1316   1319     1   0.15375 251793.120000
   1316   1322     1   0.14647 272713.120000
   1319   1339     1   0.14619 275056.160000
   1322   1323     1   0.14647 272713.120000
   1322   1326     1   0.14647 272713.120000
   1323   1332     1   0.15375 251793.120000
   1326   1329     1   0.15375 251793.120000
   1329   1335     1   0.15241 261918.400000
   1332   1336     1   0.15241 261918.400000
   1335   1337     1   0.12183 533627.360000
   1335   2714     1   0.13789 357815.680000
   1336   1338     1   0.12183 533627.360000
   1336   2739     1   0.13789 357815.680000
   1341   1344     1   0.15375 251793.120000
   1341   1347     1   0.14647 272713.120000
   1344   1364     1   0.14619 275056.160000
   1347   1348     1   0.14647 272713.120000
   1347   1351     1   0.14647 272713.120000
   1348   1357     1   0.15375 251793.120000
   1351   1354     1   0.15375 251793.120000
   1354   1360     1   0.15241 261918.400000
   1357   1361     1   0.15241 261918.400000
   1360   1362     1   0.12183 533627.360000
   1360   2764     1   0.13789 357815.680000
   1361   1363     1   0.12183 533627.360000
   1361   2789     1   0.13789 357815.680000
   1366   1369     1   0.15375 251793.120000
   1366   1372     1   0.14647 272713.120000
   1369   1389     1   0.14619 275056.160000
   1372   1373     1   0.14647 272713.120000
   1372   1376     1   0.14647 272713.120000
   1373   1382     1   0.15375 251793.120000
   1376   1379     1   0.15375 251793.120000
   1379   1385     1   0.15241 261918.400000
   1382   1386     1   0.15241 261918.400000
   1385   1387     1   0.12183 533627.360000
   1385   2814     1   0.13789 357815.680000
   1386   1388     1   0.12183 533627.360000
   1386   2839     1   0.13789 357815.680000
   1391   1394     1   0.15375 251793.120000
   1391   1397     1   0.14647 272713.120000
   1394   1414     1   0.14619 275056.160000
   1397   1398     1   0.14647 272713.120000
   1397   1401     1   0.14647 272713.120000
   1398   1407     1   0.15375 251793.120000
   1401   1404     1   0.15375 251793.120000
   1404   1410     1   0.15241 261918.400000
   1407   1411     1   0.15241 261918.400000
   1410   1412     1   0.12183 533627.360000
   1410   2864     1   0.13789 357815.680000
   1411   1413     1   0.12183 533627.360000
   1411   2889     1   0.13789 357815.680000
   1416   1419     1   0.15375 251793.120000
   1416   1422     1   0.14647 272713.120000
   1419   1439     1   0.14619 275056.160000
   1422   1423     1   0.14647 272713.120000
   1422   1426     1   0.14647 272713.120000
   1423   1432     1   0.15375 251793.120000
   1426   1429     1   0.15375 251793.120000
   1429   1435     1   0.15241 261918.400000
   1432   1436     1   0.15241 261918.400000
   1435   1437     1   0.12183 533627.360000
   1435   2914     1   0.13789 357815.680000
   1436   1438     1   0.12183 533627.360000
   1436   2939     1   0.13789 357815.680000
   1441   1444     1   0.15375 251793.120000
   1441   1447     1   0.14647 272713.120000
   1444   1464     1   0.14619 275056.160000
   1447   1448     1   0.14647 272713.120000
   1447   1451     1   0.14647 272713.120000
   1448   1457     1   0.15375 251793.120000
   1451   1454     1   0.15375 251793.120000
   1454   1460     1   0.15241 261918.400000
   1457   1461     1   0.15241 261918.400000
   1460   1462     1   0.12183 533627.360000
   1460   2964     1   0.13789 357815.680000
   1461   1463     1   0.12183 533627.360000
   1461   2989     1   0.13789 357815.680000
   1466   1469     1   0.15375 251793.120000
   1466   1472     1   0.14647 272713.120000
   1469   1489     1   0.14619 275056.160000
   1472   1473     1   0.14647 272713.120000
   1472   1476     1   0.14647 272713.120000
   1473   1482     1   0.15375 251793.120000
   1476   1479     1   0.15375 251793.120000
   1479   1485     1   0.15241 261918.400000
   1482   1486     1   0.15241 261918.400000
   1485   1487     1   0.12183 533627.360000
   1485   3014     1   0.13789 357815.680000
   1486   1488     1   0.12183 533627.360000
   1486   3039     1   0.13789 357815.680000
   1491   1494     1   0.15375 251793.120000
   1491   1497     1   0.14647 272713.120000
   1494   1514     1   0.14619 275056.160000
   1497   1498     1   0.14647 272713.120000
   1497   1501     1   0.14647 272713.120000
   1498   1507     1   0.15375 251793.120000
   1501   1504     1   0.15375 251793.120000
   1504   1510     1   0.15241 261918.400000
   1507   1511     1   0.15241 261918.400000
   1510   1512     1   0.12183 533627.360000
   1510   3064     1   0.13789 357815.680000
   1511   1513     1   0.12183 533627.360000
   1511   3089     1   0.13789 357815.680000
   1516   1519     1   0.15375 251793.120000
   1516   1522     1   0.14647 272713.120000
   1519   1539     1   0.14619 275056.160000
   1522   1523     1   0.14647 272713.120000
   1522   1526     1   0.14647 272713.120000
   1523   1532     1   0.15375 251793.120000
   1526   1529     1   0.15375 251793.120000
   1529   1535     1   0.15241 261918.400000
   1532   1536     1   0.15241 261918.400000
   1535   1537     1   0.12183 533627.360000
   1535   3114     1   0.13789 357815.680000
   1536   1538     1   0.12183 533627.360000
   1536   3139     1   0.13789 357815.680000
   1541   1544     1   0.15375 251793.120000
   1541   1547     1   0.14647 272713.120000
   1544   1564     1   0.14619 275056.160000
   1547   1548     1   0.14647 272713.120000
   1547   1551     1   0.14647 272713.120000
   1548   1557     1   0.15375 251793.120000
   1551   1554     1   0.15375 251793.120000
   1554   1560     1   0.15241 261918.400000
   1557   1561     1   0.15241 261918.400000
   1560   3141     1   0.13789 357815.680000
   1560   1562     1   0.12183 533627.360000
   1561   1563     1   0.12183 533627.360000
   1561   3153     1   0.13789 357815.680000
   1566   1569     1   0.15375 251793.120000
   1566   1572     1   0.14647 272713.120000
   1569   1589     1   0.14619 275056.160000
   1572   1573     1   0.14647 272713.120000
   1572   1576     1   0.14647 272713.120000
   1573   1582     1   0.15375 251793.120000
   1576   1579     1   0.15375 251793.120000
   1579   1585     1   0.15241 261918.400000
   1582   1586     1   0.15241 261918.400000
   1585   3165     1   0.13789 357815.680000
   1585   1587     1   0.12183 533627.360000
   1586   1588     1   0.12183 533627.360000
   1586   3177     1   0.13789 357815.680000
   1591   1594     1   0.15375 251793.120000
   1591   1597     1   0.14647 272713.120000
   1594   1614     1   0.14619 275056.160000
   1597   1598     1   0.14647 272713.120000
   1597   1601     1   0.14647 272713.120000
   1598   1607     1   0.15375 251793.120000
   1601   1604     1   0.15375 251793.120000
   1604   1610     1   0.15241 261918.400000
   1607   1611     1   0.15241 261918.400000
   1610   3189     1   0.13789 357815.680000
   1610   1612     1   0.12183 533627.360000
   1611   1613     1   0.12183 533627.360000
   1611   3201     1   0.13789 357815.680000
   1616   1619     1   0.15375 251793.120000
   1616   1622     1   0.14647 272713.120000
   1619   1639     1   0.14619 275056.160000
   1622   1623     1   0.14647 272713.120000
   1622   1626     1   0.14647 272713.120000
   1623   1632     1   0.15375 251793.120000
   1626   1629     1   0.15375 251793.120000
   1629   1635     1   0.15241 261918.400000
   1632   1636     1   0.15241 261918.400000
   1635   3213     1   0.13789 357815.680000
   1635   1637     1   0.12183 533627.360000
   1636   1638     1   0.12183 533627.360000
   1636   3225     1   0.13789 357815.680000
   1641   1644     1   0.15375 251793.120000
   1641   1647     1   0.14647 272713.120000
   1644   1664     1   0.14619 275056.160000
   1647   1648     1   0.14647 272713.120000
   1647   1651     1   0.14647 272713.120000
   1648   1657     1   0.15375 251793.120000
   1651   1654     1   0.15375 251793.120000
   1654   1660     1   0.15241 261918.400000
   1657   1661     1   0.15241 261918.400000
   1660   3237     1   0.13789 357815.680000
   1660   1662     1   0.12183 533627.360000
   1661   1663     1   0.12183 533627.360000
   1661   3249     1   0.13789 357815.680000
   1666   1669     1   0.15375 251793.120000
   1666   1672     1   0.14647 272713.120000
   1669   1689     1   0.14619 275056.160000
   1672   1673     1   0.14647 272713.120000
   1672   1676     1   0.14647 272713.120000
   1673   1682     1   0.15375 251793.120000
   1676   1679     1   0.15375 251793.120000
   1679   1685     1   0.15241 261918.400000
   1682   1686     1   0.15241 261918.400000
   1685   3261     1   0.13789 357815.680000
   1685   1687     1   0.12183 533627.360000
   1686   1688     1   0.12183 533627.360000
   1686   3273     1   0.13789 357815.680000
   1691   1694     1   0.15375 251793.120000
   1691   1697     1   0.14647 272713.120000
   1694   1714     1   0.14619 275056.160000
   1697   1698     1   0.14647 272713.120000
   1697   1701     1   0.14647 272713.120000
   1698   1707     1   0.15375 251793.120000
   1701   1704     1   0.15375 251793.120000
   1704   1710     1   0.15241 261918.400000
   1707   1711     1   0.15241 261918.400000
   1710   3285     1   0.13789 357815.680000
   1710   1712     1   0.12183 533627.360000
   1711   1713     1   0.12183 533627.360000
   1711   3297     1   0.13789 357815.680000
   1716   1719     1   0.15375 251793.120000
   1716   1722     1   0.14647 272713.120000
   1719   1739     1   0.14619 275056.160000
   1722   1723     1   0.14647 272713.120000
   1722   1726     1   0.14647 272713.120000
   1723   1732     1   0.15375 251793.120000
   1726   1729     1   0.15375 251793.120000
   1729   1735     1   0.15241 261918.400000
   1732   1736     1   0.15241 261918.400000
   1735   3309     1   0.13789 357815.680000
   1735   1737     1   0.12183 533627.360000
   1736   1738     1   0.12183 533627.360000
   1736   3321     1   0.13789 357815.680000
   1741   1744     1   0.15375 251793.120000
   1741   1747     1   0.14647 272713.120000
   1744   1764     1   0.14619 275056.160000
   1747   1748     1   0.14647 272713.120000
   1747   1751     1   0.14647 272713.120000
   1748   1757     1   0.15375 251793.120000
   1751   1754     1   0.15375 251793.120000
   1754   1760     1   0.15241 261918.400000
   1757   1761     1   0.15241 261918.400000
   1760   3333     1   0.13789 357815.680000
   1760   1762     1   0.12183 533627.360000
   1761   1763     1   0.12183 533627.360000
   1761   3345     1   0.13789 357815.680000
   1766   1769     1   0.15375 251793.120000
   1766   1772     1   0.14647 272713.120000
   1769   1789     1   0.14619 275056.160000
   1772   1773     1   0.14647 272713.120000
   1772   1776     1   0.14647 272713.120000
   1773   1782     1   0.15375 251793.120000
   1776   1779     1   0.15375 251793.120000
   1779   1785     1   0.15241 261918.400000
   1782   1786     1   0.15241 261918.400000
   1785   3357     1   0.13789 357815.680000
   1785   1787     1   0.12183 533627.360000
   1786   1788     1   0.12183 533627.360000
   1786   3369     1   0.13789 357815.680000
   1791   1794     1   0.15375 251793.120000
   1791   1797     1   0.14647 272713.120000
   1794   1814     1   0.14619 275056.160000
   1797   1798     1   0.14647 272713.120000
   1797   1801     1   0.14647 272713.120000
   1798   1807     1   0.15375 251793.120000
   1801   1804     1   0.15375 251793.120000
   1804   1810     1   0.15241 261918.400000
   1807   1811     1   0.15241 261918.400000
   1810   3381     1   0.13789 357815.680000
   1810   1812     1   0.12183 533627.360000
   1811   1813     1   0.12183 533627.360000
   1811   3393     1   0.13789 357815.680000
   1816   1819     1   0.15375 251793.120000
   1816   1822     1   0.14647 272713.120000
   1819   1839     1   0.14619 275056.160000
   1822   1823     1   0.14647 272713.120000
   1822   1826     1   0.14647 272713.120000
   1823   1832     1   0.15375 251793.120000
   1826   1829     1   0.15375 251793.120000
   1829   1835     1   0.15241 261918.400000
   1832   1836     1   0.15241 261918.400000
   1835   3405     1   0.13789 357815.680000
   1835   1837     1   0.12183 533627.360000
   1836   1838     1   0.12183 533627.360000
   1836   3417     1   0.13789 357815.680000
   1841   1844     1   0.15375 251793.120000
   1841   1847     1   0.14647 272713.120000
   1844   1864     1   0.14619 275056.160000
   1847   1848     1   0.14647 272713.120000
   1847   1851     1   0.14647 272713.120000
   1848   1857     1   0.15375 251793.120000
   1851   1854     1   0.15375 251793.120000
   1854   1860     1   0.15241 261918.400000
   1857   1861     1   0.15241 261918.400000
   1860   3429     1   0.13789 357815.680000
   1860   1862     1   0.12183 533627.360000
   1861   1863     1   0.12183 533627.360000
   1861   3441     1   0.13789 357815.680000
   1866   1869     1   0.15375 251793.120000
   1866   1872     1   0.14647 272713.120000
   1869   1889     1   0.14619 275056.160000
   1872   1873     1   0.14647 272713.120000
   1872   1876     1   0.14647 272713.120000
   1873   1882     1   0.15375 251793.120000
   1876   1879     1   0.15375 251793.120000
   1879   1885     1   0.15241 261918.400000
   1882   1886     1   0.15241 261918.400000
   1885   3453     1   0.13789 357815.680000
   1885   1887     1   0.12183 533627.360000
   1886   1888     1   0.12183 533627.360000
   1886   3465     1   0.13789 357815.680000
   1891   1894     1   0.15375 251793.120000
   1891   1897     1   0.14647 272713.120000
   1894   1914     1   0.14619 275056.160000
   1897   1898     1   0.14647 272713.120000
   1897   1901     1   0.14647 272713.120000
   1898   1907     1   0.15375 251793.120000
   1901   1904     1   0.15375 251793.120000
   1904   1910     1   0.15241 261918.400000
   1907   1911     1   0.15241 261918.400000
   1910   3477     1   0.13789 357815.680000
   1910   1912     1   0.12183 533627.360000
   1911   1913     1   0.12183 533627.360000
   1911   3489     1   0.13789 357815.680000
   1916   1919     1   0.15375 251793.120000
   1916   1922     1   0.14647 272713.120000
   1919   1939     1   0.14619 275056.160000
   1922   1923     1   0.14647 272713.120000
   1922   1926     1   0.14647 272713.120000
   1923   1932     1   0.15375 251793.120000
   1926   1929     1   0.15375 251793.120000
   1929   1935     1   0.15241 261918.400000
   1932   1936     1   0.15241 261918.400000
   1935   3501     1   0.13789 357815.680000
   1935   1937     1   0.12183 533627.360000
   1936   1938     1   0.12183 533627.360000
   1936   3513     1   0.13789 357815.680000
   1941   1944     1   0.15375 251793.120000
   1941   1947     1   0.14647 272713.120000
   1944   1964     1   0.14619 275056.160000
   1947   1948     1   0.14647 272713.120000
   1947   1951     1   0.14647 272713.120000
   1948   1957     1   0.15375 251793.120000
   1951   1954     1   0.15375 251793.120000
   1954   1960     1   0.15241 261918.400000
   1957   1961     1   0.15241 261918.400000
   1960   3525     1   0.13789 357815.680000
   1960   1962     1   0.12183 533627.360000
   1961   1963     1   0.12183 533627.360000
   1961   3537     1   0.13789 357815.680000
   1966   1969     1   0.15375 251793.120000
   1966   1972     1   0.14647 272713.120000
   1969   1989     1   0.14619 275056.160000
   1972   1973     1   0.14647 272713.120000
   1972   1976     1   0.14647 272713.120000
   1973   1982     1   0.15375 251793.120000
   1976   1979     1   0.15375 251793.120000
   1979   1985     1   0.15241 261918.400000
   1982   1986     1   0.15241 261918.400000
   1985   3549     1   0.13789 357815.680000
   1985   1987     1   0.12183 533627.360000
   1986   1988     1   0.12183 533627.360000
   1986   3561     1   0.13789 357815.680000
   1991   1994     1   0.15375 251793.120000
   1991   1997     1   0.14647 272713.120000
   1994   2014     1   0.14619 275056.160000
   1997   1998     1   0.14647 272713.120000
   1997   2001     1   0.14647 272713.120000
   1998   2007     1   0.15375 251793.120000
   2001   2004     1   0.15375 251793.120000
   2004   2010     1   0.15241 261918.400000
   2007   2011     1   0.15241 261918.400000
   2010   3573     1   0.13789 357815.680000
   2010   2012     1   0.12183 533627.360000
   2011   2013     1   0.12183 533627.360000
   2011   3585     1   0.13789 357815.680000
   2016   2019     1   0.15375 251793.120000
   2016   2022     1   0.14647 272713.120000
   2019   2039     1   0.14619 275056.160000
   2022   2023     1   0.14647 272713.120000
   2022   2026     1   0.14647 272713.120000
   2023   2032     1   0.15375 251793.120000
   2026   2029     1   0.15375 251793.120000
   2029   2035     1   0.15241 261918.400000
   2032   2036     1   0.15241 261918.400000
   2035   3597     1   0.13789 357815.680000
   2035   2037     1   0.12183 533627.360000
   2036   2038     1   0.12183 533627.360000
   2036   3609     1   0.13789 357815.680000
   2041   2044     1   0.15375 251793.120000
   2041   2047     1   0.14647 272713.120000
   2044   2064     1   0.14619 275056.160000
   2047   2048     1   0.14647 272713.120000
   2047   2051     1   0.14647 272713.120000
   2048   2057     1   0.15375 251793.120000
   2051   2054     1   0.15375 251793.120000
   2054   2060     1   0.15241 261918.400000
   2057   2061     1   0.15241 261918.400000
   2060   3621     1   0.13789 357815.680000
   2060   2062     1   0.12183 533627.360000
   2061   2063     1   0.12183 533627.360000
   2061   3633     1   0.13789 357815.680000
   2066   2069     1   0.15375 251793.120000
   2066   2072     1   0.14647 272713.120000
   2069   2089     1   0.14619 275056.160000
   2072   2073     1   0.14647 272713.120000
   2072   2076     1   0.14647 272713.120000
   2073   2082     1   0.15375 251793.120000
   2076   2079     1   0.15375 251793.120000
   2079   2085     1   0.15241 261918.400000
   2082   2086     1   0.15241 261918.400000
   2085   3645     1   0.13789 357815.680000
   2085   2087     1   0.12183 533627.360000
   2086   2088     1   0.12183 533627.360000
   2086   3657     1   0.13789 357815.680000
   2091   2094     1   0.15375 251793.120000
   2091   2097     1   0.14647 272713.120000
   2094   2114     1   0.14619 275056.160000
   2097   2098     1   0.14647 272713.120000
   2097   2101     1   0.14647 272713.120000
   2098   2107     1   0.15375 251793.120000
   2101   2104     1   0.15375 251793.120000
   2104   2110     1   0.15241 261918.400000
   2107   2111     1   0.15241 261918.400000
   2110   3669     1   0.13789 357815.680000
   2110   2112     1   0.12183 533627.360000
   2111   2113     1   0.12183 533627.360000
   2111   3681     1   0.13789 357815.680000
   2116   2119     1   0.15375 251793.120000
   2116   2122     1   0.14647 272713.120000
   2119   2139     1   0.14619 275056.160000
   2122   2123     1   0.14647 272713.120000
   2122   2126     1   0.14647 272713.120000
   2123   2132     1   0.15375 251793.120000
   2126   2129     1   0.15375 251793.120000
   2129   2135     1   0.15241 261918.400000
   2132   2136     1   0.15241 261918.400000
   2135   3693     1   0.13789 357815.680000
   2135   2137     1   0.12183 533627.360000
   2136   2138     1   0.12183 533627.360000
   2136   3705     1   0.13789 357815.680000
   2141   2144     1   0.15375 251793.120000
   2141   2147     1   0.14647 272713.120000
   2144   2164     1   0.14619 275056.160000
   2147   2148     1   0.14647 272713.120000
   2147   2151     1   0.14647 272713.120000
   2148   2157     1   0.15375 251793.120000
   2151   2154     1   0.15375 251793.120000
   2154   2160     1   0.15241 261918.400000
   2157   2161     1   0.15241 261918.400000
   2160   3717     1   0.13789 357815.680000
   2160   2162     1   0.12183 533627.360000
   2161   2163     1   0.12183 533627.360000
   2161   3729     1   0.13789 357815.680000
   2166   2169     1   0.15375 251793.120000
   2166   2172     1   0.14647 272713.120000
   2169   2189     1   0.14619 275056.160000
   2172   2173     1   0.14647 272713.120000
   2172   2176     1   0.14647 272713.120000
   2173   2182     1   0.15375 251793.120000
   2176   2179     1   0.15375 251793.120000
   2179   2185     1   0.15241 261918.400000
   2182   2186     1   0.15241 261918.400000
   2185   3741     1   0.13789 357815.680000
   2185   2187     1   0.12183 533627.360000
   2186   2188     1   0.12183 533627.360000
   2186   3753     1   0.13789 357815.680000
   2191   2194     1   0.15375 251793.120000
   2191   2197     1   0.14647 272713.120000
   2194   2214     1   0.14619 275056.160000
   2197   2198     1   0.14647 272713.120000
   2197   2201     1   0.14647 272713.120000
   2198   2207     1   0.15375 251793.120000
   2201   2204     1   0.15375 251793.120000
   2204   2210     1   0.15241 261918.400000
   2207   2211     1   0.15241 261918.400000
   2210   3765     1   0.13789 357815.680000
   2210   2212     1   0.12183 533627.360000
   2211   2213     1   0.12183 533627.360000
   2211   3777     1   0.13789 357815.680000
   2216   2219     1   0.15375 251793.120000
   2216   2222     1   0.14647 272713.120000
   2219   2239     1   0.14619 275056.160000
   2222   2223     1   0.14647 272713.120000
   2222   2226     1   0.14647 272713.120000
   2223   2232     1   0.15375 251793.120000
   2226   2229     1   0.15375 251793.120000
   2229   2235     1   0.15241 261918.400000
   2232   2236     1   0.15241 261918.400000
   2235   3789     1   0.13789 357815.680000
   2235   2237     1   0.12183 533627.360000
   2236   2238     1   0.12183 533627.360000
   2236   3801     1   0.13789 357815.680000
   2241   2244     1   0.15375 251793.120000
   2241   2247     1   0.14647 272713.120000
   2244   2264     1   0.14619 275056.160000
   2247   2248     1   0.14647 272713.120000
   2247   2251     1   0.14647 272713.120000
   2248   2257     1   0.15375 251793.120000
   2251   2254     1   0.15375 251793.120000
   2254   2260     1   0.15241 261918.400000
   2257   2261     1   0.15241 261918.400000
   2260   3813     1   0.13789 357815.680000
   2260   2262     1   0.12183 533627.360000
   2261   2263     1   0.12183 533627.360000
   2261   3825     1   0.13789 357815.680000
   2266   2269     1   0.15375 251793.120000
   2266   2272     1   0.14647 272713.120000
   2269   2289     1   0.14619 275056.160000
   2272   2273     1   0.14647 272713.120000
   2272   2276     1   0.14647 272713.120000
   2273   2282     1   0.15375 251793.120000
   2276   2279     1   0.15375 251793.120000
   2279   2285     1   0.15241 261918.400000
   2282   2286     1   0.15241 261918.400000
   2285   3837     1   0.13789 357815.680000
   2285   2287     1   0.12183 533627.360000
   2286   2288     1   0.12183 533627.360000
   2286   3849     1   0.13789 357815.680000
   2291   2294     1   0.15375 251793.120000
   2291   2297     1   0.14647 272713.120000
   2294   2314     1   0.14619 275056.160000
   2297   2298     1   0.14647 272713.120000
   2297   2301     1   0.14647 272713.120000
   2298   2307     1   0.15375 251793.120000
   2301   2304     1   0.15375 251793.120000
   2304   2310     1   0.15241 261918.400000
   2307   2311     1   0.15241 261918.400000
   2310   3861     1   0.13789 357815.680000
   2310   2312     1   0.12183 533627.360000
   2311   2313     1   0.12183 533627.360000
   2311   3873     1   0.13789 357815.680000
   2316   2319     1   0.15375 251793.120000
   2316   2322     1   0.14647 272713.120000
   2319   2339     1   0.14619 275056.160000
   2322   2323     1   0.14647 272713.120000
   2322   2326     1   0.14647 272713.120000
   2323   2332     1   0.15375 251793.120000
   2326   2329     1   0.15375 251793.120000
   2329   2335     1   0.15241 261918.400000
   2332   2336     1   0.15241 261918.400000
   2335   3885     1   0.13789 357815.680000
   2335   2337     1   0.12183 533627.360000
   2336   2338     1   0.12183 533627.360000
   2336   3897     1   0.13789 357815.680000
   2341   2344     1   0.15375 251793.120000
   2341   2347     1   0.14647 272713.120000
   2344   2364     1   0.14619 275056.160000
   2347   2348     1   0.14647 272713.120000
   2347   2351     1   0.14647 272713.120000
   2348   2357     1   0.15375 251793.120000
   2351   2354     1   0.15375 251793.120000
   2354   2360     1   0.15241 261918.400000
   2357   2361     1   0.15241 261918.400000
   2360   3909     1   0.13789 357815.680000
   2360   2362     1   0.12183 533627.360000
   2361   2363     1   0.12183 533627.360000
   2361   3921     1   0.13789 357815.680000
   2366   2369     1   0.15375 251793.120000
   2366   2372     1   0.14647 272713.120000
   2369   2389     1   0.14619 275056.160000
   2372   2373     1   0.14647 272713.120000
   2372   2376     1   0.14647 272713.120000
   2373   2382     1   0.15375 251793.120000
   2376   2379     1   0.15375 251793.120000
   2379   2385     1   0.15241 261918.400000
   2382   2386     1   0.15241 261918.400000
   2385   3933     1   0.13789 357815.680000
   2385   2387     1   0.12183 533627.360000
   2386   2388     1   0.12183 533627.360000
   2386   3945     1   0.13789 357815.680000
   2391   2394     1   0.15375 251793.120000
   2391   2397     1   0.14647 272713.120000
   2394   2414     1   0.14619 275056.160000
   2397   2398     1   0.14647 272713.120000
   2397   2401     1   0.14647 272713.120000
   2398   2407     1   0.15375 251793.120000
   2401   2404     1   0.15375 251793.120000
   2404   2410     1   0.15241 261918.400000
   2407   2411     1   0.15241 261918.400000
   2410   3957     1   0.13789 357815.680000
   2410   2412     1   0.12183 533627.360000
   2411   2413     1   0.12183 533627.360000
   2411   3969     1   0.13789 357815.680000
   2416   2419     1   0.15375 251793.120000
   2416   2422     1   0.14647 272713.120000
   2419   2439     1   0.14619 275056.160000
   2422   2423     1   0.14647 272713.120000
   2422   2426     1   0.14647 272713.120000
   2423   2432     1   0.15375 251793.120000
   2426   2429     1   0.15375 251793.120000
   2429   2435     1   0.15241 261918.400000
   2432   2436     1   0.15241 261918.400000
   2435   3981     1   0.13789 357815.680000
   2435   2437     1   0.12183 533627.360000
   2436   2438     1   0.12183 533627.360000
   2436   3993     1   0.13789 357815.680000
   2441   2444     1   0.15375 251793.120000
   2441   2447     1   0.14647 272713.120000
   2444   2464     1   0.14619 275056.160000
   2447   2448     1   0.14647 272713.120000
   2447   2451     1   0.14647 272713.120000
   2448   2457     1   0.15375 251793.120000
   2451   2454     1   0.15375 251793.120000
   2454   2460     1   0.15241 261918.400000
   2457   2461     1   0.15241 261918.400000
   2460   4005     1   0.13789 357815.680000
   2460   2462     1   0.12183 533627.360000
   2461   2463     1   0.12183 533627.360000
   2461   4017     1   0.13789 357815.680000
   2466   2469     1   0.15375 251793.120000
   2466   2472     1   0.14647 272713.120000
   2469   2489     1   0.14619 275056.160000
   2472   2473     1   0.14647 272713.120000
   2472   2476     1   0.14647 272713.120000
   2473   2482     1   0.15375 251793.120000
   2476   2479     1   0.15375 251793.120000
   2479   2485     1   0.15241 261918.400000
   2482   2486     1   0.15241 261918.400000
   2485   4029     1   0.13789 357815.680000
   2485   2487     1   0.12183 533627.360000
   2486   2488     1   0.12183 533627.360000
   2486   4041     1   0.13789 357815.680000
   2491   2494     1   0.15375 251793.120000
   2491   2497     1   0.14647 272713.120000
   2494   2514     1   0.14619 275056.160000
   2497   2498     1   0.14647 272713.120000
   2497   2501     1   0.14647 272713.120000
   2498   2507     1   0.15375 251793.120000
   2501   2504     1   0.15375 251793.120000
   2504   2510     1   0.15241 261918.400000
   2507   2511     1   0.15241 261918.400000
   2510   4053     1   0.13789 357815.680000
   2510   2512     1   0.12183 533627.360000
   2511   2513     1   0.12183 533627.360000
   2511   4065     1   0.13789 357815.680000
   2516   2519     1   0.15375 251793.120000
   2516   2522     1   0.14647 272713.120000
   2519   2539     1   0.14619 275056.160000
   2522   2523     1   0.14647 272713.120000
   2522   2526     1   0.14647 272713.120000
   2523   2532     1   0.15375 251793.120000
   2526   2529     1   0.15375 251793.120000
   2529   2535     1   0.15241 261918.400000
   2532   2536     1   0.15241 261918.400000
   2535   4077     1   0.13789 357815.680000
   2535   2537     1   0.12183 533627.360000
   2536   2538     1   0.12183 533627.360000
   2536   4089     1   0.13789 357815.680000
   2541   2544     1   0.15375 251793.120000
   2541   2547     1   0.14647 272713.120000
   2544   2564     1   0.14619 275056.160000
   2547   2548     1   0.14647 272713.120000
   2547   2551     1   0.14647 272713.120000
   2548   2557     1   0.15375 251793.120000
   2551   2554     1   0.15375 251793.120000
   2554   2560     1   0.15241 261918.400000
   2557   2561     1   0.15241 261918.400000
   2560   4101     1   0.13789 357815.680000
   2560   2562     1   0.12183 533627.360000
   2561   2563     1   0.12183 533627.360000
   2561   4113     1   0.13789 357815.680000
   2566   2569     1   0.15375 251793.120000
   2566   2572     1   0.14647 272713.120000
   2569   2589     1   0.14619 275056.160000
   2572   2573     1   0.14647 272713.120000
   2572   2576     1   0.14647 272713.120000
   2573   2582     1   0.15375 251793.120000
   2576   2579     1   0.15375 251793.120000
   2579   2585     1   0.15241 261918.400000
   2582   2586     1   0.15241 261918.400000
   2585   4125     1   0.13789 357815.680000
   2585   2587     1   0.12183 533627.360000
   2586   2588     1   0.12183 533627.360000
   2586   4137     1   0.13789 357815.680000
   2591   2594     1   0.15375 251793.120000
   2591   2597     1   0.14647 272713.120000
   2594   2614     1   0.14619 275056.160000
   2597   2598     1   0.14647 272713.120000
   2597   2601     1   0.14647 272713.120000
   2598   2607     1   0.15375 251793.120000
   2601   2604     1   0.15375 251793.120000
   2604   2610     1   0.15241 261918.400000
   2607   2611     1   0.15241 261918.400000
   2610   4149     1   0.13789 357815.680000
   2610   2612     1   0.12183 533627.360000
   2611   2613     1   0.12183 533627.360000
   2611   4161     1   0.13789 357815.680000
   2616   2619     1   0.15375 251793.120000
   2616   2622     1   0.14647 272713.120000
   2619   2639     1   0.14619 275056.160000
   2622   2623     1   0.14647 272713.120000
   2622   2626     1   0.14647 272713.120000
   2623   2632     1   0.15375 251793.120000
   2626   2629     1   0.15375 251793.120000
   2629   2635     1   0.15241 261918.400000
   2632   2636     1   0.15241 261918.400000
   2635   4173     1   0.13789 357815.680000
   2635   2637     1   0.12183 533627.360000
   2636   2638     1   0.12183 533627.360000
   2636   4185     1   0.13789 357815.680000
   2641   2644     1   0.15375 251793.120000
   2641   2647     1   0.14647 272713.120000
   2644   2664     1   0.14619 275056.160000
   2647   2648     1   0.14647 272713.120000
   2647   2651     1   0.14647 272713.120000
   2648   2657     1   0.15375 251793.120000
   2651   2654     1   0.15375 251793.120000
   2654   2660     1   0.15241 261918.400000
   2657   2661     1   0.15241 261918.400000
   2660   4197     1   0.13789 357815.680000
   2660   2662     1   0.12183 533627.360000
   2661   2663     1   0.12183 533627.360000
   2661   4209     1   0.13789 357815.680000
   2666   2669     1   0.15375 251793.120000
   2666   2672     1   0.14647 272713.120000
   2669   2689     1   0.14619 275056.160000
   2672   2673     1   0.14647 272713.120000
   2672   2676     1   0.14647 272713.120000
   2673   2682     1   0.15375 251793.120000
   2676   2679     1   0.15375 251793.120000
   2679   2685     1   0.15241 261918.400000
   2682   2686     1   0.15241 261918.400000
   2685   4221     1   0.13789 357815.680000
   2685   2687     1   0.12183 533627.360000
   2686   2688     1   0.12183 533627.360000
   2686   4233     1   0.13789 357815.680000
   2691   2694     1   0.15375 251793.120000
   2691   2697     1   0.14647 272713.120000
   2694   2714     1   0.14619 275056.160000
   2697   2698     1   0.14647 272713.120000
   2697   2701     1   0.14647 272713.120000
   2698   2707     1   0.15375 251793.120000
   2701   2704     1   0.15375 251793.120000
   2704   2710     1   0.15241 261918.400000
   2707   2711     1   0.15241 261918.400000
   2710   4245     1   0.13789 357815.680000
   2710   2712     1   0.12183 533627.360000
   2711   2713     1   0.12183 533627.360000
   2711   4257     1   0.13789 357815.680000
   2716   2719     1   0.15375 251793.120000
   2716   2722     1   0.14647 272713.120000
   2719   2739     1   0.14619 275056.160000
   2722   2723     1   0.14647 272713.120000
   2722   2726     1   0.14647 272713.120000
   2723   2732     1   0.15375 251793.120000
   2726   2729     1   0.15375 251793.120000
   2729   2735     1   0.15241 261918.400000
   2732   2736     1   0.15241 261918.400000
   2735   4269     1   0.13789 357815.680000
   2735   2737     1   0.12183 533627.360000
   2736   2738     1   0.12183 533627.360000
   2736   4281     1   0.13789 357815.680000
   2741   2744     1   0.15375 251793.120000
   2741   2747     1   0.14647 272713.120000
   2744   2764     1   0.14619 275056.160000
   2747   2748     1   0.14647 272713.120000
   2747   2751     1   0.14647 272713.120000
   2748   2757     1   0.15375 251793.120000
   2751   2754     1   0.15375 251793.120000
   2754   2760     1   0.15241 261918.400000
   2757   2761     1   0.15241 261918.400000
   2760   4293     1   0.13789 357815.680000
   2760   2762     1   0.12183 533627.360000
   2761   2763     1   0.12183 533627.360000
   2761   4305     1   0.13789 357815.680000
   2766   2769     1   0.15375 251793.120000
   2766   2772     1   0.14647 272713.120000
   2769   2789     1   0.14619 275056.160000
   2772   2773     1   0.14647 272713.120000
   2772   2776     1   0.14647 272713.120000
   2773   2782     1   0.15375 251793.120000
   2776   2779     1   0.15375 251793.120000
   2779   2785     1   0.15241 261918.400000
   2782   2786     1   0.15241 261918.400000
   2785   4317     1   0.13789 357815.680000
   2785   2787     1   0.12183 533627.360000
   2786   2788     1   0.12183 533627.360000
   2786   4329     1   0.13789 357815.680000
   2791   2794     1   0.15375 251793.120000
   2791   2797     1   0.14647 272713.120000
   2794   2814     1   0.14619 275056.160000
   2797   2798     1   0.14647 272713.120000
   2797   2801     1   0.14647 272713.120000
   2798   2807     1   0.15375 251793.120000
   2801   2804     1   0.15375 251793.120000
   2804   2810     1   0.15241 261918.400000
   2807   2811     1   0.15241 261918.400000
   2810   4341     1   0.13789 357815.680000
   2810   2812     1   0.12183 533627.360000
   2811   2813     1   0.12183 533627.360000
   2811   4353     1   0.13789 357815.680000
   2816   2819     1   0.15375 251793.120000
   2816   2822     1   0.14647 272713.120000
   2819   2839     1   0.14619 275056.160000
   2822   2823     1   0.14647 272713.120000
   2822   2826     1   0.14647 272713.120000
   2823   2832     1   0.15375 251793.120000
   2826   2829     1   0.15375 251793.120000
   2829   2835     1   0.15241 261918.400000
   2832   2836     1   0.15241 261918.400000
   2835   4365     1   0.13789 357815.680000
   2835   2837     1   0.12183 533627.360000
   2836   2838     1   0.12183 533627.360000
   2836   4377     1   0.13789 357815.680000
   2841   2844     1   0.15375 251793.120000
   2841   2847     1   0.14647 272713.120000
   2844   2864     1   0.14619 275056.160000
   2847   2848     1   0.14647 272713.120000
   2847   2851     1   0.14647 272713.120000
   2848   2857     1   0.15375 251793.120000
   2851   2854     1   0.15375 251793.120000
   2854   2860     1   0.15241 261918.400000
   2857   2861     1   0.15241 261918.400000
   2860   4389     1   0.13789 357815.680000
   2860   2862     1   0.12183 533627.360000
   2861   2863     1   0.12183 533627.360000
   2861   4401     1   0.13789 357815.680000
   2866   2869     1   0.15375 251793.120000
   2866   2872     1   0.14647 272713.120000
   2869   2889     1   0.14619 275056.160000
   2872   2873     1   0.14647 272713.120000
   2872   2876     1   0.14647 272713.120000
   2873   2882     1   0.15375 251793.120000
   2876   2879     1   0.15375 251793.120000
   2879   2885     1   0.15241 261918.400000
   2882   2886     1   0.15241 261918.400000
   2885   4413     1   0.13789 357815.680000
   2885   2887     1   0.12183 533627.360000
   2886   2888     1   0.12183 533627.360000
   2886   4425     1   0.13789 357815.680000
   2891   2894     1   0.15375 251793.120000
   2891   2897     1   0.14647 272713.120000
   2894   2914     1   0.14619 275056.160000
   2897   2898     1   0.14647 272713.120000
   2897   2901     1   0.14647 272713.120000
   2898   2907     1   0.15375 251793.120000
   2901   2904     1   0.15375 251793.120000
   2904   2910     1   0.15241 261918.400000
   2907   2911     1   0.15241 261918.400000
   2910   4437     1   0.13789 357815.680000
   2910   2912     1   0.12183 533627.360000
   2911   2913     1   0.12183 533627.360000
   2911   4449     1   0.13789 357815.680000
   2916   2919     1   0.15375 251793.120000
   2916   2922     1   0.14647 272713.120000
   2919   2939     1   0.14619 275056.160000
   2922   2923     1   0.14647 272713.120000
   2922   2926     1   0.14647 272713.120000
   2923   2932     1   0.15375 251793.120000
   2926   2929     1   0.15375 251793.120000
   2929   2935     1   0.15241 261918.400000
   2932   2936     1   0.15241 261918.400000
   2935   4461     1   0.13789 357815.680000
   2935   2937     1   0.12183 533627.360000
   2936   2938     1   0.12183 533627.360000
   2936   4473     1   0.13789 357815.680000
   2941   2944     1   0.15375 251793.120000
   2941   2947     1   0.14647 272713.120000
   2944   2964     1   0.14619 275056.160000
   2947   2948     1   0.14647 272713.120000
   2947   2951     1   0.14647 272713.120000
   2948   2957     1   0.15375 251793.120000
   2951   2954     1   0.15375 251793.120000
   2954   2960     1   0.15241 261918.400000
   2957   2961     1   0.15241 261918.400000
   2960   4485     1   0.13789 357815.680000
   2960   2962     1   0.12183 533627.360000
   2961   2963     1   0.12183 533627.360000
   2961   4497     1   0.13789 357815.680000
   2966   2969     1   0.15375 251793.120000
   2966   2972     1   0.14647 272713.120000
   2969   2989     1   0.14619 275056.160000
   2972   2973     1   0.14647 272713.120000
   2972   2976     1   0.14647 272713.120000
   2973   2982     1   0.15375 251793.120000
   2976   2979     1   0.15375 251793.120000
   2979   2985     1   0.15241 261918.400000
   2982   2986     1   0.15241 261918.400000
   2985   4509     1   0.13789 357815.680000
   2985   2987     1   0.12183 533627.360000
   2986   2988     1   0.12183 533627.360000
   2986   4521     1   0.13789 357815.680000
   2991   2994     1   0.15375 251793.120000
   2991   2997     1   0.14647 272713.120000
   2994   3014     1   0.14619 275056.160000
   2997   2998     1   0.14647 272713.120000
   2997   3001     1   0.14647 272713.120000
   2998   3007     1   0.15375 251793.120000
   3001   3004     1   0.15375 251793.120000
   3004   3010     1   0.15241 261918.400000
   3007   3011     1   0.15241 261918.400000
   3010   4533     1   0.13789 357815.680000
   3010   3012     1   0.12183 533627.360000
   3011   3013     1   0.12183 533627.360000
   3011   4545     1   0.13789 357815.680000
   3016   3019     1   0.15375 251793.120000
   3016   3022     1   0.14647 272713.120000
   3019   3039     1   0.14619 275056.160000
   3022   3023     1   0.14647 272713.120000
   3022   3026     1   0.14647 272713.120000
   3023   3032     1   0.15375 251793.120000
   3026   3029     1   0.15375 251793.120000
   3029   3035     1   0.15241 261918.400000
   3032   3036     1   0.15241 261918.400000
   3035   4557     1   0.13789 357815.680000
   3035   3037     1   0.12183 533627.360000
   3036   3038     1   0.12183 533627.360000
   3036   4569     1   0.13789 357815.680000
   3041   3044     1   0.15375 251793.120000
   3041   3047     1   0.14647 272713.120000
   3044   3064     1   0.14619 275056.160000
   3047   3048     1   0.14647 272713.120000
   3047   3051     1   0.14647 272713.120000
   3048   3057     1   0.15375 251793.120000
   3051   3054     1   0.15375 251793.120000
   3054   3060     1   0.15241 261918.400000
   3057   3061     1   0.15241 261918.400000
   3060   4581     1   0.13789 357815.680000
   3060   3062     1   0.12183 533627.360000
   3061   3063     1   0.12183 533627.360000
   3061   4593     1   0.13789 357815.680000
   3066   3069     1   0.15375 251793.120000
   3066   3072     1   0.14647 272713.120000
   3069   3089     1   0.14619 275056.160000
   3072   3073     1   0.14647 272713.120000
   3072   3076     1   0.14647 272713.120000
   3073   3082     1   0.15375 251793.120000
   3076   3079     1   0.15375 251793.120000
   3079   3085     1   0.15241 261918.400000
   3082   3086     1   0.15241 261918.400000
   3085   4605     1   0.13789 357815.680000
   3085   3087     1   0.12183 533627.360000
   3086   3088     1   0.12183 533627.360000
   3086   4617     1   0.13789 357815.680000
   3091   3094     1   0.15375 251793.120000
   3091   3097     1   0.14647 272713.120000
   3094   3114     1   0.14619 275056.160000
   3097   3098     1   0.14647 272713.120000
   3097   3101     1   0.14647 272713.120000
   3098   3107     1   0.15375 251793.120000
   3101   3104     1   0.15375 251793.120000
   3104   3110     1   0.15241 261918.400000
   3107   3111     1   0.15241 261918.400000
   3110   4629     1   0.13789 357815.680000
   3110   3112     1   0.12183 533627.360000
   3111   3113     1   0.12183 533627.360000
   3111   4641     1   0.13789 357815.680000
   3116   3119     1   0.15375 251793.120000
   3116   3122     1   0.14647 272713.120000
   3119   3139     1   0.14619 275056.160000
   3122   3123     1   0.14647 272713.120000
   3122   3126     1   0.14647 272713.120000
   3123   3132     1   0.15375 251793.120000
   3126   3129     1   0.15375 251793.120000
   3129   3135     1   0.15241 261918.400000
   3132   3136     1   0.15241 261918.400000
   3135   4653     1   0.13789 357815.680000
   3135   3137     1   0.12183 533627.360000
   3136   4665     1   0.13789 357815.680000
   3136   3138     1   0.12183 533627.360000
   3141   3143     1   0.14619 275056.160000
   3143   3144     1   0.15375 251793.120000
   3144   3149     1   0.15110 237065.440000
   3153   3155     1   0.14619 275056.160000
   3155   3156     1   0.15375 251793.120000
   3156   3161     1   0.15110 237065.440000
   3165   3167     1   0.14619 275056.160000
   3167   3168     1   0.15375 251793.120000
   3168   3173     1   0.15110 237065.440000
   3177   3179     1   0.14619 275056.160000
   3179   3180     1   0.15375 251793.120000
   3180   3185     1   0.15110 237065.440000
   3189   3191     1   0.14619 275056.160000
   3191   3192     1   0.15375 251793.120000
   3192   3197     1   0.15110 237065.440000
   3201   3203     1   0.14619 275056.160000
   3203   3204     1   0.15375 251793.120000
   3204   3209     1   0.15110 237065.440000
   3213   3215     1   0.14619 275056.160000
   3215   3216     1   0.15375 251793.120000
   3216   3221     1   0.15110 237065.440000
   3225   3227     1   0.14619 275056.160000
   3227   3228     1   0.15375 251793.120000
   3228   3233     1   0.15110 237065.440000
   3237   3239     1   0.14619 275056.160000
   3239   3240     1   0.15375 251793.120000
   3240   3245     1   0.15110 237065.440000
   3249   3251     1   0.14619 275056.160000
   3251   3252     1   0.15375 251793.120000
   3252   3257     1   0.15110 237065.440000
   3261   3263     1   0.14619 275056.160000
   3263   3264     1   0.15375 251793.120000
   3264   3269     1   0.15110 237065.440000
   3273   3275     1   0.14619 275056.160000
   3275   3276     1   0.15375 251793.120000
   3276   3281     1   0.15110 237065.440000
   3285   3287     1   0.14619 275056.160000
   3287   3288     1   0.15375 251793.120000
   3288   3293     1   0.15110 237065.440000
   3297   3299     1   0.14619 275056.160000
   3299   3300     1   0.15375 251793.120000
   3300   3305     1   0.15110 237065.440000
   3309   3311     1   0.14619 275056.160000
   3311   3312     1   0.15375 251793.120000
   3312   3317     1   0.15110 237065.440000
   3321   3323     1   0.14619 275056.160000
   3323   3324     1   0.15375 251793.120000
   3324   3329     1   0.15110 237065.440000
   3333   3335     1   0.14619 275056.160000
   3335   3336     1   0.15375 251793.120000
   3336   3341     1   0.15110 237065.440000
   3345   3347     1   0.14619 275056.160000
   3347   3348     1   0.15375 251793.120000
   3348   3353     1   0.15110 237065.440000
   3357   3359     1   0.14619 275056.160000
   3359   3360     1   0.15375 251793.120000
   3360   3365     1   0.15110 237065.440000
   3369   3371     1   0.14619 275056.160000
   3371   3372     1   0.15375 251793.120000
   3372   3377     1   0.15110 237065.440000
   3381   3383     1   0.14619 275056.160000
   3383   3384     1   0.15375 251793.120000
   3384   3389     1   0.15110 237065.440000
   3393   3395     1   0.14619 275056.160000
   3395   3396     1   0.15375 251793.120000
   3396   3401     1   0.15110 237065.440000
   3405   3407     1   0.14619 275056.160000
   3407   3408     1   0.15375 251793.120000
   3408   3413     1   0.15110 237065.440000
   3417   3419     1   0.14619 275056.160000
   3419   3420     1   0.15375 251793.120000
   3420   3425     1   0.15110 237065.440000
   3429   3431     1   0.14619 275056.160000
   3431   3432     1   0.15375 251793.120000
   3432   3437     1   0.15110 237065.440000
   3441   3443     1   0.14619 275056.160000
   3443   3444     1   0.15375 251793.120000
   3444   3449     1   0.15110 237065.440000
   3453   3455     1   0.14619 275056.160000
   3455   3456     1   0.15375 251793.120000
   3456   3461     1   0.15110 237065.440000
   3465   3467     1   0.14619 275056.160000
   3467   3468     1   0.15375 251793.120000
   3468   3473     1   0.15110 237065.440000
   3477   3479     1   0.14619 275056.160000
   3479   3480     1   0.15375 251793.120000
   3480   3485     1   0.15110 237065.440000
   3489   3491     1   0.14619 275056.160000
   3491   3492     1   0.15375 251793.120000
   3492   3497     1   0.15110 237065.440000
   3501   3503     1   0.14619 275056.160000
   3503   3504     1   0.15375 251793.120000
   3504   3509     1   0.15110 237065.440000
   3513   3515     1   0.14619 275056.160000
   3515   3516     1   0.15375 251793.120000
   3516   3521     1   0.15110 237065.440000
   3525   3527     1   0.14619 275056.160000
   3527   3528     1   0.15375 251793.120000
   3528   3533     1   0.15110 237065.440000
   3537   3539     1   0.14619 275056.160000
   3539   3540     1   0.15375 251793.120000
   3540   3545     1   0.15110 237065.440000
   3549   3551     1   0.14619 275056.160000
   3551   3552     1   0.15375 251793.120000
   3552   3557     1   0.15110 237065.440000
   3561   3563     1   0.14619 275056.160000
   3563   3564     1   0.15375 251793.120000
   3564   3569     1   0.15110 237065.440000
   3573   3575     1   0.14619 275056.160000
   3575   3576     1   0.15375 251793.120000
   3576   3581     1   0.15110 237065.440000
   3585   3587     1   0.14619 275056.160000
   3587   3588     1   0.15375 251793.120000
   3588   3593     1   0.15110 237065.440000
   3597   3599     1   0.14619 275056.160000
   3599   3600     1   0.15375 251793.120000
   3600   3605     1   0.15110 237065.440000
   3609   3611     1   0.14619 275056.160000
   3611   3612     1   0.15375 251793.120000
   3612   3617     1   0.15110 237065.440000
   3621   3623     1   0.14619 275056.160000
   3623   3624     1   0.15375 251793.120000
   3624   3629     1   0.15110 237065.440000
   3633   3635     1   0.14619 275056.160000
   3635   3636     1   0.15375 251793.120000
   3636   3641     1   0.15110 237065.440000
   3645   3647     1   0.14619 275056.160000
   3647   3648     1   0.15375 251793.120000
   3648   3653     1   0.15110 237065.440000
   3657   3659     1   0.14619 275056.160000
   3659   3660     1   0.15375 251793.120000
   3660   3665     1   0.15110 237065.440000
   3669   3671     1   0.14619 275056.160000
   3671   3672     1   0.15375 251793.120000
   3672   3677     1   0.15110 237065.440000
   3681   3683     1   0.14619 275056.160000
   3683   3684     1   0.15375 251793.120000
   3684   3689     1   0.15110 237065.440000
   3693   3695     1   0.14619 275056.160000
   3695   3696     1   0.15375 251793.120000
   3696   3701     1   0.15110 237065.440000
   3705   3707     1   0.14619 275056.160000
   3707   3708     1   0.15375 251793.120000
   3708   3713     1   0.15110 237065.440000
   3717   3719     1   0.14619 275056.160000
   3719   3720     1   0.15375 251793.120000
   3720   3725     1   0.15110 237065.440000
   3729   3731     1   0.14619 275056.160000
   3731   3732     1   0.15375 251793.120000
   3732   3737     1   0.15110 237065.440000
   3741   3743     1   0.14619 275056.160000
   3743   3744     1   0.15375 251793.120000
   3744   3749     1   0.15110 237065.440000
   3753   3755     1   0.14619 275056.160000
   3755   3756     1   0.15375 251793.120000
   3756   3761     1   0.15110 237065.440000
   3765   3767     1   0.14619 275056.160000
   3767   3768     1   0.15375 251793.120000
   3768   3773     1   0.15110 237065.440000
   3777   3779     1   0.14619 275056.160000
   3779   3780     1   0.15375 251793.120000
   3780   3785     1   0.15110 237065.440000
   3789   3791     1   0.14619 275056.160000
   3791   3792     1   0.15375 251793.120000
   3792   3797     1   0.15110 237065.440000
   3801   3803     1   0.14619 275056.160000
   3803   3804     1   0.15375 251793.120000
   3804   3809     1   0.15110 237065.440000
   3813   3815     1   0.14619 275056.160000
   3815   3816     1   0.15375 251793.120000
   3816   3821     1   0.15110 237065.440000
   3825   3827     1   0.14619 275056.160000
   3827   3828     1   0.15375 251793.120000
   3828   3833     1   0.15110 237065.440000
   3837   3839     1   0.14619 275056.160000
   3839   3840     1   0.15375 251793.120000
   3840   3845     1   0.15110 237065.440000
   3849   3851     1   0.14619 275056.160000
   3851   3852     1   0.15375 251793.120000
   3852   3857     1   0.15110 237065.440000
   3861   3863     1   0.14619 275056.160000
   3863   3864     1   0.15375 251793.120000
   3864   3869     1   0.15110 237065.440000
   3873   3875     1   0.14619 275056.160000
   3875   3876     1   0.15375 251793.120000
   3876   3881     1   0.15110 237065.440000
   3885   3887     1   0.14619 275056.160000
   3887   3888     1   0.15375 251793.120000
   3888   3893     1   0.15110 237065.440000
   3897   3899     1   0.14619 275056.160000
   3899   3900     1   0.15375 251793.120000
   3900   3905     1   0.15110 237065.440000
   3909   3911     1   0.14619 275056.160000
   3911   3912     1   0.15375 251793.120000
   3912   3917     1   0.15110 237065.440000
   3921   3923     1   0.14619 275056.160000
   3923   3924     1   0.15375 251793.120000
   3924   3929     1   0.15110 237065.440000
   3933   3935     1   0.14619 275056.160000
   3935   3936     1   0.15375 251793.120000
   3936   3941     1   0.15110 237065.440000
   3945   3947     1   0.14619 275056.160000
   3947   3948     1   0.15375 251793.120000
   3948   3953     1   0.15110 237065.440000
   3957   3959     1   0.14619 275056.160000
   3959   3960     1   0.15375 251793.120000
   3960   3965     1   0.15110 237065.440000
   3969   3971     1   0.14619 275056.160000
   3971   3972     1   0.15375 251793.120000
   3972   3977     1   0.15110 237065.440000
   3981   3983     1   0.14619 275056.160000
   3983   3984     1   0.15375 251793.120000
   3984   3989     1   0.15110 237065.440000
   3993   3995     1   0.14619 275056.160000
   3995   3996     1   0.15375 251793.120000
   3996   4001     1   0.15110 237065.440000
   4005   4007     1   0.14619 275056.160000
   4007   4008     1   0.15375 251793.120000
   4008   4013     1   0.15110 237065.440000
   4017   4019     1   0.14619 275056.160000
   4019   4020     1   0.15375 251793.120000
   4020   4025     1   0.15110 237065.440000
   4029   4031     1   0.14619 275056.160000
   4031   4032     1   0.15375 251793.120000
   4032   4037     1   0.15110 237065.440000
   4041   4043     1   0.14619 275056.160000
   4043   4044     1   0.15375 251793.120000
   4044   4049     1   0.15110 237065.440000
   4053   4055     1   0.14619 275056.160000
   4055   4056     1   0.15375 251793.120000
   4056   4061     1   0.15110 237065.440000
   4065   4067     1   0.14619 275056.160000
   4067   4068     1   0.15375 251793.120000
   4068   4073     1   0.15110 237065.440000
   4077   4079     1   0.14619 275056.160000
   4079   4080     1   0.15375 251793.120000
   4080   4085     1   0.15110 237065.440000
   4089   4091     1   0.14619 275056.160000
   4091   4092     1   0.15375 251793.120000
   4092   4097     1   0.15110 237065.440000
   4101   4103     1   0.14619 275056.160000
   4103   4104     1   0.15375 251793.120000
   4104   4109     1   0.15110 237065.440000
   4113   4115     1   0.14619 275056.160000
   4115   4116     1   0.15375 251793.120000
   4116   4121     1   0.15110 237065.440000
   4125   4127     1   0.14619 275056.160000
   4127   4128     1   0.15375 251793.120000
   4128   4133     1   0.15110 237065.440000
   4137   4139     1   0.14619 275056.160000
   4139   4140     1   0.15375 251793.120000
   4140   4145     1   0.15110 237065.440000
   4149   4151     1   0.14619 275056.160000
   4151   4152     1   0.15375 251793.120000
   4152   4157     1   0.15110 237065.440000
   4161   4163     1   0.14619 275056.160000
   4163   4164     1   0.15375 251793.120000
   4164   4169     1   0.15110 237065.440000
   4173   4175     1   0.14619 275056.160000
   4175   4176     1   0.15375 251793.120000
   4176   4181     1   0.15110 237065.440000
   4185   4187     1   0.14619 275056.160000
   4187   4188     1   0.15375 251793.120000
   4188   4193     1   0.15110 237065.440000
   4197   4199     1   0.14619 275056.160000
   4199   4200     1   0.15375 251793.120000
   4200   4205     1   0.15110 237065.440000
   4209   4211     1   0.14619 275056.160000
   4211   4212     1   0.15375 251793.120000
   4212   4217     1   0.15110 237065.440000
   4221   4223     1   0.14619 275056.160000
   4223   4224     1   0.15375 251793.120000
   4224   4229     1   0.15110 237065.440000
   4233   4235     1   0.14619 275056.160000
   4235   4236     1   0.15375 251793.120000
   4236   4241     1   0.15110 237065.440000
   4245   4247     1   0.14619 275056.160000
   4247   4248     1   0.15375 251793.120000
   4248   4253     1   0.15110 237065.440000
   4257   4259     1   0.14619 275056.160000
   4259   4260     1   0.15375 251793.120000
   4260   4265     1   0.15110 237065.440000
   4269   4271     1   0.14619 275056.160000
   4271   4272     1   0.15375 251793.120000
   4272   4277     1   0.15110 237065.440000
   4281   4283     1   0.14619 275056.160000
   4283   4284     1   0.15375 251793.120000
   4284   4289     1   0.15110 237065.440000
   4293   4295     1   0.14619 275056.160000
   4295   4296     1   0.15375 251793.120000
   4296   4301     1   0.15110 237065.440000
   4305   4307     1   0.14619 275056.160000
   4307   4308     1   0.15375 251793.120000
   4308   4313     1   0.15110 237065.440000
   4317   4319     1   0.14619 275056.160000
   4319   4320     1   0.15375 251793.120000
   4320   4325     1   0.15110 237065.440000
   4329   4331     1   0.14619 275056.160000
   4331   4332     1   0.15375 251793.120000
   4332   4337     1   0.15110 237065.440000
   4341   4343     1   0.14619 275056.160000
   4343   4344     1   0.15375 251793.120000
   4344   4349     1   0.15110 237065.440000
   4353   4355     1   0.14619 275056.160000
   4355   4356     1   0.15375 251793.120000
   4356   4361     1   0.15110 237065.440000
   4365   4367     1   0.14619 275056.160000
   4367   4368     1   0.15375 251793.120000
   4368   4373     1   0.15110 237065.440000
   4377   4379     1   0.14619 275056.160000
   4379   4380     1   0.15375 251793.120000
   4380   4385     1   0.15110 237065.440000
   4389   4391     1   0.14619 275056.160000
   4391   4392     1   0.15375 251793.120000
   4392   4397     1   0.15110 237065.440000
   4401   4403     1   0.14619 275056.160000
   4403   4404     1   0.15375 251793.120000
   4404   4409     1   0.15110 237065.440000
   4413   4415     1   0.14619 275056.160000
   4415   4416     1   0.15375 251793.120000
   4416   4421     1   0.15110 237065.440000
   4425   4427     1   0.14619 275056.160000
   4427   4428     1   0.15375 251793.120000
   4428   4433     1   0.15110 237065.440000
   4437   4439     1   0.14619 275056.160000
   4439   4440     1   0.15375 251793.120000
   4440   4445     1   0.15110 237065.440000
   4449   4451     1   0.14619 275056.160000
   4451   4452     1   0.15375 251793.120000
   4452   4457     1   0.15110 237065.440000
   4461   4463     1   0.14619 275056.160000
   4463   4464     1   0.15375 251793.120000
   4464   4469     1   0.15110 237065.440000
   4473   4475     1   0.14619 275056.160000
   4475   4476     1   0.15375 251793.120000
   4476   4481     1   0.15110 237065.440000
   4485   4487     1   0.14619 275056.160000
   4487   4488     1   0.15375 251793.120000
   4488   4493     1   0.15110 237065.440000
   4497   4499     1   0.14619 275056.160000
   4499   4500     1   0.15375 251793.120000
   4500   4505     1   0.15110 237065.440000
   4509   4511     1   0.14619 275056.160000
   4511   4512     1   0.15375 251793.120000
   4512   4517     1   0.15110 237065.440000
   4521   4523     1   0.14619 275056.160000
   4523   4524     1   0.15375 251793.120000
   4524   4529     1   0.15110 237065.440000
   4533   4535     1   0.14619 275056.160000
   4535   4536     1   0.15375 251793.120000
   4536   4541     1   0.15110 237065.440000
   4545   4547     1   0.14619 275056.160000
   4547   4548     1   0.15375 251793.120000
   4548   4553     1   0.15110 237065.440000
   4557   4559     1   0.14619 275056.160000
   4559   4560     1   0.15375 251793.120000
   4560   4565     1   0.15110 237065.440000
   4569   4571     1   0.14619 275056.160000
   4571   4572     1   0.15375 251793.120000
   4572   4577     1   0.15110 237065.440000
   4581   4583     1   0.14619 275056.160000
   4583   4584     1   0.15375 251793.120000
   4584   4589     1   0.15110 237065.440000
   4593   4595     1   0.14619 275056.160000
   4595   4596     1   0.15375 251793.120000
   4596   4601     1   0.15110 237065.440000
   4605   4607     1   0.14619 275056.160000
   4607   4608     1   0.15375 251793.120000
   4608   4613     1   0.15110 237065.440000
   4617   4619     1   0.14619 275056.160000
   4619   4620     1   0.15375 251793.120000
   4620   4625     1   0.15110 237065.440000
   4629   4631     1   0.14619 275056.160000
   4631   4632     1   0.15375 251793.120000
   4632   4637     1   0.15110 237065.440000
   4641   4643     1   0.14619 275056.160000
   4643   4644     1   0.15375 251793.120000
   4644   4649     1   0.15110 237065.440000
   4653   4655     1   0.14619 275056.160000
   4655   4656     1   0.15375 251793.120000
   4656   4661     1   0.15110 237065.440000
   4665   4667     1   0.14619 275056.160000
   4667   4668     1   0.15375 251793.120000
   4668   4673     1   0.15110 237065.440000
      1      2     1   0.10969 276646.080000
      1      3     1   0.10969 276646.080000
      4      5     1   0.10969 276646.080000
      4      6     1   0.10969 276646.080000
      9     10     1   0.10969 276646.080000
      9     11     1   0.10969 276646.080000
     12     13     1   0.10969 276646.080000
     12     14     1   0.10969 276646.080000
     15     16     1   0.10969 276646.080000
     15     17     1   0.10969 276646.080000
     18     19     1   0.10969 276646.080000
     18     20     1   0.10969 276646.080000
     21     22     1   0.10969 276646.080000
     21     23     1   0.10969 276646.080000
     24     25     1   0.10969 276646.080000
     24     26     1   0.10969 276646.080000
     27     28     1   0.10969 276646.080000
     27     29     1   0.10969 276646.080000
     30     31     1   0.10969 276646.080000
     30     32     1   0.10969 276646.080000
     41     42     1   0.10969 276646.080000
     41     43     1   0.10969 276646.080000
     44     45     1   0.10969 276646.080000
     44     46     1   0.10969 276646.080000
     48     49     1   0.10969 276646.080000
     48     50     1   0.10969 276646.080000
     51     52     1   0.10969 276646.080000
     51     53     1   0.10969 276646.080000
     54     55     1   0.10969 276646.080000
     54     56     1   0.10969 276646.080000
     57     58     1   0.10969 276646.080000
     57     59     1   0.10969 276646.080000
     64     65     1   0.10129 337397.760000
     66     67     1   0.10969 276646.080000
     66     68     1   0.10969 276646.080000
     69     70     1   0.10969 276646.080000
     69     71     1   0.10969 276646.080000
     73     74     1   0.10969 276646.080000
     73     75     1   0.10969 276646.080000
     76     77     1   0.10969 276646.080000
     76     78     1   0.10969 276646.080000
     79     80     1   0.10969 276646.080000
     79     81     1   0.10969 276646.080000
     82     83     1   0.10969 276646.080000
     82     84     1   0.10969 276646.080000
     89     90     1   0.10129 337397.760000
     91     92     1   0.10969 276646.080000
     91     93     1   0.10969 276646.080000
     94     95     1   0.10969 276646.080000
     94     96     1   0.10969 276646.080000
     98     99     1   0.10969 276646.080000
     98    100     1   0.10969 276646.080000
    101    102     1   0.10969 276646.080000
    101    103     1   0.10969 276646.080000
    104    105     1   0.10969 276646.080000
    104    106     1   0.10969 276646.080000
    107    108     1   0.10969 276646.080000
    107    109     1   0.10969 276646.080000
    114    115     1   0.10129 337397.760000
    116    117     1   0.10969 276646.080000
    116    118     1   0.10969 276646.080000
    119    120     1   0.10969 276646.080000
    119    121     1   0.10969 276646.080000
    123    124     1   0.10969 276646.080000
    123    125     1   0.10969 276646.080000
    126    127     1   0.10969 276646.080000
    126    128     1   0.10969 276646.080000
    129    130     1   0.10969 276646.080000
    129    131     1   0.10969 276646.080000
    132    133     1   0.10969 276646.080000
    132    134     1   0.10969 276646.080000
    139    140     1   0.10129 337397.760000
    141    142     1   0.10969 276646.080000
    141    143     1   0.10969 276646.080000
    144    145     1   0.10969 276646.080000
    144    146     1   0.10969 276646.080000
    148    149     1   0.10969 276646.080000
    148    150     1   0.10969 276646.080000
    151    152     1   0.10969 276646.080000
    151    153     1   0.10969 276646.080000
    154    155     1   0.10969 276646.080000
    154    156     1   0.10969 276646.080000
    157    158     1   0.10969 276646.080000
    157    159     1   0.10969 276646.080000
    164    165     1   0.10129 337397.760000
    166    167     1   0.10969 276646.080000
    166    168     1   0.10969 276646.080000
    169    170     1   0.10969 276646.080000
    169    171     1   0.10969 276646.080000
    173    174     1   0.10969 276646.080000
    173    175     1   0.10969 276646.080000
    176    177     1   0.10969 276646.080000
    176    178     1   0.10969 276646.080000
    179    180     1   0.10969 276646.080000
    179    181     1   0.10969 276646.080000
    182    183     1   0.10969 276646.080000
    182    184     1   0.10969 276646.080000
    189    190     1   0.10129 337397.760000
    191    192     1   0.10969 276646.080000
    191    193     1   0.10969 276646.080000
    194    195     1   0.10969 276646.080000
    194    196     1   0.10969 276646.080000
    198    199     1   0.10969 276646.080000
    198    200     1   0.10969 276646.080000
    201    202     1   0.10969 276646.080000
    201    203     1   0.10969 276646.080000
    204    205     1   0.10969 276646.080000
    204    206     1   0.10969 276646.080000
    207    208     1   0.10969 276646.080000
    207    209     1   0.10969 276646.080000
    214    215     1   0.10129 337397.760000
    216    217     1   0.10969 276646.080000
    216    218     1   0.10969 276646.080000
    219    220     1   0.10969 276646.080000
    219    221     1   0.10969 276646.080000
    223    224     1   0.10969 276646.080000
    223    225     1   0.10969 276646.080000
    226    227     1   0.10969 276646.080000
    226    228     1   0.10969 276646.080000
    229    230     1   0.10969 276646.080000
    229    231     1   0.10969 276646.080000
    232    233     1   0.10969 276646.080000
    232    234     1   0.10969 276646.080000
    239    240     1   0.10129 337397.760000
    241    242     1   0.10969 276646.080000
    241    243     1   0.10969 276646.080000
    244    245     1   0.10969 276646.080000
    244    246     1   0.10969 276646.080000
    248    249     1   0.10969 276646.080000
    248    250     1   0.10969 276646.080000
    251    252     1   0.10969 276646.080000
    251    253     1   0.10969 276646.080000
    254    255     1   0.10969 276646.080000
    254    256     1   0.10969 276646.080000
    257    258     1   0.10969 276646.080000
    257    259     1   0.10969 276646.080000
    264    265     1   0.10129 337397.760000
    266    267     1   0.10969 276646.080000
    266    268     1   0.10969 276646.080000
    269    270     1   0.10969 276646.080000
    269    271     1   0.10969 276646.080000
    273    274     1   0.10969 276646.080000
    273    275     1   0.10969 276646.080000
    276    277     1   0.10969 276646.080000
    276    278     1   0.10969 276646.080000
    279    280     1   0.10969 276646.080000
    279    281     1   0.10969 276646.080000
    282    283     1   0.10969 276646.080000
    282    284     1   0.10969 276646.080000
    289    290     1   0.10129 337397.760000
    291    292     1   0.10969 276646.080000
    291    293     1   0.10969 276646.080000
    294    295     1   0.10969 276646.080000
    294    296     1   0.10969 276646.080000
    298    299     1   0.10969 276646.080000
    298    300     1   0.10969 276646.080000
    301    302     1   0.10969 276646.080000
    301    303     1   0.10969 276646.080000
    304    305     1   0.10969 276646.080000
    304    306     1   0.10969 276646.080000
    307    308     1   0.10969 276646.080000
    307    309     1   0.10969 276646.080000
    314    315     1   0.10129 337397.760000
    316    317     1   0.10969 276646.080000
    316    318     1   0.10969 276646.080000
    319    320     1   0.10969 276646.080000
    319    321     1   0.10969 276646.080000
    323    324     1   0.10969 276646.080000
    323    325     1   0.10969 276646.080000
    326    327     1   0.10969 276646.080000
    326    328     1   0.10969 276646.080000
    329    330     1   0.10969 276646.080000
    329    331     1   0.10969 276646.080000
    332    333     1   0.10969 276646.080000
    332    334     1   0.10969 276646.080000
    339    340     1   0.10129 337397.760000
    341    342     1   0.10969 276646.080000
    341    343     1   0.10969 276646.080000
    344    345     1   0.10969 276646.080000
    344    346     1   0.10969 276646.080000
    348    349     1   0.10969 276646.080000
    348    350     1   0.10969 276646.080000
    351    352     1   0.10969 276646.080000
    351    353     1   0.10969 276646.080000
    354    355     1   0.10969 276646.080000
    354    356     1   0.10969 276646.080000
    357    358     1   0.10969 276646.080000
    357    359     1   0.10969 276646.080000
    364    365     1   0.10129 337397.760000
    366    367     1   0.10969 276646.080000
    366    368     1   0.10969 276646.080000
    369    370     1   0.10969 276646.080000
    369    371     1   0.10969 276646.080000
    373    374     1   0.10969 276646.080000
    373    375     1   0.10969 276646.080000
    376    377     1   0.10969 276646.080000
    376    378     1   0.10969 276646.080000
    379    380     1   0.10969 276646.080000
    379    381     1   0.10969 276646.080000
    382    383     1   0.10969 276646.080000
    382    384     1   0.10969 276646.080000
    389    390     1   0.10129 337397.760000
    391    392     1   0.10969 276646.080000
    391    393     1   0.10969 276646.080000
    394    395     1   0.10969 276646.080000
    394    396     1   0.10969 276646.080000
    398    399     1   0.10969 276646.080000
    398    400     1   0.10969 276646.080000
    401    402     1   0.10969 276646.080000
    401    403     1   0.10969 276646.080000
    404    405     1   0.10969 276646.080000
    404    406     1   0.10969 276646.080000
    407    408     1   0.10969 276646.080000
    407    409     1   0.10969 276646.080000
    414    415     1   0.10129 337397.760000
    416    417     1   0.10969 276646.080000
    416    418     1   0.10969 276646.080000
    419    420     1   0.10969 276646.080000
    419    421     1   0.10969 276646.080000
    423    424     1   0.10969 276646.080000
    423    425     1   0.10969 276646.080000
    426    427     1   0.10969 276646.080000
    426    428     1   0.10969 276646.080000
    429    430     1   0.10969 276646.080000
    429    431     1   0.10969 276646.080000
    432    433     1   0.10969 276646.080000
    432    434     1   0.10969 276646.080000
    439    440     1   0.10129 337397.760000
    441    442     1   0.10969 276646.080000
    441    443     1   0.10969 276646.080000
    444    445     1   0.10969 276646.080000
    444    446     1   0.10969 276646.080000
    448    449     1   0.10969 276646.080000
    448    450     1   0.10969 276646.080000
    451    452     1   0.10969 276646.080000
    451    453     1   0.10969 276646.080000
    454    455     1   0.10969 276646.080000
    454    456     1   0.10969 276646.080000
    457    458     1   0.10969 276646.080000
    457    459     1   0.10969 276646.080000
    464    465     1   0.10129 337397.760000
    466    467     1   0.10969 276646.080000
    466    468     1   0.10969 276646.080000
    469    470     1   0.10969 276646.080000
    469    471     1   0.10969 276646.080000
    473    474     1   0.10969 276646.080000
    473    475     1   0.10969 276646.080000
    476    477     1   0.10969 276646.080000
    476    478     1   0.10969 276646.080000
    479    480     1   0.10969 276646.080000
    479    481     1   0.10969 276646.080000
    482    483     1   0.10969 276646.080000
    482    484     1   0.10969 276646.080000
    489    490     1   0.10129 337397.760000
    491    492     1   0.10969 276646.080000
    491    493     1   0.10969 276646.080000
    494    495     1   0.10969 276646.080000
    494    496     1   0.10969 276646.080000
    498    499     1   0.10969 276646.080000
    498    500     1   0.10969 276646.080000
    501    502     1   0.10969 276646.080000
    501    503     1   0.10969 276646.080000
    504    505     1   0.10969 276646.080000
    504    506     1   0.10969 276646.080000
    507    508     1   0.10969 276646.080000
    507    509     1   0.10969 276646.080000
    514    515     1   0.10129 337397.760000
    516    517     1   0.10969 276646.080000
    516    518     1   0.10969 276646.080000
    519    520     1   0.10969 276646.080000
    519    521     1   0.10969 276646.080000
    523    524     1   0.10969 276646.080000
    523    525     1   0.10969 276646.080000
    526    527     1   0.10969 276646.080000
    526    528     1   0.10969 276646.080000
    529    530     1   0.10969 276646.080000
    529    531     1   0.10969 276646.080000
    532    533     1   0.10969 276646.080000
    532    534     1   0.10969 276646.080000
    539    540     1   0.10129 337397.760000
    541    542     1   0.10969 276646.080000
    541    543     1   0.10969 276646.080000
    544    545     1   0.10969 276646.080000
    544    546     1   0.10969 276646.080000
    548    549     1   0.10969 276646.080000
    548    550     1   0.10969 276646.080000
    551    552     1   0.10969 276646.080000
    551    553     1   0.10969 276646.080000
    554    555     1   0.10969 276646.080000
    554    556     1   0.10969 276646.080000
    557    558     1   0.10969 276646.080000
    557    559     1   0.10969 276646.080000
    564    565     1   0.10129 337397.760000
    566    567     1   0.10969 276646.080000
    566    568     1   0.10969 276646.080000
    569    570     1   0.10969 276646.080000
    569    571     1   0.10969 276646.080000
    573    574     1   0.10969 276646.080000
    573    575     1   0.10969 276646.080000
    576    577     1   0.10969 276646.080000
    576    578     1   0.10969 276646.080000
    579    580     1   0.10969 276646.080000
    579    581     1   0.10969 276646.080000
    582    583     1   0.10969 276646.080000
    582    584     1   0.10969 276646.080000
    589    590     1   0.10129 337397.760000
    591    592     1   0.10969 276646.080000
    591    593     1   0.10969 276646.080000
    594    595     1   0.10969 276646.080000
    594    596     1   0.10969 276646.080000
    598    599     1   0.10969 276646.080000
    598    600     1   0.10969 276646.080000
    601    602     1   0.10969 276646.080000
    601    603     1   0.10969 276646.080000
    604    605     1   0.10969 276646.080000
    604    606     1   0.10969 276646.080000
    607    608     1   0.10969 276646.080000
    607    609     1   0.10969 276646.080000
    614    615     1   0.10129 337397.760000
    616    617     1   0.10969 276646.080000
    616    618     1   0.10969 276646.080000
    619    620     1   0.10969 276646.080000
    619    621     1   0.10969 276646.080000
    623    624     1   0.10969 276646.080000
    623    625     1   0.10969 276646.080000
    626    627     1   0.10969 276646.080000
    626    628     1   0.10969 276646.080000
    629    630     1   0.10969 276646.080000
    629    631     1   0.10969 276646.080000
    632    633     1   0.10969 276646.080000
    632    634     1   0.10969 276646.080000
    639    640     1   0.10129 337397.760000
    641    642     1   0.10969 276646.080000
    641    643     1   0.10969 276646.080000
    644    645     1   0.10969 276646.080000
    644    646     1   0.10969 276646.080000
    648    649     1   0.10969 276646.080000
    648    650     1   0.10969 276646.080000
    651    652     1   0.10969 276646.080000
    651    653     1   0.10969 276646.080000
    654    655     1   0.10969 276646.080000
    654    656     1   0.10969 276646.080000
    657    658     1   0.10969 276646.080000
    657    659     1   0.10969 276646.080000
    664    665     1   0.10129 337397.760000
    666    667     1   0.10969 276646.080000
    666    668     1   0.10969 276646.080000
    669    670     1   0.10969 276646.080000
    669    671     1   0.10969 276646.080000
    673    674     1   0.10969 276646.080000
    673    675     1   0.10969 276646.080000
    676    677     1   0.10969 276646.080000
    676    678     1   0.10969 276646.080000
    679    680     1   0.10969 276646.080000
    679    681     1   0.10969 276646.080000
    682    683     1   0.10969 276646.080000
    682    684     1   0.10969 276646.080000
    689    690     1   0.10129 337397.760000
    691    692     1   0.10969 276646.080000
    691    693     1   0.10969 276646.080000
    694    695     1   0.10969 276646.080000
    694    696     1   0.10969 276646.080000
    698    699     1   0.10969 276646.080000
    698    700     1   0.10969 276646.080000
    701    702     1   0.10969 276646.080000
    701    703     1   0.10969 276646.080000
    704    705     1   0.10969 276646.080000
    704    706     1   0.10969 276646.080000
    707    708     1   0.10969 276646.080000
    707    709     1   0.10969 276646.080000
    714    715     1   0.10129 337397.760000
    716    717     1   0.10969 276646.080000
    716    718     1   0.10969 276646.080000
    719    720     1   0.10969 276646.080000
    719    721     1   0.10969 276646.080000
    723    724     1   0.10969 276646.080000
    723    725     1   0.10969 276646.080000
    726    727     1   0.10969 276646.080000
    726    728     1   0.10969 276646.080000
    729    730     1   0.10969 276646.080000
    729    731     1   0.10969 276646.080000
    732    733     1   0.10969 276646.080000
    732    734     1   0.10969 276646.080000
    739    740     1   0.10129 337397.760000
    741    742     1   0.10969 276646.080000
    741    743     1   0.10969 276646.080000
    744    745     1   0.10969 276646.080000
    744    746     1   0.10969 276646.080000
    748    749     1   0.10969 276646.080000
    748    750     1   0.10969 276646.080000
    751    752     1   0.10969 276646.080000
    751    753     1   0.10969 276646.080000
    754    755     1   0.10969 276646.080000
    754    756     1   0.10969 276646.080000
    757    758     1   0.10969 276646.080000
    757    759     1   0.10969 276646.080000
    764    765     1   0.10129 337397.760000
    766    767     1   0.10969 276646.080000
    766    768     1   0.10969 276646.080000
    769    770     1   0.10969 276646.080000
    769    771     1   0.10969 276646.080000
    773    774     1   0.10969 276646.080000
    773    775     1   0.10969 276646.080000
    776    777     1   0.10969 276646.080000
    776    778     1   0.10969 276646.080000
    779    780     1   0.10969 276646.080000
    779    781     1   0.10969 276646.080000
    782    783     1   0.10969 276646.080000
    782    784     1   0.10969 276646.080000
    789    790     1   0.10129 337397.760000
    791    792     1   0.10969 276646.080000
    791    793     1   0.10969 276646.080000
    794    795     1   0.10969 276646.080000
    794    796     1   0.10969 276646.080000
    798    799     1   0.10969 276646.080000
    798    800     1   0.10969 276646.080000
    801    802     1   0.10969 276646.080000
    801    803     1   0.10969 276646.080000
    804    805     1   0.10969 276646.080000
    804    806     1   0.10969 276646.080000
    807    808     1   0.10969 276646.080000
    807    809     1   0.10969 276646.080000
    814    815     1   0.10129 337397.760000
    816    817     1   0.10969 276646.080000
    816    818     1   0.10969 276646.080000
    819    820     1   0.10969 276646.080000
    819    821     1   0.10969 276646.080000
    823    824     1   0.10969 276646.080000
    823    825     1   0.10969 276646.080000
    826    827     1   0.10969 276646.080000
    826    828     1   0.10969 276646.080000
    829    830     1   0.10969 276646.080000
    829    831     1   0.10969 276646.080000
    832    833     1   0.10969 276646.080000
    832    834     1   0.10969 276646.080000
    839    840     1   0.10129 337397.760000
    841    842     1   0.10969 276646.080000
    841    843     1   0.10969 276646.080000
    844    845     1   0.10969 276646.080000
    844    846     1   0.10969 276646.080000
    848    849     1   0.10969 276646.080000
    848    850     1   0.10969 276646.080000
    851    852     1   0.10969 276646.080000
    851    853     1   0.10969 276646.080000
    854    855     1   0.10969 276646.080000
    854    856     1   0.10969 276646.080000
    857    858     1   0.10969 276646.080000
    857    859     1   0.10969 276646.080000
    864    865     1   0.10129 337397.760000
    866    867     1   0.10969 276646.080000
    866    868     1   0.10969 276646.080000
    869    870     1   0.10969 276646.080000
    869    871     1   0.10969 276646.080000
    873    874     1   0.10969 276646.080000
    873    875     1   0.10969 276646.080000
    876    877     1   0.10969 276646.080000
    876    878     1   0.10969 276646.080000
    879    880     1   0.10969 276646.080000
    879    881     1   0.10969 276646.080000
    882    883     1   0.10969 276646.080000
    882    884     1   0.10969 276646.080000
    889    890     1   0.10129 337397.760000
    891    892     1   0.10969 276646.080000
    891    893     1   0.10969 276646.080000
    894    895     1   0.10969 276646.080000
    894    896     1   0.10969 276646.080000
    898    899     1   0.10969 276646.080000
    898    900     1   0.10969 276646.080000
    901    902     1   0.10969 276646.080000
    901    903     1   0.10969 276646.080000
    904    905     1   0.10969 276646.080000
    904    906     1   0.10969 276646.080000
    907    908     1   0.10969 276646.080000
    907    909     1   0.10969 276646.080000
    914    915     1   0.10129 337397.760000
    916    917     1   0.10969 276646.080000
    916    918     1   0.10969 276646.080000
    919    920     1   0.10969 276646.080000
    919    921     1   0.10969 276646.080000
    923    924     1   0.10969 276646.080000
    923    925     1   0.10969 276646.080000
    926    927     1   0.10969 276646.080000
    926    928     1   0.10969 276646.080000
    929    930     1   0.10969 276646.080000
    929    931     1   0.10969 276646.080000
    932    933     1   0.10969 276646.080000
    932    934     1   0.10969 276646.080000
    939    940     1   0.10129 337397.760000
    941    942     1   0.10969 276646.080000
    941    943     1   0.10969 276646.080000
    944    945     1   0.10969 276646.080000
    944    946     1   0.10969 276646.080000
    948    949     1   0.10969 276646.080000
    948    950     1   0.10969 276646.080000
    951    952     1   0.10969 276646.080000
    951    953     1   0.10969 276646.080000
    954    955     1   0.10969 276646.080000
    954    956     1   0.10969 276646.080000
    957    958     1   0.10969 276646.080000
    957    959     1   0.10969 276646.080000
    964    965     1   0.10129 337397.760000
    966    967     1   0.10969 276646.080000
    966    968     1   0.10969 276646.080000
    969    970     1   0.10969 276646.080000
    969    971     1   0.10969 276646.080000
    973    974     1   0.10969 276646.080000
    973    975     1   0.10969 276646.080000
    976    977     1   0.10969 276646.080000
    976    978     1   0.10969 276646.080000
    979    980     1   0.10969 276646.080000
    979    981     1   0.10969 276646.080000
    982    983     1   0.10969 276646.080000
    982    984     1   0.10969 276646.080000
    989    990     1   0.10129 337397.760000
    991    992     1   0.10969 276646.080000
    991    993     1   0.10969 276646.080000
    994    995     1   0.10969 276646.080000
    994    996     1   0.10969 276646.080000
    998    999     1   0.10969 276646.080000
    998   1000     1   0.10969 276646.080000
   1001   1002     1   0.10969 276646.080000
   1001   1003     1   0.10969 276646.080000
   1004   1005     1   0.10969 276646.080000
   1004   1006     1   0.10969 276646.080000
   1007   1008     1   0.10969 276646.080000
   1007   1009     1   0.10969 276646.080000
   1014   1015     1   0.10129 337397.760000
   1016   1017     1   0.10969 276646.080000
   1016   1018     1   0.10969 276646.080000
   1019   1020     1   0.10969 276646.080000
   1019   1021     1   0.10969 276646.080000
   1023   1024     1   0.10969 276646.080000
   1023   1025     1   0.10969 276646.080000
   1026   1027     1   0.10969 276646.080000
   1026   1028     1   0.10969 276646.080000
   1029   1030     1   0.10969 276646.080000
   1029   1031     1   0.10969 276646.080000
   1032   1033     1   0.10969 276646.080000
   1032   1034     1   0.10969 276646.080000
   1039   1040     1   0.10129 337397.760000
   1041   1042     1   0.10969 276646.080000
   1041   1043     1   0.10969 276646.080000
   1044   1045     1   0.10969 276646.080000
   1044   1046     1   0.10969 276646.080000
   1048   1049     1   0.10969 276646.080000
   1048   1050     1   0.10969 276646.080000
   1051   1052     1   0.10969 276646.080000
   1051   1053     1   0.10969 276646.080000
   1054   1055     1   0.10969 276646.080000
   1054   1056     1   0.10969 276646.080000
   1057   1058     1   0.10969 276646.080000
   1057   1059     1   0.10969 276646.080000
   1064   1065     1   0.10129 337397.760000
   1066   1067     1   0.10969 276646.080000
   1066   1068     1   0.10969 276646.080000
   1069   1070     1   0.10969 276646.080000
   1069   1071     1   0.10969 276646.080000
   1073   1074     1   0.10969 276646.080000
   1073   1075     1   0.10969 276646.080000
   1076   1077     1   0.10969 276646.080000
   1076   1078     1   0.10969 276646.080000
   1079   1080     1   0.10969 276646.080000
   1079   1081     1   0.10969 276646.080000
   1082   1083     1   0.10969 276646.080000
   1082   1084     1   0.10969 276646.080000
   1089   1090     1   0.10129 337397.760000
   1091   1092     1   0.10969 276646.080000
   1091   1093     1   0.10969 276646.080000
   1094   1095     1   0.10969 276646.080000
   1094   1096     1   0.10969 276646.080000
   1098   1099     1   0.10969 276646.080000
   1098   1100     1   0.10969 276646.080000
   1101   1102     1   0.10969 276646.080000
   1101   1103     1   0.10969 276646.080000
   1104   1105     1   0.10969 276646.080000
   1104   1106     1   0.10969 276646.080000
   1107   1108     1   0.10969 276646.080000
   1107   1109     1   0.10969 276646.080000
   1114   1115     1   0.10129 337397.760000
   1116   1117     1   0.10969 276646.080000
   1116   1118     1   0.10969 276646.080000
   1119   1120     1   0.10969 276646.080000
   1119   1121     1   0.10969 276646.080000
   1123   1124     1   0.10969 276646.080000
   1123   1125     1   0.10969 276646.080000
   1126   1127     1   0.10969 276646.080000
   1126   1128     1   0.10969 276646.080000
   1129   1130     1   0.10969 276646.080000
   1129   1131     1   0.10969 276646.080000
   1132   1133     1   0.10969 276646.080000
   1132   1134     1   0.10969 276646.080000
   1139   1140     1   0.10129 337397.760000
   1141   1142     1   0.10969 276646.080000
   1141   1143     1   0.10969 276646.080000
   1144   1145     1   0.10969 276646.080000
   1144   1146     1   0.10969 276646.080000
   1148   1149     1   0.10969 276646.080000
   1148   1150     1   0.10969 276646.080000
   1151   1152     1   0.10969 276646.080000
   1151   1153     1   0.10969 276646.080000
   1154   1155     1   0.10969 276646.080000
   1154   1156     1   0.10969 276646.080000
   1157   1158     1   0.10969 276646.080000
   1157   1159     1   0.10969 276646.080000
   1164   1165     1   0.10129 337397.760000
   1166   1167     1   0.10969 276646.080000
   1166   1168     1   0.10969 276646.080000
   1169   1170     1   0.10969 276646.080000
   1169   1171     1   0.10969 276646.080000
   1173   1174     1   0.10969 276646.080000
   1173   1175     1   0.10969 276646.080000
   1176   1177     1   0.10969 276646.080000
   1176   1178     1   0.10969 276646.080000
   1179   1180     1   0.10969 276646.080000
   1179   1181     1   0.10969 276646.080000
   1182   1183     1   0.10969 276646.080000
   1182   1184     1   0.10969 276646.080000
   1189   1190     1   0.10129 337397.760000
   1191   1192     1   0.10969 276646.080000
   1191   1193     1   0.10969 276646.080000
   1194   1195     1   0.10969 276646.080000
   1194   1196     1   0.10969 276646.080000
   1198   1199     1   0.10969 276646.080000
   1198   1200     1   0.10969 276646.080000
   1201   1202     1   0.10969 276646.080000
   1201   1203     1   0.10969 276646.080000
   1204   1205     1   0.10969 276646.080000
   1204   1206     1   0.10969 276646.080000
   1207   1208     1   0.10969 276646.080000
   1207   1209     1   0.10969 276646.080000
   1214   1215     1   0.10129 337397.760000
   1216   1217     1   0.10969 276646.080000
   1216   1218     1   0.10969 276646.080000
   1219   1220     1   0.10969 276646.080000
   1219   1221     1   0.10969 276646.080000
   1223   1224     1   0.10969 276646.080000
   1223   1225     1   0.10969 276646.080000
   1226   1227     1   0.10969 276646.080000
   1226   1228     1   0.10969 276646.080000
   1229   1230     1   0.10969 276646.080000
   1229   1231     1   0.10969 276646.080000
   1232   1233     1   0.10969 276646.080000
   1232   1234     1   0.10969 276646.080000
   1239   1240     1   0.10129 337397.760000
   1241   1242     1   0.10969 276646.080000
   1241   1243     1   0.10969 276646.080000
   1244   1245     1   0.10969 276646.080000
   1244   1246     1   0.10969 276646.080000
   1248   1249     1   0.10969 276646.080000
   1248   1250     1   0.10969 276646.080000
   1251   1252     1   0.10969 276646.080000
   1251   1253     1   0.10969 276646.080000
   1254   1255     1   0.10969 276646.080000
   1254   1256     1   0.10969 276646.080000
   1257   1258     1   0.10969 276646.080000
   1257   1259     1   0.10969 276646.080000
   1264   1265     1   0.10129 337397.760000
   1266   1267     1   0.10969 276646.080000
   1266   1268     1   0.10969 276646.080000
   1269   1270     1   0.10969 276646.080000
   1269   1271     1   0.10969 276646.080000
   1273   1274     1   0.10969 276646.080000
   1273   1275     1   0.10969 276646.080000
   1276   1277     1   0.10969 276646.080000
   1276   1278     1   0.10969 276646.080000
   1279   1280     1   0.10969 276646.080000
   1279   1281     1   0.10969 276646.080000
   1282   1283     1   0.10969 276646.080000
   1282   1284     1   0.10969 276646.080000
   1289   1290     1   0.10129 337397.760000
   1291   1292     1   0.10969 276646.080000
   1291   1293     1   0.10969 276646.080000
   1294   1295     1   0.10969 276646.080000
   1294   1296     1   0.10969 276646.080000
   1298   1299     1   0.10969 276646.080000
   1298   1300     1   0.10969 276646.080000
   1301   1302     1   0.10969 276646.080000
   1301   1303     1   0.10969 276646.080000
   1304   1305     1   0.10969 276646.080000
   1304   1306     1   0.10969 276646.080000
   1307   1308     1   0.10969 276646.080000
   1307   1309     1   0.10969 276646.080000
   1314   1315     1   0.10129 337397.760000
   1316   1317     1   0.10969 276646.080000
   1316   1318     1   0.10969 276646.080000
   1319   1320     1   0.10969 276646.080000
   1319   1321     1   0.10969 276646.080000
   1323   1324     1   0.10969 276646.080000
   1323   1325     1   0.10969 276646.080000
   1326   1327     1   0.10969 276646.080000
   1326   1328     1   0.10969 276646.080000
   1329   1330     1   0.10969 276646.080000
   1329   1331     1   0.10969 276646.080000
   1332   1333     1   0.10969 276646.080000
   1332   1334     1   0.10969 276646.080000
   1339   1340     1   0.10129 337397.760000
   1341   1342     1   0.10969 276646.080000
   1341   1343     1   0.10969 276646.080000
   1344   1345     1   0.10969 276646.080000
   1344   1346     1   0.10969 276646.080000
   1348   1349     1   0.10969 276646.080000
   1348   1350     1   0.10969 276646.080000
   1351   1352     1   0.10969 276646.080000
   1351   1353     1   0.10969 276646.080000
   1354   1355     1   0.10969 276646.080000
   1354   1356     1   0.10969 276646.080000
   1357   1358     1   0.10969 276646.080000
   1357   1359     1   0.10969 276646.080000
   1364   1365     1   0.10129 337397.760000
   1366   1367     1   0.10969 276646.080000
   1366   1368     1   0.10969 276646.080000
   1369   1370     1   0.10969 276646.080000
   1369   1371     1   0.10969 276646.080000
   1373   1374     1   0.10969 276646.080000
   1373   1375     1   0.10969 276646.080000
   1376   1377     1   0.10969 276646.080000
   1376   1378     1   0.10969 276646.080000
   1379   1380     1   0.10969 276646.080000
   1379   1381     1   0.10969 276646.080000
   1382   1383     1   0.10969 276646.080000
   1382   1384     1   0.10969 276646.080000
   1389   1390     1   0.10129 337397.760000
   1391   1392     1   0.10969 276646.080000
   1391   1393     1   0.10969 276646.080000
   1394   1395     1   0.10969 276646.080000
   1394   1396     1   0.10969 276646.080000
   1398   1399     1   0.10969 276646.080000
   1398   1400     1   0.10969 276646.080000
   1401   1402     1   0.10969 276646.080000
   1401   1403     1   0.10969 276646.080000
   1404   1405     1   0.10969 276646.080000
   1404   1406     1   0.10969 276646.080000
   1407   1408     1   0.10969 276646.080000
   1407   1409     1   0.10969 276646.080000
   1414   1415     1   0.10129 337397.760000
   1416   1417     1   0.10969 276646.080000
   1416   1418     1   0.10969 276646.080000
   1419   1420     1   0.10969 276646.080000
   1419   1421     1   0.10969 276646.080000
   1423   1424     1   0.10969 276646.080000
   1423   1425     1   0.10969 276646.080000
   1426   1427     1   0.10969 276646.080000
   1426   1428     1   0.10969 276646.080000
   1429   1430     1   0.10969 276646.080000
   1429   1431     1   0.10969 276646.080000
   1432   1433     1   0.10969 276646.080000
   1432   1434     1   0.10969 276646.080000
   1439   1440     1   0.10129 337397.760000
   1441   1442     1   0.10969 276646.080000
   1441   1443     1   0.10969 276646.080000
   1444   1445     1   0.10969 276646.080000
   1444   1446     1   0.10969 276646.080000
   1448   1449     1   0.10969 276646.080000
   1448   1450     1   0.10969 276646.080000
   1451   1452     1   0.10969 276646.080000
   1451   1453     1   0.10969 276646.080000
   1454   1455     1   0.10969 276646.080000
   1454   1456     1   0.10969 276646.080000
   1457   1458     1   0.10969 276646.080000
   1457   1459     1   0.10969 276646.080000
   1464   1465     1   0.10129 337397.760000
   1466   1467     1   0.10969 276646.080000
   1466   1468     1   0.10969 276646.080000
   1469   1470     1   0.10969 276646.080000
   1469   1471     1   0.10969 276646.080000
   1473   1474     1   0.10969 276646.080000
   1473   1475     1   0.10969 276646.080000
   1476   1477     1   0.10969 276646.080000
   1476   1478     1   0.10969 276646.080000
   1479   1480     1   0.10969 276646.080000
   1479   1481     1   0.10969 276646.080000
   1482   1483     1   0.10969 276646.080000
   1482   1484     1   0.10969 276646.080000
   1489   1490     1   0.10129 337397.760000
   1491   1492     1   0.10969 276646.080000
   1491   1493     1   0.10969 276646.080000
   1494   1495     1   0.10969 276646.080000
   1494   1496     1   0.10969 276646.080000
   1498   1499     1   0.10969 276646.080000
   1498   1500     1   0.10969 276646.080000
   1501   1502     1   0.10969 276646.080000
   1501   1503     1   0.10969 276646.080000
   1504   1505     1   0.10969 276646.080000
   1504   1506     1   0.10969 276646.080000
   1507   1508     1   0.10969 276646.080000
   1507   1509     1   0.10969 276646.080000
   1514   1515     1   0.10129 337397.760000
   1516   1517     1   0.10969 276646.080000
   1516   1518     1   0.10969 276646.080000
   1519   1520     1   0.10969 276646.080000
   1519   1521     1   0.10969 276646.080000
   1523   1524     1   0.10969 276646.080000
   1523   1525     1   0.10969 276646.080000
   1526   1527     1   0.10969 276646.080000
   1526   1528     1   0.10969 276646.080000
   1529   1530     1   0.10969 276646.080000
   1529   1531     1   0.10969 276646.080000
   1532   1533     1   0.10969 276646.080000
   1532   1534     1   0.10969 276646.080000
   1539   1540     1   0.10129 337397.760000
   1541   1542     1   0.10969 276646.080000
   1541   1543     1   0.10969 276646.080000
   1544   1545     1   0.10969 276646.080000
   1544   1546     1   0.10969 276646.080000
   1548   1549     1   0.10969 276646.080000
   1548   1550     1   0.10969 276646.080000
   1551   1552     1   0.10969 276646.080000
   1551   1553     1   0.10969 276646.080000
   1554   1555     1   0.10969 276646.080000
   1554   1556     1   0.10969 276646.080000
   1557   1558     1   0.10969 276646.080000
   1557   1559     1   0.10969 276646.080000
   1564   1565     1   0.10129 337397.760000
   1566   1567     1   0.10969 276646.080000
   1566   1568     1   0.10969 276646.080000
   1569   1570     1   0.10969 276646.080000
   1569   1571     1   0.10969 276646.080000
   1573   1574     1   0.10969 276646.080000
   1573   1575     1   0.10969 276646.080000
   1576   1577     1   0.10969 276646.080000
   1576   1578     1   0.10969 276646.080000
   1579   1580     1   0.10969 276646.080000
   1579   1581     1   0.10969 276646.080000
   1582   1583     1   0.10969 276646.080000
   1582   1584     1   0.10969 276646.080000
   1589   1590     1   0.10129 337397.760000
   1591   1592     1   0.10969 276646.080000
   1591   1593     1   0.10969 276646.080000
   1594   1595     1   0.10969 276646.080000
   1594   1596     1   0.10969 276646.080000
   1598   1599     1   0.10969 276646.080000
   1598   1600     1   0.10969 276646.080000
   1601   1602     1   0.10969 276646.080000
   1601   1603     1   0.10969 276646.080000
   1604   1605     1   0.10969 276646.080000
   1604   1606     1   0.10969 276646.080000
   1607   1608     1   0.10969 276646.080000
   1607   1609     1   0.10969 276646.080000
   1614   1615     1   0.10129 337397.760000
   1616   1617     1   0.10969 276646.080000
   1616   1618     1   0.10969 276646.080000
   1619   1620     1   0.10969 276646.080000
   1619   1621     1   0.10969 276646.080000
   1623   1624     1   0.10969 276646.080000
   1623   1625     1   0.10969 276646.080000
   1626   1627     1   0.10969 276646.080000
   1626   1628     1   0.10969 276646.080000
   1629   1630     1   0.10969 276646.080000
   1629   1631     1   0.10969 276646.080000
   1632   1633     1   0.10969 276646.080000
   1632   1634     1   0.10969 276646.080000
   1639   1640     1   0.10129 337397.760000
   1641   1642     1   0.10969 276646.080000
   1641   1643     1   0.10969 276646.080000
   1644   1645     1   0.10969 276646.080000
   1644   1646     1   0.10969 276646.080000
   1648   1649     1   0.10969 276646.080000
   1648   1650     1   0.10969 276646.080000
   1651   1652     1   0.10969 276646.080000
   1651   1653     1   0.10969 276646.080000
   1654   1655     1   0.10969 276646.080000
   1654   1656     1   0.10969 276646.080000
   1657   1658     1   0.10969 276646.080000
   1657   1659     1   0.10969 276646.080000
   1664   1665     1   0.10129 337397.760000
   1666   1667     1   0.10969 276646.080000
   1666   1668     1   0.10969 276646.080000
   1669   1670     1   0.10969 276646.080000
   1669   1671     1   0.10969 276646.080000
   1673   1674     1   0.10969 276646.080000
   1673   1675     1   0.10969 276646.080000
   1676   1677     1   0.10969 276646.080000
   1676   1678     1   0.10969 276646.080000
   1679   1680     1   0.10969 276646.080000
   1679   1681     1   0.10969 276646.080000
   1682   1683     1   0.10969 276646.080000
   1682   1684     1   0.10969 276646.080000
   1689   1690     1   0.10129 337397.760000
   1691   1692     1   0.10969 276646.080000
   1691   1693     1   0.10969 276646.080000
   1694   1695     1   0.10969 276646.080000
   1694   1696     1   0.10969 276646.080000
   1698   1699     1   0.10969 276646.080000
   1698   1700     1   0.10969 276646.080000
   1701   1702     1   0.10969 276646.080000
   1701   1703     1   0.10969 276646.080000
   1704   1705     1   0.10969 276646.080000
   1704   1706     1   0.10969 276646.080000
   1707   1708     1   0.10969 276646.080000
   1707   1709     1   0.10969 276646.080000
   1714   1715     1   0.10129 337397.760000
   1716   1717     1   0.10969 276646.080000
   1716   1718     1   0.10969 276646.080000
   1719   1720     1   0.10969 276646.080000
   1719   1721     1   0.10969 276646.080000
   1723   1724     1   0.10969 276646.080000
   1723   1725     1   0.10969 276646.080000
   1726   1727     1   0.10969 276646.080000
   1726   1728     1   0.10969 276646.080000
   1729   1730     1   0.10969 276646.080000
   1729   1731     1   0.10969 276646.080000
   1732   1733     1   0.10969 276646.080000
   1732   1734     1   0.10969 276646.080000
   1739   1740     1   0.10129 337397.760000
   1741   1742     1   0.10969 276646.080000
   1741   1743     1   0.10969 276646.080000
   1744   1745     1   0.10969 276646.080000
   1744   1746     1   0.10969 276646.080000
   1748   1749     1   0.10969 276646.080000
   1748   1750     1   0.10969 276646.080000
   1751   1752     1   0.10969 276646.080000
   1751   1753     1   0.10969 276646.080000
   1754   1755     1   0.10969 276646.080000
   1754   1756     1   0.10969 276646.080000
   1757   1758     1   0.10969 276646.080000
   1757   1759     1   0.10969 276646.080000
   1764   1765     1   0.10129 337397.760000
   1766   1767     1   0.10969 276646.080000
   1766   1768     1   0.10969 276646.080000
   1769   1770     1   0.10969 276646.080000
   1769   1771     1   0.10969 276646.080000
   1773   1774     1   0.10969 276646.080000
   1773   1775     1   0.10969 276646.080000
   1776   1777     1   0.10969 276646.080000
   1776   1778     1   0.10969 276646.080000
   1779   1780     1   0.10969 276646.080000
   1779   1781     1   0.10969 276646.080000
   1782   1783     1   0.10969 276646.080000
   1782   1784     1   0.10969 276646.080000
   1789   1790     1   0.10129 337397.760000
   1791   1792     1   0.10969 276646.080000
   1791   1793     1   0.10969 276646.080000
   1794   1795     1   0.10969 276646.080000
   1794   1796     1   0.10969 276646.080000
   1798   1799     1   0.10969 276646.080000
   1798   1800     1   0.10969 276646.080000
   1801   1802     1   0.10969 276646.080000
   1801   1803     1   0.10969 276646.080000
   1804   1805     1   0.10969 276646.080000
   1804   1806     1   0.10969 276646.080000
   1807   1808     1   0.10969 276646.080000
   1807   1809     1   0.10969 276646.080000
   1814   1815     1   0.10129 337397.760000
   1816   1817     1   0.10969 276646.080000
   1816   1818     1   0.10969 276646.080000
   1819   1820     1   0.10969 276646.080000
   1819   1821     1   0.10969 276646.080000
   1823   1824     1   0.10969 276646.080000
   1823   1825     1   0.10969 276646.080000
   1826   1827     1   0.10969 276646.080000
   1826   1828     1   0.10969 276646.080000
   1829   1830     1   0.10969 276646.080000
   1829   1831     1   0.10969 276646.080000
   1832   1833     1   0.10969 276646.080000
   1832   1834     1   0.10969 276646.080000
   1839   1840     1   0.10129 337397.760000
   1841   1842     1   0.10969 276646.080000
   1841   1843     1   0.10969 276646.080000
   1844   1845     1   0.10969 276646.080000
   1844   1846     1   0.10969 276646.080000
   1848   1849     1   0.10969 276646.080000
   1848   1850     1   0.10969 276646.080000
   1851   1852     1   0.10969 276646.080000
   1851   1853     1   0.10969 276646.080000
   1854   1855     1   0.10969 276646.080000
   1854   1856     1   0.10969 276646.080000
   1857   1858     1   0.10969 276646.080000
   1857   1859     1   0.10969 276646.080000
   1864   1865     1   0.10129 337397.760000
   1866   1867     1   0.10969 276646.080000
   1866   1868     1   0.10969 276646.080000
   1869   1870     1   0.10969 276646.080000
   1869   1871     1   0.10969 276646.080000
   1873   1874     1   0.10969 276646.080000
   1873   1875     1   0.10969 276646.080000
   1876   1877     1   0.10969 276646.080000
   1876   1878     1   0.10969 276646.080000
   1879   1880     1   0.10969 276646.080000
   1879   1881     1   0.10969 276646.080000
   1882   1883     1   0.10969 276646.080000
   1882   1884     1   0.10969 276646.080000
   1889   1890     1   0.10129 337397.760000
   1891   1892     1   0.10969 276646.080000
   1891   1893     1   0.10969 276646.080000
   1894   1895     1   0.10969 276646.080000
   1894   1896     1   0.10969 276646.080000
   1898   1899     1   0.10969 276646.080000
   1898   1900     1   0.10969 276646.080000
   1901   1902     1   0.10969 276646.080000
   1901   1903     1   0.10969 276646.080000
   1904   1905     1   0.10969 276646.080000
   1904   1906     1   0.10969 276646.080000
   1907   1908     1   0.10969 276646.080000
   1907   1909     1   0.10969 276646.080000
   1914   1915     1   0.10129 337397.760000
   1916   1917     1   0.10969 276646.080000
   1916   1918     1   0.10969 276646.080000
   1919   1920     1   0.10969 276646.080000
   1919   1921     1   0.10969 276646.080000
   1923   1924     1   0.10969 276646.080000
   1923   1925     1   0.10969 276646.080000
   1926   1927     1   0.10969 276646.080000
   1926   1928     1   0.10969 276646.080000
   1929   1930     1   0.10969 276646.080000
   1929   1931     1   0.10969 276646.080000
   1932   1933     1   0.10969 276646.080000
   1932   1934     1   0.10969 276646.080000
   1939   1940     1   0.10129 337397.760000
   1941   1942     1   0.10969 276646.080000
   1941   1943     1   0.10969 276646.080000
   1944   1945     1   0.10969 276646.080000
   1944   1946     1   0.10969 276646.080000
   1948   1949     1   0.10969 276646.080000
   1948   1950     1   0.10969 276646.080000
   1951   1952     1   0.10969 276646.080000
   1951   1953     1   0.10969 276646.080000
   1954   1955     1   0.10969 276646.080000
   1954   1956     1   0.10969 276646.080000
   1957   1958     1   0.10969 276646.080000
   1957   1959     1   0.10969 276646.080000
   1964   1965     1   0.10129 337397.760000
   1966   1967     1   0.10969 276646.080000
   1966   1968     1   0.10969 276646.080000
   1969   1970     1   0.10969 276646.080000
   1969   1971     1   0.10969 276646.080000
   1973   1974     1   0.10969 276646.080000
   1973   1975     1   0.10969 276646.080000
   1976   1977     1   0.10969 276646.080000
   1976   1978     1   0.10969 276646.080000
   1979   1980     1   0.10969 276646.080000
   1979   1981     1   0.10969 276646.080000
   1982   1983     1   0.10969 276646.080000
   1982   1984     1   0.10969 276646.080000
   1989   1990     1   0.10129 337397.760000
   1991   1992     1   0.10969 276646.080000
   1991   1993     1   0.10969 276646.080000
   1994   1995     1   0.10969 276646.080000
   1994   1996     1   0.10969 276646.080000
   1998   1999     1   0.10969 276646.080000
   1998   2000     1   0.10969 276646.080000
   2001   2002     1   0.10969 276646.080000
   2001   2003     1   0.10969 276646.080000
   2004   2005     1   0.10969 276646.080000
   2004   2006     1   0.10969 276646.080000
   2007   2008     1   0.10969 276646.080000
   2007   2009     1   0.10969 276646.080000
   2014   2015     1   0.10129 337397.760000
   2016   2017     1   0.10969 276646.080000
   2016   2018     1   0.10969 276646.080000
   2019   2020     1   0.10969 276646.080000
   2019   2021     1   0.10969 276646.080000
   2023   2024     1   0.10969 276646.080000
   2023   2025     1   0.10969 276646.080000
   2026   2027     1   0.10969 276646.080000
   2026   2028     1   0.10969 276646.080000
   2029   2030     1   0.10969 276646.080000
   2029   2031     1   0.10969 276646.080000
   2032   2033     1   0.10969 276646.080000
   2032   2034     1   0.10969 276646.080000
   2039   2040     1   0.10129 337397.760000
   2041   2042     1   0.10969 276646.080000
   2041   2043     1   0.10969 276646.080000
   2044   2045     1   0.10969 276646.080000
   2044   2046     1   0.10969 276646.080000
   2048   2049     1   0.10969 276646.080000
   2048   2050     1   0.10969 276646.080000
   2051   2052     1   0.10969 276646.080000
   2051   2053     1   0.10969 276646.080000
   2054   2055     1   0.10969 276646.080000
   2054   2056     1   0.10969 276646.080000
   2057   2058     1   0.10969 276646.080000
   2057   2059     1   0.10969 276646.080000
   2064   2065     1   0.10129 337397.760000
   2066   2067     1   0.10969 276646.080000
   2066   2068     1   0.10969 276646.080000
   2069   2070     1   0.10969 276646.080000
   2069   2071     1   0.10969 276646.080000
   2073   2074     1   0.10969 276646.080000
   2073   2075     1   0.10969 276646.080000
   2076   2077     1   0.10969 276646.080000
   2076   2078     1   0.10969 276646.080000
   2079   2080     1   0.10969 276646.080000
   2079   2081     1   0.10969 276646.080000
   2082   2083     1   0.10969 276646.080000
   2082   2084     1   0.10969 276646.080000
   2089   2090     1   0.10129 337397.760000
   2091   2092     1   0.10969 276646.080000
   2091   2093     1   0.10969 276646.080000
   2094   2095     1   0.10969 276646.080000
   2094   2096     1   0.10969 276646.080000
   2098   2099     1   0.10969 276646.080000
   2098   2100     1   0.10969 276646.080000
   2101   2102     1   0.10969 276646.080000
   2101   2103     1   0.10969 276646.080000
   2104   2105     1   0.10969 276646.080000
   2104   2106     1   0.10969 276646.080000
   2107   2108     1   0.10969 276646.080000
   2107   2109     1   0.10969 276646.080000
   2114   2115     1   0.10129 337397.760000
   2116   2117     1   0.10969 276646.080000
   2116   2118     1   0.10969 276646.080000
   2119   2120     1   0.10969 276646.080000
   2119   2121     1   0.10969 276646.080000
   2123   2124     1   0.10969 276646.080000
   2123   2125     1   0.10969 276646.080000
   2126   2127     1   0.10969 276646.080000
   2126   2128     1   0.10969 276646.080000
   2129   2130     1   0.10969 276646.080000
   2129   2131     1   0.10969 276646.080000
   2132   2133     1   0.10969 276646.080000
   2132   2134     1   0.10969 276646.080000
   2139   2140     1   0.10129 337397.760000
   2141   2142     1   0.10969 276646.080000
   2141   2143     1   0.10969 276646.080000
   2144   2145     1   0.10969 276646.080000
   2144   2146     1   0.10969 276646.080000
   2148   2149     1   0.10969 276646.080000
   2148   2150     1   0.10969 276646.080000
   2151   2152     1   0.10969 276646.080000
   2151   2153     1   0.10969 276646.080000
   2154   2155     1   0.10969 276646.080000
   2154   2156     1   0.10969 276646.080000
   2157   2158     1   0.10969 276646.080000
   2157   2159     1   0.10969 276646.080000
   2164   2165     1   0.10129 337397.760000
   2166   2167     1   0.10969 276646.080000
   2166   2168     1   0.10969 276646.080000
   2169   2170     1   0.10969 276646.080000
   2169   2171     1   0.10969 276646.080000
   2173   2174     1   0.10969 276646.080000
   2173   2175     1   0.10969 276646.080000
   2176   2177     1   0.10969 276646.080000
   2176   2178     1   0.10969 276646.080000
   2179   2180     1   0.10969 276646.080000
   2179   2181     1   0.10969 276646.080000
   2182   2183     1   0.10969 276646.080000
   2182   2184     1   0.10969 276646.080000
   2189   2190     1   0.10129 337397.760000
   2191   2192     1   0.10969 276646.080000
   2191   2193     1   0.10969 276646.080000
   2194   2195     1   0.10969 276646.080000
   2194   2196     1   0.10969 276646.080000
   2198   2199     1   0.10969 276646.080000
   2198   2200     1   0.10969 276646.080000
   2201   2202     1   0.10969 276646.080000
   2201   2203     1   0.10969 276646.080000
   2204   2205     1   0.10969 276646.080000
   2204   2206     1   0.10969 276646.080000
   2207   2208     1   0.10969 276646.080000
   2207   2209     1   0.10969 276646.080000
   2214   2215     1   0.10129 337397.760000
   2216   2217     1   0.10969 276646.080000
   2216   2218     1   0.10969 276646.080000
   2219   2220     1   0.10969 276646.080000
   2219   2221     1   0.10969 276646.080000
   2223   2224     1   0.10969 276646.080000
   2223   2225     1   0.10969 276646.080000
   2226   2227     1   0.10969 276646.080000
   2226   2228     1   0.10969 276646.080000
   2229   2230     1   0.10969 276646.080000
   2229   2231     1   0.10969 276646.080000
   2232   2233     1   0.10969 276646.080000
   2232   2234     1   0.10969 276646.080000
   2239   2240     1   0.10129 337397.760000
   2241   2242     1   0.10969 276646.080000
   2241   2243     1   0.10969 276646.080000
   2244   2245     1   0.10969 276646.080000
   2244   2246     1   0.10969 276646.080000
   2248   2249     1   0.10969 276646.080000
   2248   2250     1   0.10969 276646.080000
   2251   2252     1   0.10969 276646.080000
   2251   2253     1   0.10969 276646.080000
   2254   2255     1   0.10969 276646.080000
   2254   2256     1   0.10969 276646.080000
   2257   2258     1   0.10969 276646.080000
   2257   2259     1   0.10969 276646.080000
   2264   2265     1   0.10129 337397.760000
   2266   2267     1   0.10969 276646.080000
   2266   2268     1   0.10969 276646.080000
   2269   2270     1   0.10969 276646.080000
   2269   2271     1   0.10969 276646.080000
   2273   2274     1   0.10969 276646.080000
   2273   2275     1   0.10969 276646.080000
   2276   2277     1   0.10969 276646.080000
   2276   2278     1   0.10969 276646.080000
   2279   2280     1   0.10969 276646.080000
   2279   2281     1   0.10969 276646.080000
   2282   2283     1   0.10969 276646.080000
   2282   2284     1   0.10969 276646.080000
   2289   2290     1   0.10129 337397.760000
   2291   2292     1   0.10969 276646.080000
   2291   2293     1   0.10969 276646.080000
   2294   2295     1   0.10969 276646.080000
   2294   2296     1   0.10969 276646.080000
   2298   2299     1   0.10969 276646.080000
   2298   2300     1   0.10969 276646.080000
   2301   2302     1   0.10969 276646.080000
   2301   2303     1   0.10969 276646.080000
   2304   2305     1   0.10969 276646.080000
   2304   2306     1   0.10969 276646.080000
   2307   2308     1   0.10969 276646.080000
   2307   2309     1   0.10969 276646.080000
   2314   2315     1   0.10129 337397.760000
   2316   2317     1   0.10969 276646.080000
   2316   2318     1   0.10969 276646.080000
   2319   2320     1   0.10969 276646.080000
   2319   2321     1   0.10969 276646.080000
   2323   2324     1   0.10969 276646.080000
   2323   2325     1   0.10969 276646.080000
   2326   2327     1   0.10969 276646.080000
   2326   2328     1   0.10969 276646.080000
   2329   2330     1   0.10969 276646.080000
   2329   2331     1   0.10969 276646.080000
   2332   2333     1   0.10969 276646.080000
   2332   2334     1   0.10969 276646.080000
   2339   2340     1   0.10129 337397.760000
   2341   2342     1   0.10969 276646.080000
   2341   2343     1   0.10969 276646.080000
   2344   2345     1   0.10969 276646.080000
   2344   2346     1   0.10969 276646.080000
   2348   2349     1   0.10969 276646.080000
   2348   2350     1   0.10969 276646.080000
   2351   2352     1   0.10969 276646.080000
   2351   2353     1   0.10969 276646.080000
   2354   2355     1   0.10969 276646.080000
   2354   2356     1   0.10969 276646.080000
   2357   2358     1   0.10969 276646.080000
   2357   2359     1   0.10969 276646.080000
   2364   2365     1   0.10129 337397.760000
   2366   2367     1   0.10969 276646.080000
   2366   2368     1   0.10969 276646.080000
   2369   2370     1   0.10969 276646.080000
   2369   2371     1   0.10969 276646.080000
   2373   2374     1   0.10969 276646.080000
   2373   2375     1   0.10969 276646.080000
   2376   2377     1   0.10969 276646.080000
   2376   2378     1   0.10969 276646.080000
   2379   2380     1   0.10969 276646.080000
   2379   2381     1   0.10969 276646.080000
   2382   2383     1   0.10969 276646.080000
   2382   2384     1   0.10969 276646.080000
   2389   2390     1   0.10129 337397.760000
   2391   2392     1   0.10969 276646.080000
   2391   2393     1   0.10969 276646.080000
   2394   2395     1   0.10969 276646.080000
   2394   2396     1   0.10969 276646.080000
   2398   2399     1   0.10969 276646.080000
   2398   2400     1   0.10969 276646.080000
   2401   2402     1   0.10969 276646.080000
   2401   2403     1   0.10969 276646.080000
   2404   2405     1   0.10969 276646.080000
   2404   2406     1   0.10969 276646.080000
   2407   2408     1   0.10969 276646.080000
   2407   2409     1   0.10969 276646.080000
   2414   2415     1   0.10129 337397.760000
   2416   2417     1   0.10969 276646.080000
   2416   2418     1   0.10969 276646.080000
   2419   2420     1   0.10969 276646.080000
   2419   2421     1   0.10969 276646.080000
   2423   2424     1   0.10969 276646.080000
   2423   2425     1   0.10969 276646.080000
   2426   2427     1   0.10969 276646.080000
   2426   2428     1   0.10969 276646.080000
   2429   2430     1   0.10969 276646.080000
   2429   2431     1   0.10969 276646.080000
   2432   2433     1   0.10969 276646.080000
   2432   2434     1   0.10969 276646.080000
   2439   2440     1   0.10129 337397.760000
   2441   2442     1   0.10969 276646.080000
   2441   2443     1   0.10969 276646.080000
   2444   2445     1   0.10969 276646.080000
   2444   2446     1   0.10969 276646.080000
   2448   2449     1   0.10969 276646.080000
   2448   2450     1   0.10969 276646.080000
   2451   2452     1   0.10969 276646.080000
   2451   2453     1   0.10969 276646.080000
   2454   2455     1   0.10969 276646.080000
   2454   2456     1   0.10969 276646.080000
   2457   2458     1   0.10969 276646.080000
   2457   2459     1   0.10969 276646.080000
   2464   2465     1   0.10129 337397.760000
   2466   2467     1   0.10969 276646.080000
   2466   2468     1   0.10969 276646.080000
   2469   2470     1   0.10969 276646.080000
   2469   2471     1   0.10969 276646.080000
   2473   2474     1   0.10969 276646.080000
   2473   2475     1   0.10969 276646.080000
   2476   2477     1   0.10969 276646.080000
   2476   2478     1   0.10969 276646.080000
   2479   2480     1   0.10969 276646.080000
   2479   2481     1   0.10969 276646.080000
   2482   2483     1   0.10969 276646.080000
   2482   2484     1   0.10969 276646.080000
   2489   2490     1   0.10129 337397.760000
   2491   2492     1   0.10969 276646.080000
   2491   2493     1   0.10969 276646.080000
   2494   2495     1   0.10969 276646.080000
   2494   2496     1   0.10969 276646.080000
   2498   2499     1   0.10969 276646.080000
   2498   2500     1   0.10969 276646.080000
   2501   2502     1   0.10969 276646.080000
   2501   2503     1   0.10969 276646.080000
   2504   2505     1   0.10969 276646.080000
   2504   2506     1   0.10969 276646.080000
   2507   2508     1   0.10969 276646.080000
   2507   2509     1   0.10969 276646.080000
   2514   2515     1   0.10129 337397.760000
   2516   2517     1   0.10969 276646.080000
   2516   2518     1   0.10969 276646.080000
   2519   2520     1   0.10969 276646.080000
   2519   2521     1   0.10969 276646.080000
   2523   2524     1   0.10969 276646.080000
   2523   2525     1   0.10969 276646.080000
   2526   2527     1   0.10969 276646.080000
   2526   2528     1   0.10969 276646.080000
   2529   2530     1   0.10969 276646.080000
   2529   2531     1   0.10969 276646.080000
   2532   2533     1   0.10969 276646.080000
   2532   2534     1   0.10969 276646.080000
   2539   2540     1   0.10129 337397.760000
   2541   2542     1   0.10969 276646.080000
   2541   2543     1   0.10969 276646.080000
   2544   2545     1   0.10969 276646.080000
   2544   2546     1   0.10969 276646.080000
   2548   2549     1   0.10969 276646.080000
   2548   2550     1   0.10969 276646.080000
   2551   2552     1   0.10969 276646.080000
   2551   2553     1   0.10969 276646.080000
   2554   2555     1   0.10969 276646.080000
   2554   2556     1   0.10969 276646.080000
   2557   2558     1   0.10969 276646.080000
   2557   2559     1   0.10969 276646.080000
   2564   2565     1   0.10129 337397.760000
   2566   2567     1   0.10969 276646.080000
   2566   2568     1   0.10969 276646.080000
   2569   2570     1   0.10969 276646.080000
   2569   2571     1   0.10969 276646.080000
   2573   2574     1   0.10969 276646.080000
   2573   2575     1   0.10969 276646.080000
   2576   2577     1   0.10969 276646.080000
   2576   2578     1   0.10969 276646.080000
   2579   2580     1   0.10969 276646.080000
   2579   2581     1   0.10969 276646.080000
   2582   2583     1   0.10969 276646.080000
   2582   2584     1   0.10969 276646.080000
   2589   2590     1   0.10129 337397.760000
   2591   2592     1   0.10969 276646.080000
   2591   2593     1   0.10969 276646.080000
   2594   2595     1   0.10969 276646.080000
   2594   2596     1   0.10969 276646.080000
   2598   2599     1   0.10969 276646.080000
   2598   2600     1   0.10969 276646.080000
   2601   2602     1   0.10969 276646.080000
   2601   2603     1   0.10969 276646.080000
   2604   2605     1   0.10969 276646.080000
   2604   2606     1   0.10969 276646.080000
   2607   2608     1   0.10969 276646.080000
   2607   2609     1   0.10969 276646.080000
   2614   2615     1   0.10129 337397.760000
   2616   2617     1   0.10969 276646.080000
   2616   2618     1   0.10969 276646.080000
   2619   2620     1   0.10969 276646.080000
   2619   2621     1   0.10969 276646.080000
   2623   2624     1   0.10969 276646.080000
   2623   2625     1   0.10969 276646.080000
   2626   2627     1   0.10969 276646.080000
   2626   2628     1   0.10969 276646.080000
   2629   2630     1   0.10969 276646.080000
   2629   2631     1   0.10969 276646.080000
   2632   2633     1   0.10969 276646.080000
   2632   2634     1   0.10969 276646.080000
   2639   2640     1   0.10129 337397.760000
   2641   2642     1   0.10969 276646.080000
   2641   2643     1   0.10969 276646.080000
   2644   2645     1   0.10969 276646.080000
   2644   2646     1   0.10969 276646.080000
   2648   2649     1   0.10969 276646.080000
   2648   2650     1   0.10969 276646.080000
   2651   2652     1   0.10969 276646.080000
   2651   2653     1   0.10969 276646.080000
   2654   2655     1   0.10969 276646.080000
   2654   2656     1   0.10969 276646.080000
   2657   2658     1   0.10969 276646.080000
   2657   2659     1   0.10969 276646.080000
   2664   2665     1   0.10129 337397.760000
   2666   2667     1   0.10969 276646.080000
   2666   2668     1   0.10969 276646.080000
   2669   2670     1   0.10969 276646.080000
   2669   2671     1   0.10969 276646.080000
   2673   2674     1   0.10969 276646.080000
   2673   2675     1   0.10969 276646.080000
   2676   2677     1   0.10969 276646.080000
   2676   2678     1   0.10969 276646.080000
   2679   2680     1   0.10969 276646.080000
   2679   2681     1   0.10969 276646.080000
   2682   2683     1   0.10969 276646.080000
   2682   2684     1   0.10969 276646.080000
   2689   2690     1   0.10129 337397.760000
   2691   2692     1   0.10969 276646.080000
   2691   2693     1   0.10969 276646.080000
   2694   2695     1   0.10969 276646.080000
   2694   2696     1   0.10969 276646.080000
   2698   2699     1   0.10969 276646.080000
   2698   2700     1   0.10969 276646.080000
   2701   2702     1   0.10969 276646.080000
   2701   2703     1   0.10969 276646.080000
   2704   2705     1   0.10969 276646.080000
   2704   2706     1   0.10969 276646.080000
   2707   2708     1   0.10969 276646.080000
   2707   2709     1   0.10969 276646.080000
   2714   2715     1   0.10129 337397.760000
   2716   2717     1   0.10969 276646.080000
   2716   2718     1   0.10969 276646.080000
   2719   2720     1   0.10969 276646.080000
   2719   2721     1   0.10969 276646.080000
   2723   2724     1   0.10969 276646.080000
   2723   2725     1   0.10969 276646.080000
   2726   2727     1   0.10969 276646.080000
   2726   2728     1   0.10969 276646.080000
   2729   2730     1   0.10969 276646.080000
   2729   2731     1   0.10969 276646.080000
   2732   2733     1   0.10969 276646.080000
   2732   2734     1   0.10969 276646.080000
   2739   2740     1   0.10129 337397.760000
   2741   2742     1   0.10969 276646.080000
   2741   2743     1   0.10969 276646.080000
   2744   2745     1   0.10969 276646.080000
   2744   2746     1   0.10969 276646.080000
   2748   2749     1   0.10969 276646.080000
   2748   2750     1   0.10969 276646.080000
   2751   2752     1   0.10969 276646.080000
   2751   2753     1   0.10969 276646.080000
   2754   2755     1   0.10969 276646.080000
   2754   2756     1   0.10969 276646.080000
   2757   2758     1   0.10969 276646.080000
   2757   2759     1   0.10969 276646.080000
   2764   2765     1   0.10129 337397.760000
   2766   2767     1   0.10969 276646.080000
   2766   2768     1   0.10969 276646.080000
   2769   2770     1   0.10969 276646.080000
   2769   2771     1   0.10969 276646.080000
   2773   2774     1   0.10969 276646.080000
   2773   2775     1   0.10969 276646.080000
   2776   2777     1   0.10969 276646.080000
   2776   2778     1   0.10969 276646.080000
   2779   2780     1   0.10969 276646.080000
   2779   2781     1   0.10969 276646.080000
   2782   2783     1   0.10969 276646.080000
   2782   2784     1   0.10969 276646.080000
   2789   2790     1   0.10129 337397.760000
   2791   2792     1   0.10969 276646.080000
   2791   2793     1   0.10969 276646.080000
   2794   2795     1   0.10969 276646.080000
   2794   2796     1   0.10969 276646.080000
   2798   2799     1   0.10969 276646.080000
   2798   2800     1   0.10969 276646.080000
   2801   2802     1   0.10969 276646.080000
   2801   2803     1   0.10969 276646.080000
   2804   2805     1   0.10969 276646.080000
   2804   2806     1   0.10969 276646.080000
   2807   2808     1   0.10969 276646.080000
   2807   2809     1   0.10969 276646.080000
   2814   2815     1   0.10129 337397.760000
   2816   2817     1   0.10969 276646.080000
   2816   2818     1   0.10969 276646.080000
   2819   2820     1   0.10969 276646.080000
   2819   2821     1   0.10969 276646.080000
   2823   2824     1   0.10969 276646.080000
   2823   2825     1   0.10969 276646.080000
   2826   2827     1   0.10969 276646.080000
   2826   2828     1   0.10969 276646.080000
   2829   2830     1   0.10969 276646.080000
   2829   2831     1   0.10969 276646.080000
   2832   2833     1   0.10969 276646.080000
   2832   2834     1   0.10969 276646.080000
   2839   2840     1   0.10129 337397.760000
   2841   2842     1   0.10969 276646.080000
   2841   2843     1   0.10969 276646.080000
   2844   2845     1   0.10969 276646.080000
   2844   2846     1   0.10969 276646.080000
   2848   2849     1   0.10969 276646.080000
   2848   2850     1   0.10969 276646.080000
   2851   2852     1   0.10969 276646.080000
   2851   2853     1   0.10969 276646.080000
   2854   2855     1   0.10969 276646.080000
   2854   2856     1   0.10969 276646.080000
   2857   2858     1   0.10969 276646.080000
   2857   2859     1   0.10969 276646.080000
   2864   2865     1   0.10129 337397.760000
   2866   2867     1   0.10969 276646.080000
   2866   2868     1   0.10969 276646.080000
   2869   2870     1   0.10969 276646.080000
   2869   2871     1   0.10969 276646.080000
   2873   2874     1   0.10969 276646.080000
   2873   2875     1   0.10969 276646.080000
   2876   2877     1   0.10969 276646.080000
   2876   2878     1   0.10969 276646.080000
   2879   2880     1   0.10969 276646.080000
   2879   2881     1   0.10969 276646.080000
   2882   2883     1   0.10969 276646.080000
   2882   2884     1   0.10969 276646.080000
   2889   2890     1   0.10129 337397.760000
   2891   2892     1   0.10969 276646.080000
   2891   2893     1   0.10969 276646.080000
   2894   2895     1   0.10969 276646.080000
   2894   2896     1   0.10969 276646.080000
   2898   2899     1   0.10969 276646.080000
   2898   2900     1   0.10969 276646.080000
   2901   2902     1   0.10969 276646.080000
   2901   2903     1   0.10969 276646.080000
   2904   2905     1   0.10969 276646.080000
   2904   2906     1   0.10969 276646.080000
   2907   2908     1   0.10969 276646.080000
   2907   2909     1   0.10969 276646.080000
   2914   2915     1   0.10129 337397.760000
   2916   2917     1   0.10969 276646.080000
   2916   2918     1   0.10969 276646.080000
   2919   2920     1   0.10969 276646.080000
   2919   2921     1   0.10969 276646.080000
   2923   2924     1   0.10969 276646.080000
   2923   2925     1   0.10969 276646.080000
   2926   2927     1   0.10969 276646.080000
   2926   2928     1   0.10969 276646.080000
   2929   2930     1   0.10969 276646.080000
   2929   2931     1   0.10969 276646.080000
   2932   2933     1   0.10969 276646.080000
   2932   2934     1   0.10969 276646.080000
   2939   2940     1   0.10129 337397.760000
   2941   2942     1   0.10969 276646.080000
   2941   2943     1   0.10969 276646.080000
   2944   2945     1   0.10969 276646.080000
   2944   2946     1   0.10969 276646.080000
   2948   2949     1   0.10969 276646.080000
   2948   2950     1   0.10969 276646.080000
   2951   2952     1   0.10969 276646.080000
   2951   2953     1   0.10969 276646.080000
   2954   2955     1   0.10969 276646.080000
   2954   2956     1   0.10969 276646.080000
   2957   2958     1   0.10969 276646.080000
   2957   2959     1   0.10969 276646.080000
   2964   2965     1   0.10129 337397.760000
   2966   2967     1   0.10969 276646.080000
   2966   2968     1   0.10969 276646.080000
   2969   2970     1   0.10969 276646.080000
   2969   2971     1   0.10969 276646.080000
   2973   2974     1   0.10969 276646.080000
   2973   2975     1   0.10969 276646.080000
   2976   2977     1   0.10969 276646.080000
   2976   2978     1   0.10969 276646.080000
   2979   2980     1   0.10969 276646.080000
   2979   2981     1   0.10969 276646.080000
   2982   2983     1   0.10969 276646.080000
   2982   2984     1   0.10969 276646.080000
   2989   2990     1   0.10129 337397.760000
   2991   2992     1   0.10969 276646.080000
   2991   2993     1   0.10969 276646.080000
   2994   2995     1   0.10969 276646.080000
   2994   2996     1   0.10969 276646.080000
   2998   2999     1   0.10969 276646.080000
   2998   3000     1   0.10969 276646.080000
   3001   3002     1   0.10969 276646.080000
   3001   3003     1   0.10969 276646.080000
   3004   3005     1   0.10969 276646.080000
   3004   3006     1   0.10969 276646.080000
   3007   3008     1   0.10969 276646.080000
   3007   3009     1   0.10969 276646.080000
   3014   3015     1   0.10129 337397.760000
   3016   3017     1   0.10969 276646.080000
   3016   3018     1   0.10969 276646.080000
   3019   3020     1   0.10969 276646.080000
   3019   3021     1   0.10969 276646.080000
   3023   3024     1   0.10969 276646.080000
   3023   3025     1   0.10969 276646.080000
   3026   3027     1   0.10969 276646.080000
   3026   3028     1   0.10969 276646.080000
   3029   3030     1   0.10969 276646.080000
   3029   3031     1   0.10969 276646.080000
   3032   3033     1   0.10969 276646.080000
   3032   3034     1   0.10969 276646.080000
   3039   3040     1   0.10129 337397.760000
   3041   3042     1   0.10969 276646.080000
   3041   3043     1   0.10969 276646.080000
   3044   3045     1   0.10969 276646.080000
   3044   3046     1   0.10969 276646.080000
   3048   3049     1   0.10969 276646.080000
   3048   3050     1   0.10969 276646.080000
   3051   3052     1   0.10969 276646.080000
   3051   3053     1   0.10969 276646.080000
   3054   3055     1   0.10969 276646.080000
   3054   3056     1   0.10969 276646.080000
   3057   3058     1   0.10969 276646.080000
   3057   3059     1   0.10969 276646.080000
   3064   3065     1   0.10129 337397.760000
   3066   3067     1   0.10969 276646.080000
   3066   3068     1   0.10969 276646.080000
   3069   3070     1   0.10969 276646.080000
   3069   3071     1   0.10969 276646.080000
   3073   3074     1   0.10969 276646.080000
   3073   3075     1   0.10969 276646.080000
   3076   3077     1   0.10969 276646.080000
   3076   3078     1   0.10969 276646.080000
   3079   3080     1   0.10969 276646.080000
   3079   3081     1   0.10969 276646.080000
   3082   3083     1   0.10969 276646.080000
   3082   3084     1   0.10969 276646.080000
   3089   3090     1   0.10129 337397.760000
   3091   3092     1   0.10969 276646.080000
   3091   3093     1   0.10969 276646.080000
   3094   3095     1   0.10969 276646.080000
   3094   3096     1   0.10969 276646.080000
   3098   3099     1   0.10969 276646.080000
   3098   3100     1   0.10969 276646.080000
   3101   3102     1   0.10969 276646.080000
   3101   3103     1   0.10969 276646.080000
   3104   3105     1   0.10969 276646.080000
   3104   3106     1   0.10969 276646.080000
   3107   3108     1   0.10969 276646.080000
   3107   3109     1   0.10969 276646.080000
   3114   3115     1   0.10129 337397.760000
   3116   3117     1   0.10969 276646.080000
   3116   3118     1   0.10969 276646.080000
   3119   3120     1   0.10969 276646.080000
   3119   3121     1   0.10969 276646.080000
   3123   3124     1   0.10969 276646.080000
   3123   3125     1   0.10969 276646.080000
   3126   3127     1   0.10969 276646.080000
   3126   3128     1   0.10969 276646.080000
   3129   3130     1   0.10969 276646.080000
   3129   3131     1   0.10969 276646.080000
   3132   3133     1   0.10969 276646.080000
   3132   3134     1   0.10969 276646.080000
   3139   3140     1   0.10129 337397.760000
   3141   3142     1   0.10129 337397.760000
   3143   3145     1   0.10969 276646.080000
   3143   3146     1   0.10969 276646.080000
   3144   3147     1   0.10910 283424.160000
   3144   3148     1   0.10910 283424.160000
   3149   3150     1   0.10304 312293.760000
   3149   3151     1   0.10304 312293.760000
   3149   3152     1   0.10304 312293.760000
   3153   3154     1   0.10129 337397.760000
   3155   3157     1   0.10969 276646.080000
   3155   3158     1   0.10969 276646.080000
   3156   3159     1   0.10910 283424.160000
   3156   3160     1   0.10910 283424.160000
   3161   3162     1   0.10304 312293.760000
   3161   3163     1   0.10304 312293.760000
   3161   3164     1   0.10304 312293.760000
   3165   3166     1   0.10129 337397.760000
   3167   3169     1   0.10969 276646.080000
   3167   3170     1   0.10969 276646.080000
   3168   3171     1   0.10910 283424.160000
   3168   3172     1   0.10910 283424.160000
   3173   3174     1   0.10304 312293.760000
   3173   3175     1   0.10304 312293.760000
   3173   3176     1   0.10304 312293.760000
   3177   3178     1   0.10129 337397.760000
   3179   3181     1   0.10969 276646.080000
   3179   3182     1   0.10969 276646.080000
   3180   3183     1   0.10910 283424.160000
   3180   3184     1   0.10910 283424.160000
   3185   3186     1   0.10304 312293.760000
   3185   3187     1   0.10304 312293.760000
   3185   3188     1   0.10304 312293.760000
   3189   3190     1   0.10129 337397.760000
   3191   3193     1   0.10969 276646.080000
   3191   3194     1   0.10969 276646.080000
   3192   3195     1   0.10910 283424.160000
   3192   3196     1   0.10910 283424.160000
   3197   3198     1   0.10304 312293.760000
   3197   3199     1   0.10304 312293.760000
   3197   3200     1   0.10304 312293.760000
   3201   3202     1   0.10129 337397.760000
   3203   3205     1   0.10969 276646.080000
   3203   3206     1   0.10969 276646.080000
   3204   3207     1   0.10910 283424.160000
   3204   3208     1   0.10910 283424.160000
   3209   3210     1   0.10304 312293.760000
   3209   3211     1   0.10304 312293.760000
   3209   3212     1   0.10304 312293.760000
   3213   3214     1   0.10129 337397.760000
   3215   3217     1   0.10969 276646.080000
   3215   3218     1   0.10969 276646.080000
   3216   3219     1   0.10910 283424.160000
   3216   3220     1   0.10910 283424.160000
   3221   3222     1   0.10304 312293.760000
   3221   3223     1   0.10304 312293.760000
   3221   3224     1   0.10304 312293.760000
   3225   3226     1   0.10129 337397.760000
   3227   3229     1   0.10969 276646.080000
   3227   3230     1   0.10969 276646.080000
   3228   3231     1   0.10910 283424.160000
   3228   3232     1   0.10910 283424.160000
   3233   3234     1   0.10304 312293.760000
   3233   3235     1   0.10304 312293.760000
   3233   3236     1   0.10304 312293.760000
   3237   3238     1   0.10129 337397.760000
   3239   3241     1   0.10969 276646.080000
   3239   3242     1   0.10969 276646.080000
   3240   3243     1   0.10910 283424.160000
   3240   3244     1   0.10910 283424.160000
   3245   3246     1   0.10304 312293.760000
   3245   3247     1   0.10304 312293.760000
   3245   3248     1   0.10304 312293.760000
   3249   3250     1   0.10129 337397.760000
   3251   3253     1   0.10969 276646.080000
   3251   3254     1   0.10969 276646.080000
   3252   3255     1   0.10910 283424.160000
   3252   3256     1   0.10910 283424.160000
   3257   3258     1   0.10304 312293.760000
   3257   3259     1   0.10304 312293.760000
   3257   3260     1   0.10304 312293.760000
   3261   3262     1   0.10129 337397.760000
   3263   3265     1   0.10969 276646.080000
   3263   3266     1   0.10969 276646.080000
   3264   3267     1   0.10910 283424.160000
   3264   3268     1   0.10910 283424.160000
   3269   3270     1   0.10304 312293.760000
   3269   3271     1   0.10304 312293.760000
   3269   3272     1   0.10304 312293.760000
   3273   3274     1   0.10129 337397.760000
   3275   3277     1   0.10969 276646.080000
   3275   3278     1   0.10969 276646.080000
   3276   3279     1   0.10910 283424.160000
   3276   3280     1   0.10910 283424.160000
   3281   3282     1   0.10304 312293.760000
   3281   3283     1   0.10304 312293.760000
   3281   3284     1   0.10304 312293.760000
   3285   3286     1   0.10129 337397.760000
   3287   3289     1   0.10969 276646.080000
   3287   3290     1   0.10969 276646.080000
   3288   3291     1   0.10910 283424.160000
   3288   3292     1   0.10910 283424.160000
   3293   3294     1   0.10304 312293.760000
   3293   3295     1   0.10304 312293.760000
   3293   3296     1   0.10304 312293.760000
   3297   3298     1   0.10129 337397.760000
   3299   3301     1   0.10969 276646.080000
   3299   3302     1   0.10969 276646.080000
   3300   3303     1   0.10910 283424.160000
   3300   3304     1   0.10910 283424.160000
   3305   3306     1   0.10304 312293.760000
   3305   3307     1   0.10304 312293.760000
   3305   3308     1   0.10304 312293.760000
   3309   3310     1   0.10129 337397.760000
   3311   3313     1   0.10969 276646.080000
   3311   3314     1   0.10969 276646.080000
   3312   3315     1   0.10910 283424.160000
   3312   3316     1   0.10910 283424.160000
   3317   3318     1   0.10304 312293.760000
   3317   3319     1   0.10304 312293.760000
   3317   3320     1   0.10304 312293.760000
   3321   3322     1   0.10129 337397.760000
   3323   3325     1   0.10969 276646.080000
   3323   3326     1   0.10969 276646.080000
   3324   3327     1   0.10910 283424.160000
   3324   3328     1   0.10910 283424.160000
   3329   3330     1   0.10304 312293.760000
   3329   3331     1   0.10304 312293.760000
   3329   3332     1   0.10304 312293.760000
   3333   3334     1   0.10129 337397.760000
   3335   3337     1   0.10969 276646.080000
   3335   3338     1   0.10969 276646.080000
   3336   3339     1   0.10910 283424.160000
   3336   3340     1   0.10910 283424.160000
   3341   3342     1   0.10304 312293.760000
   3341   3343     1   0.10304 312293.760000
   3341   3344     1   0.10304 312293.760000
   3345   3346     1   0.10129 337397.760000
   3347   3349     1   0.10969 276646.080000
   3347   3350     1   0.10969 276646.080000
   3348   3351     1   0.10910 283424.160000
   3348   3352     1   0.10910 283424.160000
   3353   3354     1   0.10304 312293.760000
   3353   3355     1   0.10304 312293.760000
   3353   3356     1   0.10304 312293.760000
   3357   3358     1   0.10129 337397.760000
   3359   3361     1   0.10969 276646.080000
   3359   3362     1   0.10969 276646.080000
   3360   3363     1   0.10910 283424.160000
   3360   3364     1   0.10910 283424.160000
   3365   3366     1   0.10304 312293.760000
   3365   3367     1   0.10304 312293.760000
   3365   3368     1   0.10304 312293.760000
   3369   3370     1   0.10129 337397.760000
   3371   3373     1   0.10969 276646.080000
   3371   3374     1   0.10969 276646.080000
   3372   3375     1   0.10910 283424.160000
   3372   3376     1   0.10910 283424.160000
   3377   3378     1   0.10304 312293.760000
   3377   3379     1   0.10304 312293.760000
   3377   3380     1   0.10304 312293.760000
   3381   3382     1   0.10129 337397.760000
   3383   3385     1   0.10969 276646.080000
   3383   3386     1   0.10969 276646.080000
   3384   3387     1   0.10910 283424.160000
   3384   3388     1   0.10910 283424.160000
   3389   3390     1   0.10304 312293.760000
   3389   3391     1   0.10304 312293.760000
   3389   3392     1   0.10304 312293.760000
   3393   3394     1   0.10129 337397.760000
   3395   3397     1   0.10969 276646.080000
   3395   3398     1   0.10969 276646.080000
   3396   3399     1   0.10910 283424.160000
   3396   3400     1   0.10910 283424.160000
   3401   3402     1   0.10304 312293.760000
   3401   3403     1   0.10304 312293.760000
   3401   3404     1   0.10304 312293.760000
   3405   3406     1   0.10129 337397.760000
   3407   3409     1   0.10969 276646.080000
   3407   3410     1   0.10969 276646.080000
   3408   3411     1   0.10910 283424.160000
   3408   3412     1   0.10910 283424.160000
   3413   3414     1   0.10304 312293.760000
   3413   3415     1   0.10304 312293.760000
   3413   3416     1   0.10304 312293.760000
   3417   3418     1   0.10129 337397.760000
   3419   3421     1   0.10969 276646.080000
   3419   3422     1   0.10969 276646.080000
   3420   3423     1   0.10910 283424.160000
   3420   3424     1   0.10910 283424.160000
   3425   3426     1   0.10304 312293.760000
   3425   3427     1   0.10304 312293.760000
   3425   3428     1   0.10304 312293.760000
   3429   3430     1   0.10129 337397.760000
   3431   3433     1   0.10969 276646.080000
   3431   3434     1   0.10969 276646.080000
   3432   3435     1   0.10910 283424.160000
   3432   3436     1   0.10910 283424.160000
   3437   3438     1   0.10304 312293.760000
   3437   3439     1   0.10304 312293.760000
   3437   3440     1   0.10304 312293.760000
   3441   3442     1   0.10129 337397.760000
   3443   3445     1   0.10969 276646.080000
   3443   3446     1   0.10969 276646.080000
   3444   3447     1   0.10910 283424.160000
   3444   3448     1   0.10910 283424.160000
   3449   3450     1   0.10304 312293.760000
   3449   3451     1   0.10304 312293.760000
   3449   3452     1   0.10304 312293.760000
   3453   3454     1   0.10129 337397.760000
   3455   3457     1   0.10969 276646.080000
   3455   3458     1   0.10969 276646.080000
   3456   3459     1   0.10910 283424.160000
   3456   3460     1   0.10910 283424.160000
   3461   3462     1   0.10304 312293.760000
   3461   3463     1   0.10304 312293.760000
   3461   3464     1   0.10304 312293.760000
   3465   3466     1   0.10129 337397.760000
   3467   3469     1   0.10969 276646.080000
   3467   3470     1   0.10969 276646.080000
   3468   3471     1   0.10910 283424.160000
   3468   3472     1   0.10910 283424.160000
   3473   3474     1   0.10304 312293.760000
   3473   3475     1   0.10304 312293.760000
   3473   3476     1   0.10304 312293.760000
   3477   3478     1   0.10129 337397.760000
   3479   3481     1   0.10969 276646.080000
   3479   3482     1   0.10969 276646.080000
   3480   3483     1   0.10910 283424.160000
   3480   3484     1   0.10910 283424.160000
   3485   3486     1   0.10304 312293.760000
   3485   3487     1   0.10304 312293.760000
   3485   3488     1   0.10304 312293.760000
   3489   3490     1   0.10129 337397.760000
   3491   3493     1   0.10969 276646.080000
   3491   3494     1   0.10969 276646.080000
   3492   3495     1   0.10910 283424.160000
   3492   3496     1   0.10910 283424.160000
   3497   3498     1   0.10304 312293.760000
   3497   3499     1   0.10304 312293.760000
   3497   3500     1   0.10304 312293.760000
   3501   3502     1   0.10129 337397.760000
   3503   3505     1   0.10969 276646.080000
   3503   3506     1   0.10969 276646.080000
   3504   3507     1   0.10910 283424.160000
   3504   3508     1   0.10910 283424.160000
   3509   3510     1   0.10304 312293.760000
   3509   3511     1   0.10304 312293.760000
   3509   3512     1   0.10304 312293.760000
   3513   3514     1   0.10129 337397.760000
   3515   3517     1   0.10969 276646.080000
   3515   3518     1   0.10969 276646.080000
   3516   3519     1   0.10910 283424.160000
   3516   3520     1   0.10910 283424.160000
   3521   3522     1   0.10304 312293.760000
   3521   3523     1   0.10304 312293.760000
   3521   3524     1   0.10304 312293.760000
   3525   3526     1   0.10129 337397.760000
   3527   3529     1   0.10969 276646.080000
   3527   3530     1   0.10969 276646.080000
   3528   3531     1   0.10910 283424.160000
   3528   3532     1   0.10910 283424.160000
   3533   3534     1   0.10304 312293.760000
   3533   3535     1   0.10304 312293.760000
   3533   3536     1   0.10304 312293.760000
   3537   3538     1   0.10129 337397.760000
   3539   3541     1   0.10969 276646.080000
   3539   3542     1   0.10969 276646.080000
   3540   3543     1   0.10910 283424.160000
   3540   3544     1   0.10910 283424.160000
   3545   3546     1   0.10304 312293.760000
   3545   3547     1   0.10304 312293.760000
   3545   3548     1   0.10304 312293.760000
   3549   3550     1   0.10129 337397.760000
   3551   3553     1   0.10969 276646.080000
   3551   3554     1   0.10969 276646.080000
   3552   3555     1   0.10910 283424.160000
   3552   3556     1   0.10910 283424.160000
   3557   3558     1   0.10304 312293.760000
   3557   3559     1   0.10304 312293.760000
   3557   3560     1   0.10304 312293.760000
   3561   3562     1   0.10129 337397.760000
   3563   3565     1   0.10969 276646.080000
   3563   3566     1   0.10969 276646.080000
   3564   3567     1   0.10910 283424.160000
   3564   3568     1   0.10910 283424.160000
   3569   3570     1   0.10304 312293.760000
   3569   3571     1   0.10304 312293.760000
   3569   3572     1   0.10304 312293.760000
   3573   3574     1   0.10129 337397.760000
   3575   3577     1   0.10969 276646.080000
   3575   3578     1   0.10969 276646.080000
   3576   3579     1   0.10910 283424.160000
   3576   3580     1   0.10910 283424.160000
   3581   3582     1   0.10304 312293.760000
   3581   3583     1   0.10304 312293.760000
   3581   3584     1   0.10304 312293.760000
   3585   3586     1   0.10129 337397.760000
   3587   3589     1   0.10969 276646.080000
   3587   3590     1   0.10969 276646.080000
   3588   3591     1   0.10910 283424.160000
   3588   3592     1   0.10910 283424.160000
   3593   3594     1   0.10304 312293.760000
   3593   3595     1   0.10304 312293.760000
   3593   3596     1   0.10304 312293.760000
   3597   3598     1   0.10129 337397.760000
   3599   3601     1   0.10969 276646.080000
   3599   3602     1   0.10969 276646.080000
   3600   3603     1   0.10910 283424.160000
   3600   3604     1   0.10910 283424.160000
   3605   3606     1   0.10304 312293.760000
   3605   3607     1   0.10304 312293.760000
   3605   3608     1   0.10304 312293.760000
   3609   3610     1   0.10129 337397.760000
   3611   3613     1   0.10969 276646.080000
   3611   3614     1   0.10969 276646.080000
   3612   3615     1   0.10910 283424.160000
   3612   3616     1   0.10910 283424.160000
   3617   3618     1   0.10304 312293.760000
   3617   3619     1   0.10304 312293.760000
   3617   3620     1   0.10304 312293.760000
   3621   3622     1   0.10129 337397.760000
   3623   3625     1   0.10969 276646.080000
   3623   3626     1   0.10969 276646.080000
   3624   3627     1   0.10910 283424.160000
   3624   3628     1   0.10910 283424.160000
   3629   3630     1   0.10304 312293.760000
   3629   3631     1   0.10304 312293.760000
   3629   3632     1   0.10304 312293.760000
   3633   3634     1   0.10129 337397.760000
   3635   3637     1   0.10969 276646.080000
   3635   3638     1   0.10969 276646.080000
   3636   3639     1   0.10910 283424.160000
   3636   3640     1   0.10910 283424.160000
   3641   3642     1   0.10304 312293.760000
   3641   3643     1   0.10304 312293.760000
   3641   3644     1   0.10304 312293.760000
   3645   3646     1   0.10129 337397.760000
   3647   3649     1   0.10969 276646.080000
   3647   3650     1   0.10969 276646.080000
   3648   3651     1   0.10910 283424.160000
   3648   3652     1   0.10910 283424.160000
   3653   3654     1   0.10304 312293.760000
   3653   3655     1   0.10304 312293.760000
   3653   3656     1   0.10304 312293.760000
   3657   3658     1   0.10129 337397.760000
   3659   3661     1   0.10969 276646.080000
   3659   3662     1   0.10969 276646.080000
   3660   3663     1   0.10910 283424.160000
   3660   3664     1   0.10910 283424.160000
   3665   3666     1   0.10304 312293.760000
   3665   3667     1   0.10304 312293.760000
   3665   3668     1   0.10304 312293.760000
   3669   3670     1   0.10129 337397.760000
   3671   3673     1   0.10969 276646.080000
   3671   3674     1   0.10969 276646.080000
   3672   3675     1   0.10910 283424.160000
   3672   3676     1   0.10910 283424.160000
   3677   3678     1   0.10304 312293.760000
   3677   3679     1   0.10304 312293.760000
   3677   3680     1   0.10304 312293.760000
   3681   3682     1   0.10129 337397.760000
   3683   3685     1   0.10969 276646.080000
   3683   3686     1   0.10969 276646.080000
   3684   3687     1   0.10910 283424.160000
   3684   3688     1   0.10910 283424.160000
   3689   3690     1   0.10304 312293.760000
   3689   3691     1   0.10304 312293.760000
   3689   3692     1   0.10304 312293.760000
   3693   3694     1   0.10129 337397.760000
   3695   3697     1   0.10969 276646.080000
   3695   3698     1   0.10969 276646.080000
   3696   3699     1   0.10910 283424.160000
   3696   3700     1   0.10910 283424.160000
   3701   3702     1   0.10304 312293.760000
   3701   3703     1   0.10304 312293.760000
   3701   3704     1   0.10304 312293.760000
   3705   3706     1   0.10129 337397.760000
   3707   3709     1   0.10969 276646.080000
   3707   3710     1   0.10969 276646.080000
   3708   3711     1   0.10910 283424.160000
   3708   3712     1   0.10910 283424.160000
   3713   3714     1   0.10304 312293.760000
   3713   3715     1   0.10304 312293.760000
   3713   3716     1   0.10304 312293.760000
   3717   3718     1   0.10129 337397.760000
   3719   3721     1   0.10969 276646.080000
   3719   3722     1   0.10969 276646.080000
   3720   3723     1   0.10910 283424.160000
   3720   3724     1   0.10910 283424.160000
   3725   3726     1   0.10304 312293.760000
   3725   3727     1   0.10304 312293.760000
   3725   3728     1   0.10304 312293.760000
   3729   3730     1   0.10129 337397.760000
   3731   3733     1   0.10969 276646.080000
   3731   3734     1   0.10969 276646.080000
   3732   3735     1   0.10910 283424.160000
   3732   3736     1   0.10910 283424.160000
   3737   3738     1   0.10304 312293.760000
   3737   3739     1   0.10304 312293.760000
   3737   3740     1   0.10304 312293.760000
   3741   3742     1   0.10129 337397.760000
   3743   3745     1   0.10969 276646.080000
   3743   3746     1   0.10969 276646.080000
   3744   3747     1   0.10910 283424.160000
   3744   3748     1   0.10910 283424.160000
   3749   3750     1   0.10304 312293.760000
   3749   3751     1   0.10304 312293.760000
   3749   3752     1   0.10304 312293.760000
   3753   3754     1   0.10129 337397.760000
   3755   3757     1   0.10969 276646.080000
   3755   3758     1   0.10969 276646.080000
   3756   3759     1   0.10910 283424.160000
   3756   3760     1   0.10910 283424.160000
   3761   3762     1   0.10304 312293.760000
   3761   3763     1   0.10304 312293.760000
   3761   3764     1   0.10304 312293.760000
   3765   3766     1   0.10129 337397.760000
   3767   3769     1   0.10969 276646.080000
   3767   3770     1   0.10969 276646.080000
   3768   3771     1   0.10910 283424.160000
   3768   3772     1   0.10910 283424.160000
   3773   3774     1   0.10304 312293.760000
   3773   3775     1   0.10304 312293.760000
   3773   3776     1   0.10304 312293.760000
   3777   3778     1   0.10129 337397.760000
   3779   3781     1   0.10969 276646.080000
   3779   3782     1   0.10969 276646.080000
   3780   3783     1   0.10910 283424.160000
   3780   3784     1   0.10910 283424.160000
   3785   3786     1   0.10304 312293.760000
   3785   3787     1   0.10304 312293.760000
   3785   3788     1   0.10304 312293.760000
   3789   3790     1   0.10129 337397.760000
   3791   3793     1   0.10969 276646.080000
   3791   3794     1   0.10969 276646.080000
   3792   3795     1   0.10910 283424.160000
   3792   3796     1   0.10910 283424.160000
   3797   3798     1   0.10304 312293.760000
   3797   3799     1   0.10304 312293.760000
   3797   3800     1   0.10304 312293.760000
   3801   3802     1   0.10129 337397.760000
   3803   3805     1   0.10969 276646.080000
   3803   3806     1   0.10969 276646.080000
   3804   3807     1   0.10910 283424.160000
   3804   3808     1   0.10910 283424.160000
   3809   3810     1   0.10304 312293.760000
   3809   3811     1   0.10304 312293.760000
   3809   3812     1   0.10304 312293.760000
   3813   3814     1   0.10129 337397.760000
   3815   3817     1   0.10969 276646.080000
   3815   3818     1   0.10969 276646.080000
   3816   3819     1   0.10910 283424.160000
   3816   3820     1   0.10910 283424.160000
   3821   3822     1   0.10304 312293.760000
   3821   3823     1   0.10304 312293.760000
   3821   3824     1   0.10304 312293.760000
   3825   3826     1   0.10129 337397.760000
   3827   3829     1   0.10969 276646.080000
   3827   3830     1   0.10969 276646.080000
   3828   3831     1   0.10910 283424.160000
   3828   3832     1   0.10910 283424.160000
   3833   3834     1   0.10304 312293.760000
   3833   3835     1   0.10304 312293.760000
   3833   3836     1   0.10304 312293.760000
   3837   3838     1   0.10129 337397.760000
   3839   3841     1   0.10969 276646.080000
   3839   3842     1   0.10969 276646.080000
   3840   3843     1   0.10910 283424.160000
   3840   3844     1   0.10910 283424.160000
   3845   3846     1   0.10304 312293.760000
   3845   3847     1   0.10304 312293.760000
   3845   3848     1   0.10304 312293.760000
   3849   3850     1   0.10129 337397.760000
   3851   3853     1   0.10969 276646.080000
   3851   3854     1   0.10969 276646.080000
   3852   3855     1   0.10910 283424.160000
   3852   3856     1   0.10910 283424.160000
   3857   3858     1   0.10304 312293.760000
   3857   3859     1   0.10304 312293.760000
   3857   3860     1   0.10304 312293.760000
   3861   3862     1   0.10129 337397.760000
   3863   3865     1   0.10969 276646.080000
   3863   3866     1   0.10969 276646.080000
   3864   3867     1   0.10910 283424.160000
   3864   3868     1   0.10910 283424.160000
   3869   3870     1   0.10304 312293.760000
   3869   3871     1   0.10304 312293.760000
   3869   3872     1   0.10304 312293.760000
   3873   3874     1   0.10129 337397.760000
   3875   3877     1   0.10969 276646.080000
   3875   3878     1   0.10969 276646.080000
   3876   3879     1   0.10910 283424.160000
   3876   3880     1   0.10910 283424.160000
   3881   3882     1   0.10304 312293.760000
   3881   3883     1   0.10304 312293.760000
   3881   3884     1   0.10304 312293.760000
   3885   3886     1   0.10129 337397.760000
   3887   3889     1   0.10969 276646.080000
   3887   3890     1   0.10969 276646.080000
   3888   3891     1   0.10910 283424.160000
   3888   3892     1   0.10910 283424.160000
   3893   3894     1   0.10304 312293.760000
   3893   3895     1   0.10304 312293.760000
   3893   3896     1   0.10304 312293.760000
   3897   3898     1   0.10129 337397.760000
   3899   3901     1   0.10969 276646.080000
   3899   3902     1   0.10969 276646.080000
   3900   3903     1   0.10910 283424.160000
   3900   3904     1   0.10910 283424.160000
   3905   3906     1   0.10304 312293.760000
   3905   3907     1   0.10304 312293.760000
   3905   3908     1   0.10304 312293.760000
   3909   3910     1   0.10129 337397.760000
   3911   3913     1   0.10969 276646.080000
   3911   3914     1   0.10969 276646.080000
   3912   3915     1   0.10910 283424.160000
   3912   3916     1   0.10910 283424.160000
   3917   3918     1   0.10304 312293.760000
   3917   3919     1   0.10304 312293.760000
   3917   3920     1   0.10304 312293.760000
   3921   3922     1   0.10129 337397.760000
   3923   3925     1   0.10969 276646.080000
   3923   3926     1   0.10969 276646.080000
   3924   3927     1   0.10910 283424.160000
   3924   3928     1   0.10910 283424.160000
   3929   3930     1   0.10304 312293.760000
   3929   3931     1   0.10304 312293.760000
   3929   3932     1   0.10304 312293.760000
   3933   3934     1   0.10129 337397.760000
   3935   3937     1   0.10969 276646.080000
   3935   3938     1   0.10969 276646.080000
   3936   3939     1   0.10910 283424.160000
   3936   3940     1   0.10910 283424.160000
   3941   3942     1   0.10304 312293.760000
   3941   3943     1   0.10304 312293.760000
   3941   3944     1   0.10304 312293.760000
   3945   3946     1   0.10129 337397.760000
   3947   3949     1   0.10969 276646.080000
   3947   3950     1   0.10969 276646.080000
   3948   3951     1   0.10910 283424.160000
   3948   3952     1   0.10910 283424.160000
   3953   3954     1   0.10304 312293.760000
   3953   3955     1   0.10304 312293.760000
   3953   3956     1   0.10304 312293.760000
   3957   3958     1   0.10129 337397.760000
   3959   3961     1   0.10969 276646.080000
   3959   3962     1   0.10969 276646.080000
   3960   3963     1   0.10910 283424.160000
   3960   3964     1   0.10910 283424.160000
   3965   3966     1   0.10304 312293.760000
   3965   3967     1   0.10304 312293.760000
   3965   3968     1   0.10304 312293.760000
   3969   3970     1   0.10129 337397.760000
   3971   3973     1   0.10969 276646.080000
   3971   3974     1   0.10969 276646.080000
   3972   3975     1   0.10910 283424.160000
   3972   3976     1   0.10910 283424.160000
   3977   3978     1   0.10304 312293.760000
   3977   3979     1   0.10304 312293.760000
   3977   3980     1   0.10304 312293.760000
   3981   3982     1   0.10129 337397.760000
   3983   3985     1   0.10969 276646.080000
   3983   3986     1   0.10969 276646.080000
   3984   3987     1   0.10910 283424.160000
   3984   3988     1   0.10910 283424.160000
   3989   3990     1   0.10304 312293.760000
   3989   3991     1   0.10304 312293.760000
   3989   3992     1   0.10304 312293.760000
   3993   3994     1   0.10129 337397.760000
   3995   3997     1   0.10969 276646.080000
   3995   3998     1   0.10969 276646.080000
   3996   3999     1   0.10910 283424.160000
   3996   4000     1   0.10910 283424.160000
   4001   4002     1   0.10304 312293.760000
   4001   4003     1   0.10304 312293.760000
   4001   4004     1   0.10304 312293.760000
   4005   4006     1   0.10129 337397.760000
   4007   4009     1   0.10969 276646.080000
   4007   4010     1   0.10969 276646.080000
   4008   4011     1   0.10910 283424.160000
   4008   4012     1   0.10910 283424.160000
   4013   4014     1   0.10304 312293.760000
   4013   4015     1   0.10304 312293.760000
   4013   4016     1   0.10304 312293.760000
   4017   4018     1   0.10129 337397.760000
   4019   4021     1   0.10969 276646.080000
   4019   4022     1   0.10969 276646.080000
   4020   4023     1   0.10910 283424.160000
   4020   4024     1   0.10910 283424.160000
   4025   4026     1   0.10304 312293.760000
   4025   4027     1   0.10304 312293.760000
   4025   4028     1   0.10304 312293.760000
   4029   4030     1   0.10129 337397.760000
   4031   4033     1   0.10969 276646.080000
   4031   4034     1   0.10969 276646.080000
   4032   4035     1   0.10910 283424.160000
   4032   4036     1   0.10910 283424.160000
   4037   4038     1   0.10304 312293.760000
   4037   4039     1   0.10304 312293.760000
   4037   4040     1   0.10304 312293.760000
   4041   4042     1   0.10129 337397.760000
   4043   4045     1   0.10969 276646.080000
   4043   4046     1   0.10969 276646.080000
   4044   4047     1   0.10910 283424.160000
   4044   4048     1   0.10910 283424.160000
   4049   4050     1   0.10304 312293.760000
   4049   4051     1   0.10304 312293.760000
   4049   4052     1   0.10304 312293.760000
   4053   4054     1   0.10129 337397.760000
   4055   4057     1   0.10969 276646.080000
   4055   4058     1   0.10969 276646.080000
   4056   4059     1   0.10910 283424.160000
   4056   4060     1   0.10910 283424.160000
   4061   4062     1   0.10304 312293.760000
   4061   4063     1   0.10304 312293.760000
   4061   4064     1   0.10304 312293.760000
   4065   4066     1   0.10129 337397.760000
   4067   4069     1   0.10969 276646.080000
   4067   4070     1   0.10969 276646.080000
   4068   4071     1   0.10910 283424.160000
   4068   4072     1   0.10910 283424.160000
   4073   4074     1   0.10304 312293.760000
   4073   4075     1   0.10304 312293.760000
   4073   4076     1   0.10304 312293.760000
   4077   4078     1   0.10129 337397.760000
   4079   4081     1   0.10969 276646.080000
   4079   4082     1   0.10969 276646.080000
   4080   4083     1   0.10910 283424.160000
   4080   4084     1   0.10910 283424.160000
   4085   4086     1   0.10304 312293.760000
   4085   4087     1   0.10304 312293.760000
   4085   4088     1   0.10304 312293.760000
   4089   4090     1   0.10129 337397.760000
   4091   4093     1   0.10969 276646.080000
   4091   4094     1   0.10969 276646.080000
   4092   4095     1   0.10910 283424.160000
   4092   4096     1   0.10910 283424.160000
   4097   4098     1   0.10304 312293.760000
   4097   4099     1   0.10304 312293.760000
   4097   4100     1   0.10304 312293.760000
   4101   4102     1   0.10129 337397.760000
   4103   4105     1   0.10969 276646.080000
   4103   4106     1   0.10969 276646.080000
   4104   4107     1   0.10910 283424.160000
   4104   4108     1   0.10910 283424.160000
   4109   4110     1   0.10304 312293.760000
   4109   4111     1   0.10304 312293.760000
   4109   4112     1   0.10304 312293.760000
   4113   4114     1   0.10129 337397.760000
   4115   4117     1   0.10969 276646.080000
   4115   4118     1   0.10969 276646.080000
   4116   4119     1   0.10910 283424.160000
   4116   4120     1   0.10910 283424.160000
   4121   4122     1   0.10304 312293.760000
   4121   4123     1   0.10304 312293.760000
   4121   4124     1   0.10304 312293.760000
   4125   4126     1   0.10129 337397.760000
   4127   4129     1   0.10969 276646.080000
   4127   4130     1   0.10969 276646.080000
   4128   4131     1   0.10910 283424.160000
   4128   4132     1   0.10910 283424.160000
   4133   4134     1   0.10304 312293.760000
   4133   4135     1   0.10304 312293.760000
   4133   4136     1   0.10304 312293.760000
   4137   4138     1   0.10129 337397.760000
   4139   4141     1   0.10969 276646.080000
   4139   4142     1   0.10969 276646.080000
   4140   4143     1   0.10910 283424.160000
   4140   4144     1   0.10910 283424.160000
   4145   4146     1   0.10304 312293.760000
   4145   4147     1   0.10304 312293.760000
   4145   4148     1   0.10304 312293.760000
   4149   4150     1   0.10129 337397.760000
   4151   4153     1   0.10969 276646.080000
   4151   4154     1   0.10969 276646.080000
   4152   4155     1   0.10910 283424.160000
   4152   4156     1   0.10910 283424.160000
   4157   4158     1   0.10304 312293.760000
   4157   4159     1   0.10304 312293.760000
   4157   4160     1   0.10304 312293.760000
   4161   4162     1   0.10129 337397.760000
   4163   4165     1   0.10969 276646.080000
   4163   4166     1   0.10969 276646.080000
   4164   4167     1   0.10910 283424.160000
   4164   4168     1   0.10910 283424.160000
   4169   4170     1   0.10304 312293.760000
   4169   4171     1   0.10304 312293.760000
   4169   4172     1   0.10304 312293.760000
   4173   4174     1   0.10129 337397.760000
   4175   4177     1   0.10969 276646.080000
   4175   4178     1   0.10969 276646.080000
   4176   4179     1   0.10910 283424.160000
   4176   4180     1   0.10910 283424.160000
   4181   4182     1   0.10304 312293.760000
   4181   4183     1   0.10304 312293.760000
   4181   4184     1   0.10304 312293.760000
   4185   4186     1   0.10129 337397.760000
   4187   4189     1   0.10969 276646.080000
   4187   4190     1   0.10969 276646.080000
   4188   4191     1   0.10910 283424.160000
   4188   4192     1   0.10910 283424.160000
   4193   4194     1   0.10304 312293.760000
   4193   4195     1   0.10304 312293.760000
   4193   4196     1   0.10304 312293.760000
   4197   4198     1   0.10129 337397.760000
   4199   4201     1   0.10969 276646.080000
   4199   4202     1   0.10969 276646.080000
   4200   4203     1   0.10910 283424.160000
   4200   4204     1   0.10910 283424.160000
   4205   4206     1   0.10304 312293.760000
   4205   4207     1   0.10304 312293.760000
   4205   4208     1   0.10304 312293.760000
   4209   4210     1   0.10129 337397.760000
   4211   4213     1   0.10969 276646.080000
   4211   4214     1   0.10969 276646.080000
   4212   4215     1   0.10910 283424.160000
   4212   4216     1   0.10910 283424.160000
   4217   4218     1   0.10304 312293.760000
   4217   4219     1   0.10304 312293.760000
   4217   4220     1   0.10304 312293.760000
   4221   4222     1   0.10129 337397.760000
   4223   4225     1   0.10969 276646.080000
   4223   4226     1   0.10969 276646.080000
   4224   4227     1   0.10910 283424.160000
   4224   4228     1   0.10910 283424.160000
   4229   4230     1   0.10304 312293.760000
   4229   4231     1   0.10304 312293.760000
   4229   4232     1   0.10304 312293.760000
   4233   4234     1   0.10129 337397.760000
   4235   4237     1   0.10969 276646.080000
   4235   4238     1   0.10969 276646.080000
   4236   4239     1   0.10910 283424.160000
   4236   4240     1   0.10910 283424.160000
   4241   4242     1   0.10304 312293.760000
   4241   4243     1   0.10304 312293.760000
   4241   4244     1   0.10304 312293.760000
   4245   4246     1   0.10129 337397.760000
   4247   4249     1   0.10969 276646.080000
   4247   4250     1   0.10969 276646.080000
   4248   4251     1   0.10910 283424.160000
   4248   4252     1   0.10910 283424.160000
   4253   4254     1   0.10304 312293.760000
   4253   4255     1   0.10304 312293.760000
   4253   4256     1   0.10304 312293.760000
   4257   4258     1   0.10129 337397.760000
   4259   4261     1   0.10969 276646.080000
   4259   4262     1   0.10969 276646.080000
   4260   4263     1   0.10910 283424.160000
   4260   4264     1   0.10910 283424.160000
   4265   4266     1   0.10304 312293.760000
   4265   4267     1   0.10304 312293.760000
   4265   4268     1   0.10304 312293.760000
   4269   4270     1   0.10129 337397.760000
   4271   4273     1   0.10969 276646.080000
   4271   4274     1   0.10969 276646.080000
   4272   4275     1   0.10910 283424.160000
   4272   4276     1   0.10910 283424.160000
   4277   4278     1   0.10304 312293.760000
   4277   4279     1   0.10304 312293.760000
   4277   4280     1   0.10304 312293.760000
   4281   4282     1   0.10129 337397.760000
   4283   4285     1   0.10969 276646.080000
   4283   4286     1   0.10969 276646.080000
   4284   4287     1   0.10910 283424.160000
   4284   4288     1   0.10910 283424.160000
   4289   4290     1   0.10304 312293.760000
   4289   4291     1   0.10304 312293.760000
   4289   4292     1   0.10304 312293.760000
   4293   4294     1   0.10129 337397.760000
   4295   4297     1   0.10969 276646.080000
   4295   4298     1   0.10969 276646.080000
   4296   4299     1   0.10910 283424.160000
   4296   4300     1   0.10910 283424.160000
   4301   4302     1   0.10304 312293.760000
   4301   4303     1   0.10304 312293.760000
   4301   4304     1   0.10304 312293.760000
   4305   4306     1   0.10129 337397.760000
   4307   4309     1   0.10969 276646.080000
   4307   4310     1   0.10969 276646.080000
   4308   4311     1   0.10910 283424.160000
   4308   4312     1   0.10910 283424.160000
   4313   4314     1   0.10304 312293.760000
   4313   4315     1   0.10304 312293.760000
   4313   4316     1   0.10304 312293.760000
   4317   4318     1   0.10129 337397.760000
   4319   4321     1   0.10969 276646.080000
   4319   4322     1   0.10969 276646.080000
   4320   4323     1   0.10910 283424.160000
   4320   4324     1   0.10910 283424.160000
   4325   4326     1   0.10304 312293.760000
   4325   4327     1   0.10304 312293.760000
   4325   4328     1   0.10304 312293.760000
   4329   4330     1   0.10129 337397.760000
   4331   4333     1   0.10969 276646.080000
   4331   4334     1   0.10969 276646.080000
   4332   4335     1   0.10910 283424.160000
   4332   4336     1   0.10910 283424.160000
   4337   4338     1   0.10304 312293.760000
   4337   4339     1   0.10304 312293.760000
   4337   4340     1   0.10304 312293.760000
   4341   4342     1   0.10129 337397.760000
   4343   4345     1   0.10969 276646.080000
   4343   4346     1   0.10969 276646.080000
   4344   4347     1   0.10910 283424.160000
   4344   4348     1   0.10910 283424.160000
   4349   4350     1   0.10304 312293.760000
   4349   4351     1   0.10304 312293.760000
   4349   4352     1   0.10304 312293.760000
   4353   4354     1   0.10129 337397.760000
   4355   4357     1   0.10969 276646.080000
   4355   4358     1   0.10969 276646.080000
   4356   4359     1   0.10910 283424.160000
   4356   4360     1   0.10910 283424.160000
   4361   4362     1   0.10304 312293.760000
   4361   4363     1   0.10304 312293.760000
   4361   4364     1   0.10304 312293.760000
   4365   4366     1   0.10129 337397.760000
   4367   4369     1   0.10969 276646.080000
   4367   4370     1   0.10969 276646.080000
   4368   4371     1   0.10910 283424.160000
   4368   4372     1   0.10910 283424.160000
   4373   4374     1   0.10304 312293.760000
   4373   4375     1   0.10304 312293.760000
   4373   4376     1   0.10304 312293.760000
   4377   4378     1   0.10129 337397.760000
   4379   4381     1   0.10969 276646.080000
   4379   4382     1   0.10969 276646.080000
   4380   4383     1   0.10910 283424.160000
   4380   4384     1   0.10910 283424.160000
   4385   4386     1   0.10304 312293.760000
   4385   4387     1   0.10304 312293.760000
   4385   4388     1   0.10304 312293.760000
   4389   4390     1   0.10129 337397.760000
   4391   4393     1   0.10969 276646.080000
   4391   4394     1   0.10969 276646.080000
   4392   4395     1   0.10910 283424.160000
   4392   4396     1   0.10910 283424.160000
   4397   4398     1   0.10304 312293.760000
   4397   4399     1   0.10304 312293.760000
   4397   4400     1   0.10304 312293.760000
   4401   4402     1   0.10129 337397.760000
   4403   4405     1   0.10969 276646.080000
   4403   4406     1   0.10969 276646.080000
   4404   4407     1   0.10910 283424.160000
   4404   4408     1   0.10910 283424.160000
   4409   4410     1   0.10304 312293.760000
   4409   4411     1   0.10304 312293.760000
   4409   4412     1   0.10304 312293.760000
   4413   4414     1   0.10129 337397.760000
   4415   4417     1   0.10969 276646.080000
   4415   4418     1   0.10969 276646.080000
   4416   4419     1   0.10910 283424.160000
   4416   4420     1   0.10910 283424.160000
   4421   4422     1   0.10304 312293.760000
   4421   4423     1   0.10304 312293.760000
   4421   4424     1   0.10304 312293.760000
   4425   4426     1   0.10129 337397.760000
   4427   4429     1   0.10969 276646.080000
   4427   4430     1   0.10969 276646.080000
   4428   4431     1   0.10910 283424.160000
   4428   4432     1   0.10910 283424.160000
   4433   4434     1   0.10304 312293.760000
   4433   4435     1   0.10304 312293.760000
   4433   4436     1   0.10304 312293.760000
   4437   4438     1   0.10129 337397.760000
   4439   4441     1   0.10969 276646.080000
   4439   4442     1   0.10969 276646.080000
   4440   4443     1   0.10910 283424.160000
   4440   4444     1   0.10910 283424.160000
   4445   4446     1   0.10304 312293.760000
   4445   4447     1   0.10304 312293.760000
   4445   4448     1   0.10304 312293.760000
   4449   4450     1   0.10129 337397.760000
   4451   4453     1   0.10969 276646.080000
   4451   4454     1   0.10969 276646.080000
   4452   4455     1   0.10910 283424.160000
   4452   4456     1   0.10910 283424.160000
   4457   4458     1   0.10304 312293.760000
   4457   4459     1   0.10304 312293.760000
   4457   4460     1   0.10304 312293.760000
   4461   4462     1   0.10129 337397.760000
   4463   4465     1   0.10969 276646.080000
   4463   4466     1   0.10969 276646.080000
   4464   4467     1   0.10910 283424.160000
   4464   4468     1   0.10910 283424.160000
   4469   4470     1   0.10304 312293.760000
   4469   4471     1   0.10304 312293.760000
   4469   4472     1   0.10304 312293.760000
   4473   4474     1   0.10129 337397.760000
   4475   4477     1   0.10969 276646.080000
   4475   4478     1   0.10969 276646.080000
   4476   4479     1   0.10910 283424.160000
   4476   4480     1   0.10910 283424.160000
   4481   4482     1   0.10304 312293.760000
   4481   4483     1   0.10304 312293.760000
   4481   4484     1   0.10304 312293.760000
   4485   4486     1   0.10129 337397.760000
   4487   4489     1   0.10969 276646.080000
   4487   4490     1   0.10969 276646.080000
   4488   4491     1   0.10910 283424.160000
   4488   4492     1   0.10910 283424.160000
   4493   4494     1   0.10304 312293.760000
   4493   4495     1   0.10304 312293.760000
   4493   4496     1   0.10304 312293.760000
   4497   4498     1   0.10129 337397.760000
   4499   4501     1   0.10969 276646.080000
   4499   4502     1   0.10969 276646.080000
   4500   4503     1   0.10910 283424.160000
   4500   4504     1   0.10910 283424.160000
   4505   4506     1   0.10304 312293.760000
   4505   4507     1   0.10304 312293.760000
   4505   4508     1   0.10304 312293.760000
   4509   4510     1   0.10129 337397.760000
   4511   4513     1   0.10969 276646.080000
   4511   4514     1   0.10969 276646.080000
   4512   4515     1   0.10910 283424.160000
   4512   4516     1   0.10910 283424.160000
   4517   4518     1   0.10304 312293.760000
   4517   4519     1   0.10304 312293.760000
   4517   4520     1   0.10304 312293.760000
   4521   4522     1   0.10129 337397.760000
   4523   4525     1   0.10969 276646.080000
   4523   4526     1   0.10969 276646.080000
   4524   4527     1   0.10910 283424.160000
   4524   4528     1   0.10910 283424.160000
   4529   4530     1   0.10304 312293.760000
   4529   4531     1   0.10304 312293.760000
   4529   4532     1   0.10304 312293.760000
   4533   4534     1   0.10129 337397.760000
   4535   4537     1   0.10969 276646.080000
   4535   4538     1   0.10969 276646.080000
   4536   4539     1   0.10910 283424.160000
   4536   4540     1   0.10910 283424.160000
   4541   4542     1   0.10304 312293.760000
   4541   4543     1   0.10304 312293.760000
   4541   4544     1   0.10304 312293.760000
   4545   4546     1   0.10129 337397.760000
   4547   4549     1   0.10969 276646.080000
   4547   4550     1   0.10969 276646.080000
   4548   4551     1   0.10910 283424.160000
   4548   4552     1   0.10910 283424.160000
   4553   4554     1   0.10304 312293.760000
   4553   4555     1   0.10304 312293.760000
   4553   4556     1   0.10304 312293.760000
   4557   4558     1   0.10129 337397.760000
   4559   4561     1   0.10969 276646.080000
   4559   4562     1   0.10969 276646.080000
   4560   4563     1   0.10910 283424.160000
   4560   4564     1   0.10910 283424.160000
   4565   4566     1   0.10304 312293.760000
   4565   4567     1   0.10304 312293.760000
   4565   4568     1   0.10304 312293.760000
   4569   4570     1   0.10129 337397.760000
   4571   4573     1   0.10969 276646.080000
   4571   4574     1   0.10969 276646.080000
   4572   4575     1   0.10910 283424.160000
   4572   4576     1   0.10910 283424.160000
   4577   4578     1   0.10304 312293.760000
   4577   4579     1   0.10304 312293.760000
   4577   4580     1   0.10304 312293.760000
   4581   4582     1   0.10129 337397.760000
   4583   4585     1   0.10969 276646.080000
   4583   4586     1   0.10969 276646.080000
   4584   4587     1   0.10910 283424.160000
   4584   4588     1   0.10910 283424.160000
   4589   4590     1   0.10304 312293.760000
   4589   4591     1   0.10304 312293.760000
   4589   4592     1   0.10304 312293.760000
   4593   4594     1   0.10129 337397.760000
   4595   4597     1   0.10969 276646.080000
   4595   4598     1   0.10969 276646.080000
   4596   4599     1   0.10910 283424.160000
   4596   4600     1   0.10910 283424.160000
   4601   4602     1   0.10304 312293.760000
   4601   4603     1   0.10304 312293.760000
   4601   4604     1   0.10304 312293.760000
   4605   4606     1   0.10129 337397.760000
   4607   4609     1   0.10969 276646.080000
   4607   4610     1   0.10969 276646.080000
   4608   4611     1   0.10910 283424.160000
   4608   4612     1   0.10910 283424.160000
   4613   4614     1   0.10304 312293.760000
   4613   4615     1   0.10304 312293.760000
   4613   4616     1   0.10304 312293.760000
   4617   4618     1   0.10129 337397.760000
   4619   4621     1   0.10969 276646.080000
   4619   4622     1   0.10969 276646.080000
   4620   4623     1   0.10910 283424.160000
   4620   4624     1   0.10910 283424.160000
   4625   4626     1   0.10304 312293.760000
   4625   4627     1   0.10304 312293.760000
   4625   4628     1   0.10304 312293.760000
   4629   4630     1   0.10129 337397.760000
   4631   4633     1   0.10969 276646.080000
   4631   4634     1   0.10969 276646.080000
   4632   4635     1   0.10910 283424.160000
   4632   4636     1   0.10910 283424.160000
   4637   4638     1   0.10304 312293.760000
   4637   4639     1   0.10304 312293.760000
   4637   4640     1   0.10304 312293.760000
   4641   4642     1   0.10129 337397.760000
   4643   4645     1   0.10969 276646.080000
   4643   4646     1   0.10969 276646.080000
   4644   4647     1   0.10910 283424.160000
   4644   4648     1   0.10910 283424.160000
   4649   4650     1   0.10304 312293.760000
   4649   4651     1   0.10304 312293.760000
   4649   4652     1   0.10304 312293.760000
   4653   4654     1   0.10129 337397.760000
   4655   4657     1   0.10969 276646.080000
   4655   4658     1   0.10969 276646.080000
   4656   4659     1   0.10910 283424.160000
   4656   4660     1   0.10910 283424.160000
   4661   4662     1   0.10304 312293.760000
   4661   4663     1   0.10304 312293.760000
   4661   4664     1   0.10304 312293.760000
   4665   4666     1   0.10129 337397.760000
   4667   4669     1   0.10969 276646.080000
   4667   4670     1   0.10969 276646.080000
   4668   4671     1   0.10910 283424.160000
   4668   4672     1   0.10910 283424.160000
   4673   4674     1   0.10304 312293.760000
   4673   4675     1   0.10304 312293.760000
   4673   4676     1   0.10304 312293.760000

[ pairs ]
;    ai     aj funct         c0         c1         c2         c3
      1     15     1
      1     18     1
      1     30     1
      1     27     1
      4      9     1
      4     12     1
      4     21     1
      4     24     1
      8      7     1
      7     35     1
      7     36     1
      8     34     1
      8     33     1
      9     27     1
      9     40     1
      9     89     1
     12     30     1
     12     37     1
     12     64     1
     15     24     1
     15     38     1
     15    114     1
     18     21     1
     18     39     1
     18    139     1
     21     94     1
     24    119     1
     27     44     1
     30     69     1
     33     41     1
     34     66     1
     35     91     1
     36    116     1
     37     44     1
     38     94     1
     39    119     1
     40     69     1
     41     57     1
     41     54     1
     44     48     1
     44     51     1
     47     64     1
     47     61     1
     47     60     1
     48     54     1
     48     63     1
     48    189     1
     51     57     1
     51     62     1
     51    164     1
     54    144     1
     57    169     1
     60    141     1
     61    166     1
     62    144     1
     63    169     1
     66     82     1
     66     79     1
     69     73     1
     69     76     1
     72     89     1
     72     86     1
     72     85     1
     73     79     1
     73     88     1
     73    239     1
     76     82     1
     76     87     1
     76    214     1
     79    194     1
     82    219     1
     85    191     1
     86    216     1
     87    194     1
     88    219     1
     91    107     1
     91    104     1
     94     98     1
     94    101     1
     97    114     1
     97    111     1
     97    110     1
     98    104     1
     98    113     1
     98    289     1
    101    107     1
    101    112     1
    101    264     1
    104    244     1
    107    269     1
    110    241     1
    111    266     1
    112    244     1
    113    269     1
    116    132     1
    116    129     1
    119    123     1
    119    126     1
    122    139     1
    122    136     1
    122    135     1
    123    129     1
    123    138     1
    123    339     1
    126    132     1
    126    137     1
    126    314     1
    129    294     1
    132    319     1
    135    291     1
    136    316     1
    137    294     1
    138    319     1
    141    157     1
    141    154     1
    144    148     1
    144    151     1
    147    164     1
    147    161     1
    147    160     1
    148    154     1
    148    163     1
    148    389     1
    151    157     1
    151    162     1
    151    364     1
    154    344     1
    157    369     1
    160    341     1
    161    366     1
    162    344     1
    163    369     1
    166    182     1
    166    179     1
    169    173     1
    169    176     1
    172    189     1
    172    186     1
    172    185     1
    173    179     1
    173    188     1
    173    439     1
    176    182     1
    176    187     1
    176    414     1
    179    394     1
    182    419     1
    185    391     1
    186    416     1
    187    394     1
    188    419     1
    191    207     1
    191    204     1
    194    198     1
    194    201     1
    197    214     1
    197    211     1
    197    210     1
    198    204     1
    198    213     1
    198    489     1
    201    207     1
    201    212     1
    201    464     1
    204    444     1
    207    469     1
    210    441     1
    211    466     1
    212    444     1
    213    469     1
    216    232     1
    216    229     1
    219    223     1
    219    226     1
    222    239     1
    222    236     1
    222    235     1
    223    229     1
    223    238     1
    223    539     1
    226    232     1
    226    237     1
    226    514     1
    229    494     1
    232    519     1
    235    491     1
    236    516     1
    237    494     1
    238    519     1
    241    257     1
    241    254     1
    244    248     1
    244    251     1
    247    264     1
    247    261     1
    247    260     1
    248    254     1
    248    263     1
    248    589     1
    251    257     1
    251    262     1
    251    564     1
    254    544     1
    257    569     1
    260    541     1
    261    566     1
    262    544     1
    263    569     1
    266    282     1
    266    279     1
    269    273     1
    269    276     1
    272    289     1
    272    286     1
    272    285     1
    273    279     1
    273    288     1
    273    639     1
    276    282     1
    276    287     1
    276    614     1
    279    594     1
    282    619     1
    285    591     1
    286    616     1
    287    594     1
    288    619     1
    291    307     1
    291    304     1
    294    298     1
    294    301     1
    297    314     1
    297    311     1
    297    310     1
    298    304     1
    298    313     1
    298    689     1
    301    307     1
    301    312     1
    301    664     1
    304    644     1
    307    669     1
    310    641     1
    311    666     1
    312    644     1
    313    669     1
    316    332     1
    316    329     1
    319    323     1
    319    326     1
    322    339     1
    322    336     1
    322    335     1
    323    329     1
    323    338     1
    323    739     1
    326    332     1
    326    337     1
    326    714     1
    329    694     1
    332    719     1
    335    691     1
    336    716     1
    337    694     1
    338    719     1
    341    357     1
    341    354     1
    344    348     1
    344    351     1
    347    364     1
    347    361     1
    347    360     1
    348    354     1
    348    363     1
    348    789     1
    351    357     1
    351    362     1
    351    764     1
    354    744     1
    357    769     1
    360    741     1
    361    766     1
    362    744     1
    363    769     1
    366    382     1
    366    379     1
    369    373     1
    369    376     1
    372    389     1
    372    386     1
    372    385     1
    373    379     1
    373    388     1
    373    839     1
    376    382     1
    376    387     1
    376    814     1
    379    794     1
    382    819     1
    385    791     1
    386    816     1
    387    794     1
    388    819     1
    391    407     1
    391    404     1
    394    398     1
    394    401     1
    397    414     1
    397    411     1
    397    410     1
    398    404     1
    398    413     1
    398    889     1
    401    407     1
    401    412     1
    401    864     1
    404    844     1
    407    869     1
    410    841     1
    411    866     1
    412    844     1
    413    869     1
    416    432     1
    416    429     1
    419    423     1
    419    426     1
    422    439     1
    422    436     1
    422    435     1
    423    429     1
    423    438     1
    423    939     1
    426    432     1
    426    437     1
    426    914     1
    429    894     1
    432    919     1
    435    891     1
    436    916     1
    437    894     1
    438    919     1
    441    457     1
    441    454     1
    444    448     1
    444    451     1
    447    464     1
    447    461     1
    447    460     1
    448    454     1
    448    463     1
    448    989     1
    451    457     1
    451    462     1
    451    964     1
    454    944     1
    457    969     1
    460    941     1
    461    966     1
    462    944     1
    463    969     1
    466    482     1
    466    479     1
    469    473     1
    469    476     1
    472    489     1
    472    486     1
    472    485     1
    473    479     1
    473    488     1
    473   1039     1
    476    482     1
    476    487     1
    476   1014     1
    479    994     1
    482   1019     1
    485    991     1
    486   1016     1
    487    994     1
    488   1019     1
    491    507     1
    491    504     1
    494    498     1
    494    501     1
    497    514     1
    497    511     1
    497    510     1
    498    504     1
    498    513     1
    498   1089     1
    501    507     1
    501    512     1
    501   1064     1
    504   1044     1
    507   1069     1
    510   1041     1
    511   1066     1
    512   1044     1
    513   1069     1
    516    532     1
    516    529     1
    519    523     1
    519    526     1
    522    539     1
    522    536     1
    522    535     1
    523    529     1
    523    538     1
    523   1139     1
    526    532     1
    526    537     1
    526   1114     1
    529   1094     1
    532   1119     1
    535   1091     1
    536   1116     1
    537   1094     1
    538   1119     1
    541    557     1
    541    554     1
    544    548     1
    544    551     1
    547    564     1
    547    561     1
    547    560     1
    548    554     1
    548    563     1
    548   1189     1
    551    557     1
    551    562     1
    551   1164     1
    554   1144     1
    557   1169     1
    560   1141     1
    561   1166     1
    562   1144     1
    563   1169     1
    566    582     1
    566    579     1
    569    573     1
    569    576     1
    572    589     1
    572    586     1
    572    585     1
    573    579     1
    573    588     1
    573   1239     1
    576    582     1
    576    587     1
    576   1214     1
    579   1194     1
    582   1219     1
    585   1191     1
    586   1216     1
    587   1194     1
    588   1219     1
    591    607     1
    591    604     1
    594    598     1
    594    601     1
    597    614     1
    597    611     1
    597    610     1
    598    604     1
    598    613     1
    598   1289     1
    601    607     1
    601    612     1
    601   1264     1
    604   1244     1
    607   1269     1
    610   1241     1
    611   1266     1
    612   1244     1
    613   1269     1
    616    632     1
    616    629     1
    619    623     1
    619    626     1
    622    639     1
    622    636     1
    622    635     1
    623    629     1
    623    638     1
    623   1339     1
    626    632     1
    626    637     1
    626   1314     1
    629   1294     1
    632   1319     1
    635   1291     1
    636   1316     1
    637   1294     1
    638   1319     1
    641    657     1
    641    654     1
    644    648     1
    644    651     1
    647    664     1
    647    661     1
    647    660     1
    648    654     1
    648    663     1
    648   1389     1
    651    657     1
    651    662     1
    651   1364     1
    654   1344     1
    657   1369     1
    660   1341     1
    661   1366     1
    662   1344     1
    663   1369     1
    666    682     1
    666    679     1
    669    673     1
    669    676     1
    672    689     1
    672    686     1
    672    685     1
    673    679     1
    673    688     1
    673   1439     1
    676    682     1
    676    687     1
    676   1414     1
    679   1394     1
    682   1419     1
    685   1391     1
    686   1416     1
    687   1394     1
    688   1419     1
    691    707     1
    691    704     1
    694    698     1
    694    701     1
    697    714     1
    697    711     1
    697    710     1
    698    704     1
    698    713     1
    698   1489     1
    701    707     1
    701    712     1
    701   1464     1
    704   1444     1
    707   1469     1
    710   1441     1
    711   1466     1
    712   1444     1
    713   1469     1
    716    732     1
    716    729     1
    719    723     1
    719    726     1
    722    739     1
    722    736     1
    722    735     1
    723    729     1
    723    738     1
    723   1539     1
    726    732     1
    726    737     1
    726   1514     1
    729   1494     1
    732   1519     1
    735   1491     1
    736   1516     1
    737   1494     1
    738   1519     1
    741    757     1
    741    754     1
    744    748     1
    744    751     1
    747    764     1
    747    761     1
    747    760     1
    748    754     1
    748    763     1
    748   1589     1
    751    757     1
    751    762     1
    751   1564     1
    754   1544     1
    757   1569     1
    760   1541     1
    761   1566     1
    762   1544     1
    763   1569     1
    766    782     1
    766    779     1
    769    773     1
    769    776     1
    772    789     1
    772    786     1
    772    785     1
    773    779     1
    773    788     1
    773   1639     1
    776    782     1
    776    787     1
    776   1614     1
    779   1594     1
    782   1619     1
    785   1591     1
    786   1616     1
    787   1594     1
    788   1619     1
    791    807     1
    791    804     1
    794    798     1
    794    801     1
    797    814     1
    797    811     1
    797    810     1
    798    804     1
    798    813     1
    798   1689     1
    801    807     1
    801    812     1
    801   1664     1
    804   1644     1
    807   1669     1
    810   1641     1
    811   1666     1
    812   1644     1
    813   1669     1
    816    832     1
    816    829     1
    819    823     1
    819    826     1
    822    839     1
    822    836     1
    822    835     1
    823    829     1
    823    838     1
    823   1739     1
    826    832     1
    826    837     1
    826   1714     1
    829   1694     1
    832   1719     1
    835   1691     1
    836   1716     1
    837   1694     1
    838   1719     1
    841    857     1
    841    854     1
    844    848     1
    844    851     1
    847    864     1
    847    861     1
    847    860     1
    848    854     1
    848    863     1
    848   1789     1
    851    857     1
    851    862     1
    851   1764     1
    854   1744     1
    857   1769     1
    860   1741     1
    861   1766     1
    862   1744     1
    863   1769     1
    866    882     1
    866    879     1
    869    873     1
    869    876     1
    872    889     1
    872    886     1
    872    885     1
    873    879     1
    873    888     1
    873   1839     1
    876    882     1
    876    887     1
    876   1814     1
    879   1794     1
    882   1819     1
    885   1791     1
    886   1816     1
    887   1794     1
    888   1819     1
    891    907     1
    891    904     1
    894    898     1
    894    901     1
    897    914     1
    897    911     1
    897    910     1
    898    904     1
    898    913     1
    898   1889     1
    901    907     1
    901    912     1
    901   1864     1
    904   1844     1
    907   1869     1
    910   1841     1
    911   1866     1
    912   1844     1
    913   1869     1
    916    932     1
    916    929     1
    919    923     1
    919    926     1
    922    939     1
    922    936     1
    922    935     1
    923    929     1
    923    938     1
    923   1939     1
    926    932     1
    926    937     1
    926   1914     1
    929   1894     1
    932   1919     1
    935   1891     1
    936   1916     1
    937   1894     1
    938   1919     1
    941    957     1
    941    954     1
    944    948     1
    944    951     1
    947    964     1
    947    961     1
    947    960     1
    948    954     1
    948    963     1
    948   1989     1
    951    957     1
    951    962     1
    951   1964     1
    954   1944     1
    957   1969     1
    960   1941     1
    961   1966     1
    962   1944     1
    963   1969     1
    966    982     1
    966    979     1
    969    973     1
    969    976     1
    972    989     1
    972    986     1
    972    985     1
    973    979     1
    973    988     1
    973   2039     1
    976    982     1
    976    987     1
    976   2014     1
    979   1994     1
    982   2019     1
    985   1991     1
    986   2016     1
    987   1994     1
    988   2019     1
    991   1007     1
    991   1004     1
    994    998     1
    994   1001     1
    997   1014     1
    997   1011     1
    997   1010     1
    998   1004     1
    998   1013     1
    998   2089     1
   1001   1007     1
   1001   1012     1
   1001   2064     1
   1004   2044     1
   1007   2069     1
   1010   2041     1
   1011   2066     1
   1012   2044     1
   1013   2069     1
   1016   1032     1
   1016   1029     1
   1019   1023     1
   1019   1026     1
   1022   1039     1
   1022   1036     1
   1022   1035     1
   1023   1029     1
   1023   1038     1
   1023   2139     1
   1026   1032     1
   1026   1037     1
   1026   2114     1
   1029   2094     1
   1032   2119     1
   1035   2091     1
   1036   2116     1
   1037   2094     1
   1038   2119     1
   1041   1057     1
   1041   1054     1
   1044   1048     1
   1044   1051     1
   1047   1064     1
   1047   1061     1
   1047   1060     1
   1048   1054     1
   1048   1063     1
   1048   2189     1
   1051   1057     1
   1051   1062     1
   1051   2164     1
   1054   2144     1
   1057   2169     1
   1060   2141     1
   1061   2166     1
   1062   2144     1
   1063   2169     1
   1066   1082     1
   1066   1079     1
   1069   1073     1
   1069   1076     1
   1072   1089     1
   1072   1086     1
   1072   1085     1
   1073   1079     1
   1073   1088     1
   1073   2239     1
   1076   1082     1
   1076   1087     1
   1076   2214     1
   1079   2194     1
   1082   2219     1
   1085   2191     1
   1086   2216     1
   1087   2194     1
   1088   2219     1
   1091   1107     1
   1091   1104     1
   1094   1098     1
   1094   1101     1
   1097   1114     1
   1097   1111     1
   1097   1110     1
   1098   1104     1
   1098   1113     1
   1098   2289     1
   1101   1107     1
   1101   1112     1
   1101   2264     1
   1104   2244     1
   1107   2269     1
   1110   2241     1
   1111   2266     1
   1112   2244     1
   1113   2269     1
   1116   1132     1
   1116   1129     1
   1119   1123     1
   1119   1126     1
   1122   1139     1
   1122   1136     1
   1122   1135     1
   1123   1129     1
   1123   1138     1
   1123   2339     1
   1126   1132     1
   1126   1137     1
   1126   2314     1
   1129   2294     1
   1132   2319     1
   1135   2291     1
   1136   2316     1
   1137   2294     1
   1138   2319     1
   1141   1157     1
   1141   1154     1
   1144   1148     1
   1144   1151     1
   1147   1164     1
   1147   1161     1
   1147   1160     1
   1148   1154     1
   1148   1163     1
   1148   2389     1
   1151   1157     1
   1151   1162     1
   1151   2364     1
   1154   2344     1
   1157   2369     1
   1160   2341     1
   1161   2366     1
   1162   2344     1
   1163   2369     1
   1166   1182     1
   1166   1179     1
   1169   1173     1
   1169   1176     1
   1172   1189     1
   1172   1186     1
   1172   1185     1
   1173   1179     1
   1173   1188     1
   1173   2439     1
   1176   1182     1
   1176   1187     1
   1176   2414     1
   1179   2394     1
   1182   2419     1
   1185   2391     1
   1186   2416     1
   1187   2394     1
   1188   2419     1
   1191   1207     1
   1191   1204     1
   1194   1198     1
   1194   1201     1
   1197   1214     1
   1197   1211     1
   1197   1210     1
   1198   1204     1
   1198   1213     1
   1198   2489     1
   1201   1207     1
   1201   1212     1
   1201   2464     1
   1204   2444     1
   1207   2469     1
   1210   2441     1
   1211   2466     1
   1212   2444     1
   1213   2469     1
   1216   1232     1
   1216   1229     1
   1219   1223     1
   1219   1226     1
   1222   1239     1
   1222   1236     1
   1222   1235     1
   1223   1229     1
   1223   1238     1
   1223   2539     1
   1226   1232     1
   1226   1237     1
   1226   2514     1
   1229   2494     1
   1232   2519     1
   1235   2491     1
   1236   2516     1
   1237   2494     1
   1238   2519     1
   1241   1257     1
   1241   1254     1
   1244   1248     1
   1244   1251     1
   1247   1264     1
   1247   1261     1
   1247   1260     1
   1248   1254     1
   1248   1263     1
   1248   2589     1
   1251   1257     1
   1251   1262     1
   1251   2564     1
   1254   2544     1
   1257   2569     1
   1260   2541     1
   1261   2566     1
   1262   2544     1
   1263   2569     1
   1266   1282     1
   1266   1279     1
   1269   1273     1
   1269   1276     1
   1272   1289     1
   1272   1286     1
   1272   1285     1
   1273   1279     1
   1273   1288     1
   1273   2639     1
   1276   1282     1
   1276   1287     1
   1276   2614     1
   1279   2594     1
   1282   2619     1
   1285   2591     1
   1286   2616     1
   1287   2594     1
   1288   2619     1
   1291   1307     1
   1291   1304     1
   1294   1298     1
   1294   1301     1
   1297   1314     1
   1297   1311     1
   1297   1310     1
   1298   1304     1
   1298   1313     1
   1298   2689     1
   1301   1307     1
   1301   1312     1
   1301   2664     1
   1304   2644     1
   1307   2669     1
   1310   2641     1
   1311   2666     1
   1312   2644     1
   1313   2669     1
   1316   1332     1
   1316   1329     1
   1319   1323     1
   1319   1326     1
   1322   1339     1
   1322   1336     1
   1322   1335     1
   1323   1329     1
   1323   1338     1
   1323   2739     1
   1326   1332     1
   1326   1337     1
   1326   2714     1
   1329   2694     1
   1332   2719     1
   1335   2691     1
   1336   2716     1
   1337   2694     1
   1338   2719     1
   1341   1357     1
   1341   1354     1
   1344   1348     1
   1344   1351     1
   1347   1364     1
   1347   1361     1
   1347   1360     1
   1348   1354     1
   1348   1363     1
   1348   2789     1
   1351   1357     1
   1351   1362     1
   1351   2764     1
   1354   2744     1
   1357   2769     1
   1360   2741     1
   1361   2766     1
   1362   2744     1
   1363   2769     1
   1366   1382     1
   1366   1379     1
   1369   1373     1
   1369   1376     1
   1372   1389     1
   1372   1386     1
   1372   1385     1
   1373   1379     1
   1373   1388     1
   1373   2839     1
   1376   1382     1
   1376   1387     1
   1376   2814     1
   1379   2794     1
   1382   2819     1
   1385   2791     1
   1386   2816     1
   1387   2794     1
   1388   2819     1
   1391   1407     1
   1391   1404     1
   1394   1398     1
   1394   1401     1
   1397   1414     1
   1397   1411     1
   1397   1410     1
   1398   1404     1
   1398   1413     1
   1398   2889     1
   1401   1407     1
   1401   1412     1
   1401   2864     1
   1404   2844     1
   1407   2869     1
   1410   2841     1
   1411   2866     1
   1412   2844     1
   1413   2869     1
   1416   1432     1
   1416   1429     1
   1419   1423     1
   1419   1426     1
   1422   1439     1
   1422   1436     1
   1422   1435     1
   1423   1429     1
   1423   1438     1
   1423   2939     1
   1426   1432     1
   1426   1437     1
   1426   2914     1
   1429   2894     1
   1432   2919     1
   1435   2891     1
   1436   2916     1
   1437   2894     1
   1438   2919     1
   1441   1457     1
   1441   1454     1
   1444   1448     1
   1444   1451     1
   1447   1464     1
   1447   1461     1
   1447   1460     1
   1448   1454     1
   1448   1463     1
   1448   2989     1
   1451   1457     1
   1451   1462     1
   1451   2964     1
   1454   2944     1
   1457   2969     1
   1460   2941     1
   1461   2966     1
   1462   2944     1
   1463   2969     1
   1466   1482     1
   1466   1479     1
   1469   1473     1
   1469   1476     1
   1472   1489     1
   1472   1486     1
   1472   1485     1
   1473   1479     1
   1473   1488     1
   1473   3039     1
   1476   1482     1
   1476   1487     1
   1476   3014     1
   1479   2994     1
   1482   3019     1
   1485   2991     1
   1486   3016     1
   1487   2994     1
   1488   3019     1
   1491   1507     1
   1491   1504     1
   1494   1498     1
   1494   1501     1
   1497   1514     1
   1497   1511     1
   1497   1510     1
   1498   1504     1
   1498   1513     1
   1498   3089     1
   1501   1507     1
   1501   1512     1
   1501   3064     1
   1504   3044     1
   1507   3069     1
   1510   3041     1
   1511   3066     1
   1512   3044     1
   1513   3069     1
   1516   1532     1
   1516   1529     1
   1519   1523     1
   1519   1526     1
   1522   1539     1
   1522   1536     1
   1522   1535     1
   1523   1529     1
   1523   1538     1
   1523   3139     1
   1526   1532     1
   1526   1537     1
   1526   3114     1
   1529   3094     1
   1532   3119     1
   1535   3091     1
   1536   3116     1
   1537   3094     1
   1538   3119     1
   1541   1557     1
   1541   1554     1
   1544   1548     1
   1544   1551     1
   1547   1564     1
   1547   1561     1
   1547   1560     1
   1548   1554     1
   1548   1563     1
   1548   3153     1
   1551   1557     1
   1551   3141     1
   1551   1562     1
   1554   3143     1
   1557   3155     1
   1560   3144     1
   1561   3156     1
   1562   3143     1
   1563   3155     1
   1566   1582     1
   1566   1579     1
   1569   1573     1
   1569   1576     1
   1572   1589     1
   1572   1586     1
   1572   1585     1
   1573   1579     1
   1573   1588     1
   1573   3177     1
   1576   1582     1
   1576   3165     1
   1576   1587     1
   1579   3167     1
   1582   3179     1
   1585   3168     1
   1586   3180     1
   1587   3167     1
   1588   3179     1
   1591   1607     1
   1591   1604     1
   1594   1598     1
   1594   1601     1
   1597   1614     1
   1597   1611     1
   1597   1610     1
   1598   1604     1
   1598   1613     1
   1598   3201     1
   1601   1607     1
   1601   3189     1
   1601   1612     1
   1604   3191     1
   1607   3203     1
   1610   3192     1
   1611   3204     1
   1612   3191     1
   1613   3203     1
   1616   1632     1
   1616   1629     1
   1619   1623     1
   1619   1626     1
   1622   1639     1
   1622   1636     1
   1622   1635     1
   1623   1629     1
   1623   1638     1
   1623   3225     1
   1626   1632     1
   1626   3213     1
   1626   1637     1
   1629   3215     1
   1632   3227     1
   1635   3216     1
   1636   3228     1
   1637   3215     1
   1638   3227     1
   1641   1657     1
   1641   1654     1
   1644   1648     1
   1644   1651     1
   1647   1664     1
   1647   1661     1
   1647   1660     1
   1648   1654     1
   1648   1663     1
   1648   3249     1
   1651   1657     1
   1651   3237     1
   1651   1662     1
   1654   3239     1
   1657   3251     1
   1660   3240     1
   1661   3252     1
   1662   3239     1
   1663   3251     1
   1666   1682     1
   1666   1679     1
   1669   1673     1
   1669   1676     1
   1672   1689     1
   1672   1686     1
   1672   1685     1
   1673   1679     1
   1673   1688     1
   1673   3273     1
   1676   1682     1
   1676   3261     1
   1676   1687     1
   1679   3263     1
   1682   3275     1
   1685   3264     1
   1686   3276     1
   1687   3263     1
   1688   3275     1
   1691   1707     1
   1691   1704     1
   1694   1698     1
   1694   1701     1
   1697   1714     1
   1697   1711     1
   1697   1710     1
   1698   1704     1
   1698   1713     1
   1698   3297     1
   1701   1707     1
   1701   3285     1
   1701   1712     1
   1704   3287     1
   1707   3299     1
   1710   3288     1
   1711   3300     1
   1712   3287     1
   1713   3299     1
   1716   1732     1
   1716   1729     1
   1719   1723     1
   1719   1726     1
   1722   1739     1
   1722   1736     1
   1722   1735     1
   1723   1729     1
   1723   1738     1
   1723   3321     1
   1726   1732     1
   1726   3309     1
   1726   1737     1
   1729   3311     1
   1732   3323     1
   1735   3312     1
   1736   3324     1
   1737   3311     1
   1738   3323     1
   1741   1757     1
   1741   1754     1
   1744   1748     1
   1744   1751     1
   1747   1764     1
   1747   1761     1
   1747   1760     1
   1748   1754     1
   1748   1763     1
   1748   3345     1
   1751   1757     1
   1751   3333     1
   1751   1762     1
   1754   3335     1
   1757   3347     1
   1760   3336     1
   1761   3348     1
   1762   3335     1
   1763   3347     1
   1766   1782     1
   1766   1779     1
   1769   1773     1
   1769   1776     1
   1772   1789     1
   1772   1786     1
   1772   1785     1
   1773   1779     1
   1773   1788     1
   1773   3369     1
   1776   1782     1
   1776   3357     1
   1776   1787     1
   1779   3359     1
   1782   3371     1
   1785   3360     1
   1786   3372     1
   1787   3359     1
   1788   3371     1
   1791   1807     1
   1791   1804     1
   1794   1798     1
   1794   1801     1
   1797   1814     1
   1797   1811     1
   1797   1810     1
   1798   1804     1
   1798   1813     1
   1798   3393     1
   1801   1807     1
   1801   3381     1
   1801   1812     1
   1804   3383     1
   1807   3395     1
   1810   3384     1
   1811   3396     1
   1812   3383     1
   1813   3395     1
   1816   1832     1
   1816   1829     1
   1819   1823     1
   1819   1826     1
   1822   1839     1
   1822   1836     1
   1822   1835     1
   1823   1829     1
   1823   1838     1
   1823   3417     1
   1826   1832     1
   1826   3405     1
   1826   1837     1
   1829   3407     1
   1832   3419     1
   1835   3408     1
   1836   3420     1
   1837   3407     1
   1838   3419     1
   1841   1857     1
   1841   1854     1
   1844   1848     1
   1844   1851     1
   1847   1864     1
   1847   1861     1
   1847   1860     1
   1848   1854     1
   1848   1863     1
   1848   3441     1
   1851   1857     1
   1851   3429     1
   1851   1862     1
   1854   3431     1
   1857   3443     1
   1860   3432     1
   1861   3444     1
   1862   3431     1
   1863   3443     1
   1866   1882     1
   1866   1879     1
   1869   1873     1
   1869   1876     1
   1872   1889     1
   1872   1886     1
   1872   1885     1
   1873   1879     1
   1873   1888     1
   1873   3465     1
   1876   1882     1
   1876   3453     1
   1876   1887     1
   1879   3455     1
   1882   3467     1
   1885   3456     1
   1886   3468     1
   1887   3455     1
   1888   3467     1
   1891   1907     1
   1891   1904     1
   1894   1898     1
   1894   1901     1
   1897   1914     1
   1897   1911     1
   1897   1910     1
   1898   1904     1
   1898   1913     1
   1898   3489     1
   1901   1907     1
   1901   3477     1
   1901   1912     1
   1904   3479     1
   1907   3491     1
   1910   3480     1
   1911   3492     1
   1912   3479     1
   1913   3491     1
   1916   1932     1
   1916   1929     1
   1919   1923     1
   1919   1926     1
   1922   1939     1
   1922   1936     1
   1922   1935     1
   1923   1929     1
   1923   1938     1
   1923   3513     1
   1926   1932     1
   1926   3501     1
   1926   1937     1
   1929   3503     1
   1932   3515     1
   1935   3504     1
   1936   3516     1
   1937   3503     1
   1938   3515     1
   1941   1957     1
   1941   1954     1
   1944   1948     1
   1944   1951     1
   1947   1964     1
   1947   1961     1
   1947   1960     1
   1948   1954     1
   1948   1963     1
   1948   3537     1
   1951   1957     1
   1951   3525     1
   1951   1962     1
   1954   3527     1
   1957   3539     1
   1960   3528     1
   1961   3540     1
   1962   3527     1
   1963   3539     1
   1966   1982     1
   1966   1979     1
   1969   1973     1
   1969   1976     1
   1972   1989     1
   1972   1986     1
   1972   1985     1
   1973   1979     1
   1973   1988     1
   1973   3561     1
   1976   1982     1
   1976   3549     1
   1976   1987     1
   1979   3551     1
   1982   3563     1
   1985   3552     1
   1986   3564     1
   1987   3551     1
   1988   3563     1
   1991   2007     1
   1991   2004     1
   1994   1998     1
   1994   2001     1
   1997   2014     1
   1997   2011     1
   1997   2010     1
   1998   2004     1
   1998   2013     1
   1998   3585     1
   2001   2007     1
   2001   3573     1
   2001   2012     1
   2004   3575     1
   2007   3587     1
   2010   3576     1
   2011   3588     1
   2012   3575     1
   2013   3587     1
   2016   2032     1
   2016   2029     1
   2019   2023     1
   2019   2026     1
   2022   2039     1
   2022   2036     1
   2022   2035     1
   2023   2029     1
   2023   2038     1
   2023   3609     1
   2026   2032     1
   2026   3597     1
   2026   2037     1
   2029   3599     1
   2032   3611     1
   2035   3600     1
   2036   3612     1
   2037   3599     1
   2038   3611     1
   2041   2057     1
   2041   2054     1
   2044   2048     1
   2044   2051     1
   2047   2064     1
   2047   2061     1
   2047   2060     1
   2048   2054     1
   2048   2063     1
   2048   3633     1
   2051   2057     1
   2051   3621     1
   2051   2062     1
   2054   3623     1
   2057   3635     1
   2060   3624     1
   2061   3636     1
   2062   3623     1
   2063   3635     1
   2066   2082     1
   2066   2079     1
   2069   2073     1
   2069   2076     1
   2072   2089     1
   2072   2086     1
   2072   2085     1
   2073   2079     1
   2073   2088     1
   2073   3657     1
   2076   2082     1
   2076   3645     1
   2076   2087     1
   2079   3647     1
   2082   3659     1
   2085   3648     1
   2086   3660     1
   2087   3647     1
   2088   3659     1
   2091   2107     1
   2091   2104     1
   2094   2098     1
   2094   2101     1
   2097   2114     1
   2097   2111     1
   2097   2110     1
   2098   2104     1
   2098   2113     1
   2098   3681     1
   2101   2107     1
   2101   3669     1
   2101   2112     1
   2104   3671     1
   2107   3683     1
   2110   3672     1
   2111   3684     1
   2112   3671     1
   2113   3683     1
   2116   2132     1
   2116   2129     1
   2119   2123     1
   2119   2126     1
   2122   2139     1
   2122   2136     1
   2122   2135     1
   2123   2129     1
   2123   2138     1
   2123   3705     1
   2126   2132     1
   2126   3693     1
   2126   2137     1
   2129   3695     1
   2132   3707     1
   2135   3696     1
   2136   3708     1
   2137   3695     1
   2138   3707     1
   2141   2157     1
   2141   2154     1
   2144   2148     1
   2144   2151     1
   2147   2164     1
   2147   2161     1
   2147   2160     1
   2148   2154     1
   2148   2163     1
   2148   3729     1
   2151   2157     1
   2151   3717     1
   2151   2162     1
   2154   3719     1
   2157   3731     1
   2160   3720     1
   2161   3732     1
   2162   3719     1
   2163   3731     1
   2166   2182     1
   2166   2179     1
   2169   2173     1
   2169   2176     1
   2172   2189     1
   2172   2186     1
   2172   2185     1
   2173   2179     1
   2173   2188     1
   2173   3753     1
   2176   2182     1
   2176   3741     1
   2176   2187     1
   2179   3743     1
   2182   3755     1
   2185   3744     1
   2186   3756     1
   2187   3743     1
   2188   3755     1
   2191   2207     1
   2191   2204     1
   2194   2198     1
   2194   2201     1
   2197   2214     1
   2197   2211     1
   2197   2210     1
   2198   2204     1
   2198   2213     1
   2198   3777     1
   2201   2207     1
   2201   3765     1
   2201   2212     1
   2204   3767     1
   2207   3779     1
   2210   3768     1
   2211   3780     1
   2212   3767     1
   2213   3779     1
   2216   2232     1
   2216   2229     1
   2219   2223     1
   2219   2226     1
   2222   2239     1
   2222   2236     1
   2222   2235     1
   2223   2229     1
   2223   2238     1
   2223   3801     1
   2226   2232     1
   2226   3789     1
   2226   2237     1
   2229   3791     1
   2232   3803     1
   2235   3792     1
   2236   3804     1
   2237   3791     1
   2238   3803     1
   2241   2257     1
   2241   2254     1
   2244   2248     1
   2244   2251     1
   2247   2264     1
   2247   2261     1
   2247   2260     1
   2248   2254     1
   2248   2263     1
   2248   3825     1
   2251   2257     1
   2251   3813     1
   2251   2262     1
   2254   3815     1
   2257   3827     1
   2260   3816     1
   2261   3828     1
   2262   3815     1
   2263   3827     1
   2266   2282     1
   2266   2279     1
   2269   2273     1
   2269   2276     1
   2272   2289     1
   2272   2286     1
   2272   2285     1
   2273   2279     1
   2273   2288     1
   2273   3849     1
   2276   2282     1
   2276   3837     1
   2276   2287     1
   2279   3839     1
   2282   3851     1
   2285   3840     1
   2286   3852     1
   2287   3839     1
   2288   3851     1
   2291   2307     1
   2291   2304     1
   2294   2298     1
   2294   2301     1
   2297   2314     1
   2297   2311     1
   2297   2310     1
   2298   2304     1
   2298   2313     1
   2298   3873     1
   2301   2307     1
   2301   3861     1
   2301   2312     1
   2304   3863     1
   2307   3875     1
   2310   3864     1
   2311   3876     1
   2312   3863     1
   2313   3875     1
   2316   2332     1
   2316   2329     1
   2319   2323     1
   2319   2326     1
   2322   2339     1
   2322   2336     1
   2322   2335     1
   2323   2329     1
   2323   2338     1
   2323   3897     1
   2326   2332     1
   2326   3885     1
   2326   2337     1
   2329   3887     1
   2332   3899     1
   2335   3888     1
   2336   3900     1
   2337   3887     1
   2338   3899     1
   2341   2357     1
   2341   2354     1
   2344   2348     1
   2344   2351     1
   2347   2364     1
   2347   2361     1
   2347   2360     1
   2348   2354     1
   2348   2363     1
   2348   3921     1
   2351   2357     1
   2351   3909     1
   2351   2362     1
   2354   3911     1
   2357   3923     1
   2360   3912     1
   2361   3924     1
   2362   3911     1
   2363   3923     1
   2366   2382     1
   2366   2379     1
   2369   2373     1
   2369   2376     1
   2372   2389     1
   2372   2386     1
   2372   2385     1
   2373   2379     1
   2373   2388     1
   2373   3945     1
   2376   2382     1
   2376   3933     1
   2376   2387     1
   2379   3935     1
   2382   3947     1
   2385   3936     1
   2386   3948     1
   2387   3935     1
   2388   3947     1
   2391   2407     1
   2391   2404     1
   2394   2398     1
   2394   2401     1
   2397   2414     1
   2397   2411     1
   2397   2410     1
   2398   2404     1
   2398   2413     1
   2398   3969     1
   2401   2407     1
   2401   3957     1
   2401   2412     1
   2404   3959     1
   2407   3971     1
   2410   3960     1
   2411   3972     1
   2412   3959     1
   2413   3971     1
   2416   2432     1
   2416   2429     1
   2419   2423     1
   2419   2426     1
   2422   2439     1
   2422   2436     1
   2422   2435     1
   2423   2429     1
   2423   2438     1
   2423   3993     1
   2426   2432     1
   2426   3981     1
   2426   2437     1
   2429   3983     1
   2432   3995     1
   2435   3984     1
   2436   3996     1
   2437   3983     1
   2438   3995     1
   2441   2457     1
   2441   2454     1
   2444   2448     1
   2444   2451     1
   2447   2464     1
   2447   2461     1
   2447   2460     1
   2448   2454     1
   2448   2463     1
   2448   4017     1
   2451   2457     1
   2451   4005     1
   2451   2462     1
   2454   4007     1
   2457   4019     1
   2460   4008     1
   2461   4020     1
   2462   4007     1
   2463   4019     1
   2466   2482     1
   2466   2479     1
   2469   2473     1
   2469   2476     1
   2472   2489     1
   2472   2486     1
   2472   2485     1
   2473   2479     1
   2473   2488     1
   2473   4041     1
   2476   2482     1
   2476   4029     1
   2476   2487     1
   2479   4031     1
   2482   4043     1
   2485   4032     1
   2486   4044     1
   2487   4031     1
   2488   4043     1
   2491   2507     1
   2491   2504     1
   2494   2498     1
   2494   2501     1
   2497   2514     1
   2497   2511     1
   2497   2510     1
   2498   2504     1
   2498   2513     1
   2498   4065     1
   2501   2507     1
   2501   4053     1
   2501   2512     1
   2504   4055     1
   2507   4067     1
   2510   4056     1
   2511   4068     1
   2512   4055     1
   2513   4067     1
   2516   2532     1
   2516   2529     1
   2519   2523     1
   2519   2526     1
   2522   2539     1
   2522   2536     1
   2522   2535     1
   2523   2529     1
   2523   2538     1
   2523   4089     1
   2526   2532     1
   2526   4077     1
   2526   2537     1
   2529   4079     1
   2532   4091     1
   2535   4080     1
   2536   4092     1
   2537   4079     1
   2538   4091     1
   2541   2557     1
   2541   2554     1
   2544   2548     1
   2544   2551     1
   2547   2564     1
   2547   2561     1
   2547   2560     1
   2548   2554     1
   2548   2563     1
   2548   4113     1
   2551   2557     1
   2551   4101     1
   2551   2562     1
   2554   4103     1
   2557   4115     1
   2560   4104     1
   2561   4116     1
   2562   4103     1
   2563   4115     1
   2566   2582     1
   2566   2579     1
   2569   2573     1
   2569   2576     1
   2572   2589     1
   2572   2586     1
   2572   2585     1
   2573   2579     1
   2573   2588     1
   2573   4137     1
   2576   2582     1
   2576   4125     1
   2576   2587     1
   2579   4127     1
   2582   4139     1
   2585   4128     1
   2586   4140     1
   2587   4127     1
   2588   4139     1
   2591   2607     1
   2591   2604     1
   2594   2598     1
   2594   2601     1
   2597   2614     1
   2597   2611     1
   2597   2610     1
   2598   2604     1
   2598   2613     1
   2598   4161     1
   2601   2607     1
   2601   4149     1
   2601   2612     1
   2604   4151     1
   2607   4163     1
   2610   4152     1
   2611   4164     1
   2612   4151     1
   2613   4163     1
   2616   2632     1
   2616   2629     1
   2619   2623     1
   2619   2626     1
   2622   2639     1
   2622   2636     1
   2622   2635     1
   2623   2629     1
   2623   2638     1
   2623   4185     1
   2626   2632     1
   2626   4173     1
   2626   2637     1
   2629   4175     1
   2632   4187     1
   2635   4176     1
   2636   4188     1
   2637   4175     1
   2638   4187     1
   2641   2657     1
   2641   2654     1
   2644   2648     1
   2644   2651     1
   2647   2664     1
   2647   2661     1
   2647   2660     1
   2648   2654     1
   2648   2663     1
   2648   4209     1
   2651   2657     1
   2651   4197     1
   2651   2662     1
   2654   4199     1
   2657   4211     1
   2660   4200     1
   2661   4212     1
   2662   4199     1
   2663   4211     1
   2666   2682     1
   2666   2679     1
   2669   2673     1
   2669   2676     1
   2672   2689     1
   2672   2686     1
   2672   2685     1
   2673   2679     1
   2673   2688     1
   2673   4233     1
   2676   2682     1
   2676   4221     1
   2676   2687     1
   2679   4223     1
   2682   4235     1
   2685   4224     1
   2686   4236     1
   2687   4223     1
   2688   4235     1
   2691   2707     1
   2691   2704     1
   2694   2698     1
   2694   2701     1
   2697   2714     1
   2697   2711     1
   2697   2710     1
   2698   2704     1
   2698   2713     1
   2698   4257     1
   2701   2707     1
   2701   4245     1
   2701   2712     1
   2704   4247     1
   2707   4259     1
   2710   4248     1
   2711   4260     1
   2712   4247     1
   2713   4259     1
   2716   2732     1
   2716   2729     1
   2719   2723     1
   2719   2726     1
   2722   2739     1
   2722   2736     1
   2722   2735     1
   2723   2729     1
   2723   2738     1
   2723   4281     1
   2726   2732     1
   2726   4269     1
   2726   2737     1
   2729   4271     1
   2732   4283     1
   2735   4272     1
   2736   4284     1
   2737   4271     1
   2738   4283     1
   2741   2757     1
   2741   2754     1
   2744   2748     1
   2744   2751     1
   2747   2764     1
   2747   2761     1
   2747   2760     1
   2748   2754     1
   2748   2763     1
   2748   4305     1
   2751   2757     1
   2751   4293     1
   2751   2762     1
   2754   4295     1
   2757   4307     1
   2760   4296     1
   2761   4308     1
   2762   4295     1
   2763   4307     1
   2766   2782     1
   2766   2779     1
   2769   2773     1
   2769   2776     1
   2772   2789     1
   2772   2786     1
   2772   2785     1
   2773   2779     1
   2773   2788     1
   2773   4329     1
   2776   2782     1
   2776   4317     1
   2776   2787     1
   2779   4319     1
   2782   4331     1
   2785   4320     1
   2786   4332     1
   2787   4319     1
   2788   4331     1
   2791   2807     1
   2791   2804     1
   2794   2798     1
   2794   2801     1
   2797   2814     1
   2797   2811     1
   2797   2810     1
   2798   2804     1
   2798   2813     1
   2798   4353     1
   2801   2807     1
   2801   4341     1
   2801   2812     1
   2804   4343     1
   2807   4355     1
   2810   4344     1
   2811   4356     1
   2812   4343     1
   2813   4355     1
   2816   2832     1
   2816   2829     1
   2819   2823     1
   2819   2826     1
   2822   2839     1
   2822   2836     1
   2822   2835     1
   2823   2829     1
   2823   2838     1
   2823   4377     1
   2826   2832     1
   2826   4365     1
   2826   2837     1
   2829   4367     1
   2832   4379     1
   2835   4368     1
   2836   4380     1
   2837   4367     1
   2838   4379     1
   2841   2857     1
   2841   2854     1
   2844   2848     1
   2844   2851     1
   2847   2864     1
   2847   2861     1
   2847   2860     1
   2848   2854     1
   2848   2863     1
   2848   4401     1
   2851   2857     1
   2851   4389     1
   2851   2862     1
   2854   4391     1
   2857   4403     1
   2860   4392     1
   2861   4404     1
   2862   4391     1
   2863   4403     1
   2866   2882     1
   2866   2879     1
   2869   2873     1
   2869   2876     1
   2872   2889     1
   2872   2886     1
   2872   2885     1
   2873   2879     1
   2873   2888     1
   2873   4425     1
   2876   2882     1
   2876   4413     1
   2876   2887     1
   2879   4415     1
   2882   4427     1
   2885   4416     1
   2886   4428     1
   2887   4415     1
   2888   4427     1
   2891   2907     1
   2891   2904     1
   2894   2898     1
   2894   2901     1
   2897   2914     1
   2897   2911     1
   2897   2910     1
   2898   2904     1
   2898   2913     1
   2898   4449     1
   2901   2907     1
   2901   4437     1
   2901   2912     1
   2904   4439     1
   2907   4451     1
   2910   4440     1
   2911   4452     1
   2912   4439     1
   2913   4451     1
   2916   2932     1
   2916   2929     1
   2919   2923     1
   2919   2926     1
   2922   2939     1
   2922   2936     1
   2922   2935     1
   2923   2929     1
   2923   2938     1
   2923   4473     1
   2926   2932     1
   2926   4461     1
   2926   2937     1
   2929   4463     1
   2932   4475     1
   2935   4464     1
   2936   4476     1
   2937   4463     1
   2938   4475     1
   2941   2957     1
   2941   2954     1
   2944   2948     1
   2944   2951     1
   2947   2964     1
   2947   2961     1
   2947   2960     1
   2948   2954     1
   2948   2963     1
   2948   4497     1
   2951   2957     1
   2951   4485     1
   2951   2962     1
   2954   4487     1
   2957   4499     1
   2960   4488     1
   2961   4500     1
   2962   4487     1
   2963   4499     1
   2966   2982     1
   2966   2979     1
   2969   2973     1
   2969   2976     1
   2972   2989     1
   2972   2986     1
   2972   2985     1
   2973   2979     1
   2973   2988     1
   2973   4521     1
   2976   2982     1
   2976   4509     1
   2976   2987     1
   2979   4511     1
   2982   4523     1
   2985   4512     1
   2986   4524     1
   2987   4511     1
   2988   4523     1
   2991   3007     1
   2991   3004     1
   2994   2998     1
   2994   3001     1
   2997   3014     1
   2997   3011     1
   2997   3010     1
   2998   3004     1
   2998   3013     1
   2998   4545     1
   3001   3007     1
   3001   4533     1
   3001   3012     1
   3004   4535     1
   3007   4547     1
   3010   4536     1
   3011   4548     1
   3012   4535     1
   3013   4547     1
   3016   3032     1
   3016   3029     1
   3019   3023     1
   3019   3026     1
   3022   3039     1
   3022   3036     1
   3022   3035     1
   3023   3029     1
   3023   3038     1
   3023   4569     1
   3026   3032     1
   3026   4557     1
   3026   3037     1
   3029   4559     1
   3032   4571     1
   3035   4560     1
   3036   4572     1
   3037   4559     1
   3038   4571     1
   3041   3057     1
   3041   3054     1
   3044   3048     1
   3044   3051     1
   3047   3064     1
   3047   3061     1
   3047   3060     1
   3048   3054     1
   3048   3063     1
   3048   4593     1
   3051   3057     1
   3051   4581     1
   3051   3062     1
   3054   4583     1
   3057   4595     1
   3060   4584     1
   3061   4596     1
   3062   4583     1
   3063   4595     1
   3066   3082     1
   3066   3079     1
   3069   3073     1
   3069   3076     1
   3072   3089     1
   3072   3086     1
   3072   3085     1
   3073   3079     1
   3073   3088     1
   3073   4617     1
   3076   3082     1
   3076   4605     1
   3076   3087     1
   3079   4607     1
   3082   4619     1
   3085   4608     1
   3086   4620     1
   3087   4607     1
   3088   4619     1
   3091   3107     1
   3091   3104     1
   3094   3098     1
   3094   3101     1
   3097   3114     1
   3097   3111     1
   3097   3110     1
   3098   3104     1
   3098   3113     1
   3098   4641     1
   3101   3107     1
   3101   4629     1
   3101   3112     1
   3104   4631     1
   3107   4643     1
   3110   4632     1
   3111   4644     1
   3112   4631     1
   3113   4643     1
   3116   3132     1
   3116   3129     1
   3119   3123     1
   3119   3126     1
   3122   3139     1
   3122   3136     1
   3122   3135     1
   3123   3129     1
   3123   4665     1
   3123   3138     1
   3126   3132     1
   3126   4653     1
   3126   3137     1
   3129   4655     1
   3132   4667     1
   3135   4656     1
   3136   4668     1
   3137   4655     1
   3138   4667     1
   3141   3149     1
   3153   3161     1
   3165   3173     1
   3177   3185     1
   3189   3197     1
   3201   3209     1
   3213   3221     1
   3225   3233     1
   3237   3245     1
   3249   3257     1
   3261   3269     1
   3273   3281     1
   3285   3293     1
   3297   3305     1
   3309   3317     1
   3321   3329     1
   3333   3341     1
   3345   3353     1
   3357   3365     1
   3369   3377     1
   3381   3389     1
   3393   3401     1
   3405   3413     1
   3417   3425     1
   3429   3437     1
   3441   3449     1
   3453   3461     1
   3465   3473     1
   3477   3485     1
   3489   3497     1
   3501   3509     1
   3513   3521     1
   3525   3533     1
   3537   3545     1
   3549   3557     1
   3561   3569     1
   3573   3581     1
   3585   3593     1
   3597   3605     1
   3609   3617     1
   3621   3629     1
   3633   3641     1
   3645   3653     1
   3657   3665     1
   3669   3677     1
   3681   3689     1
   3693   3701     1
   3705   3713     1
   3717   3725     1
   3729   3737     1
   3741   3749     1
   3753   3761     1
   3765   3773     1
   3777   3785     1
   3789   3797     1
   3801   3809     1
   3813   3821     1
   3825   3833     1
   3837   3845     1
   3849   3857     1
   3861   3869     1
   3873   3881     1
   3885   3893     1
   3897   3905     1
   3909   3917     1
   3921   3929     1
   3933   3941     1
   3945   3953     1
   3957   3965     1
   3969   3977     1
   3981   3989     1
   3993   4001     1
   4005   4013     1
   4017   4025     1
   4029   4037     1
   4041   4049     1
   4053   4061     1
   4065   4073     1
   4077   4085     1
   4089   4097     1
   4101   4109     1
   4113   4121     1
   4125   4133     1
   4137   4145     1
   4149   4157     1
   4161   4169     1
   4173   4181     1
   4185   4193     1
   4197   4205     1
   4209   4217     1
   4221   4229     1
   4233   4241     1
   4245   4253     1
   4257   4265     1
   4269   4277     1
   4281   4289     1
   4293   4301     1
   4305   4313     1
   4317   4325     1
   4329   4337     1
   4341   4349     1
   4353   4361     1
   4365   4373     1
   4377   4385     1
   4389   4397     1
   4401   4409     1
   4413   4421     1
   4425   4433     1
   4437   4445     1
   4449   4457     1
   4461   4469     1
   4473   4481     1
   4485   4493     1
   4497   4505     1
   4509   4517     1
   4521   4529     1
   4533   4541     1
   4545   4553     1
   4557   4565     1
   4569   4577     1
   4581   4589     1
   4593   4601     1
   4605   4613     1
   4617   4625     1
   4629   4637     1
   4641   4649     1
   4653   4661     1
   4665   4673     1
      1     10     1
      1     11     1
      1     13     1
      1     14     1
      2      7     1
      2      5     1
      2      6     1
      2      9     1
      2     12     1
      3      7     1
      3      5     1
      3      6     1
      3      9     1
      3     12     1
      4     16     1
      4     17     1
      4     19     1
      4     20     1
      8      5     1
      5     15     1
      5     18     1
      8      6     1
      6     15     1
      6     18     1
      7     22     1
      7     23     1
      7     25     1
      7     26     1
      8     31     1
      8     32     1
      8     28     1
      8     29     1
      9     13     1
      9     14     1
     10     12     1
     10     34     1
     10     31     1
     10     32     1
     11     12     1
     11     34     1
     11     31     1
     11     32     1
     13     33     1
     13     28     1
     13     29     1
     14     33     1
     14     28     1
     14     29     1
     15     19     1
     15     20     1
     16     18     1
     16     35     1
     16     22     1
     16     23     1
     17     18     1
     17     35     1
     17     22     1
     17     23     1
     19     36     1
     19     25     1
     19     26     1
     20     36     1
     20     25     1
     20     26     1
     21    115     1
     22     38     1
     22    114     1
     23     38     1
     23    114     1
     24    140     1
     25     39     1
     25    139     1
     26     39     1
     26    139     1
     27     65     1
     28     37     1
     28     64     1
     29     37     1
     29     64     1
     30     90     1
     31     40     1
     31     89     1
     32     40     1
     32     89     1
     33     45     1
     33     46     1
     34     70     1
     34     71     1
     35     95     1
     35     96     1
     36    120     1
     36    121     1
     37     65     1
     38    115     1
     39    140     1
     40     90     1
     41     65     1
     41     49     1
     41     50     1
     41     52     1
     41     53     1
     42     64     1
     42     45     1
     42     46     1
     42     48     1
     42     51     1
     43     64     1
     43     45     1
     43     46     1
     43     48     1
     43     51     1
     45     47     1
     45     65     1
     46     47     1
     46     65     1
     47     58     1
     47     59     1
     47     55     1
     47     56     1
     48     52     1
     48     53     1
     49     51     1
     49     61     1
     49     58     1
     49     59     1
     50     51     1
     50     61     1
     50     58     1
     50     59     1
     52     60     1
     52     55     1
     52     56     1
     53     60     1
     53     55     1
     53     56     1
     54    165     1
     55     62     1
     55    164     1
     56     62     1
     56    164     1
     57    190     1
     58     63     1
     58    189     1
     59     63     1
     59    189     1
     60    145     1
     60    146     1
     61    170     1
     61    171     1
     62    165     1
     63    190     1
     66     90     1
     66     74     1
     66     75     1
     66     77     1
     66     78     1
     67     89     1
     67     70     1
     67     71     1
     67     73     1
     67     76     1
     68     89     1
     68     70     1
     68     71     1
     68     73     1
     68     76     1
     70     72     1
     70     90     1
     71     72     1
     71     90     1
     72     83     1
     72     84     1
     72     80     1
     72     81     1
     73     77     1
     73     78     1
     74     76     1
     74     86     1
     74     83     1
     74     84     1
     75     76     1
     75     86     1
     75     83     1
     75     84     1
     77     85     1
     77     80     1
     77     81     1
     78     85     1
     78     80     1
     78     81     1
     79    215     1
     80     87     1
     80    214     1
     81     87     1
     81    214     1
     82    240     1
     83     88     1
     83    239     1
     84     88     1
     84    239     1
     85    195     1
     85    196     1
     86    220     1
     86    221     1
     87    215     1
     88    240     1
     91    115     1
     91     99     1
     91    100     1
     91    102     1
     91    103     1
     92    114     1
     92     95     1
     92     96     1
     92     98     1
     92    101     1
     93    114     1
     93     95     1
     93     96     1
     93     98     1
     93    101     1
     95     97     1
     95    115     1
     96     97     1
     96    115     1
     97    108     1
     97    109     1
     97    105     1
     97    106     1
     98    102     1
     98    103     1
     99    101     1
     99    111     1
     99    108     1
     99    109     1
    100    101     1
    100    111     1
    100    108     1
    100    109     1
    102    110     1
    102    105     1
    102    106     1
    103    110     1
    103    105     1
    103    106     1
    104    265     1
    105    112     1
    105    264     1
    106    112     1
    106    264     1
    107    290     1
    108    113     1
    108    289     1
    109    113     1
    109    289     1
    110    245     1
    110    246     1
    111    270     1
    111    271     1
    112    265     1
    113    290     1
    116    140     1
    116    124     1
    116    125     1
    116    127     1
    116    128     1
    117    139     1
    117    120     1
    117    121     1
    117    123     1
    117    126     1
    118    139     1
    118    120     1
    118    121     1
    118    123     1
    118    126     1
    120    122     1
    120    140     1
    121    122     1
    121    140     1
    122    133     1
    122    134     1
    122    130     1
    122    131     1
    123    127     1
    123    128     1
    124    126     1
    124    136     1
    124    133     1
    124    134     1
    125    126     1
    125    136     1
    125    133     1
    125    134     1
    127    135     1
    127    130     1
    127    131     1
    128    135     1
    128    130     1
    128    131     1
    129    315     1
    130    137     1
    130    314     1
    131    137     1
    131    314     1
    132    340     1
    133    138     1
    133    339     1
    134    138     1
    134    339     1
    135    295     1
    135    296     1
    136    320     1
    136    321     1
    137    315     1
    138    340     1
    141    165     1
    141    149     1
    141    150     1
    141    152     1
    141    153     1
    142    164     1
    142    145     1
    142    146     1
    142    148     1
    142    151     1
    143    164     1
    143    145     1
    143    146     1
    143    148     1
    143    151     1
    145    147     1
    145    165     1
    146    147     1
    146    165     1
    147    158     1
    147    159     1
    147    155     1
    147    156     1
    148    152     1
    148    153     1
    149    151     1
    149    161     1
    149    158     1
    149    159     1
    150    151     1
    150    161     1
    150    158     1
    150    159     1
    152    160     1
    152    155     1
    152    156     1
    153    160     1
    153    155     1
    153    156     1
    154    365     1
    155    162     1
    155    364     1
    156    162     1
    156    364     1
    157    390     1
    158    163     1
    158    389     1
    159    163     1
    159    389     1
    160    345     1
    160    346     1
    161    370     1
    161    371     1
    162    365     1
    163    390     1
    166    190     1
    166    174     1
    166    175     1
    166    177     1
    166    178     1
    167    189     1
    167    170     1
    167    171     1
    167    173     1
    167    176     1
    168    189     1
    168    170     1
    168    171     1
    168    173     1
    168    176     1
    170    172     1
    170    190     1
    171    172     1
    171    190     1
    172    183     1
    172    184     1
    172    180     1
    172    181     1
    173    177     1
    173    178     1
    174    176     1
    174    186     1
    174    183     1
    174    184     1
    175    176     1
    175    186     1
    175    183     1
    175    184     1
    177    185     1
    177    180     1
    177    181     1
    178    185     1
    178    180     1
    178    181     1
    179    415     1
    180    187     1
    180    414     1
    181    187     1
    181    414     1
    182    440     1
    183    188     1
    183    439     1
    184    188     1
    184    439     1
    185    395     1
    185    396     1
    186    420     1
    186    421     1
    187    415     1
    188    440     1
    191    215     1
    191    199     1
    191    200     1
    191    202     1
    191    203     1
    192    214     1
    192    195     1
    192    196     1
    192    198     1
    192    201     1
    193    214     1
    193    195     1
    193    196     1
    193    198     1
    193    201     1
    195    197     1
    195    215     1
    196    197     1
    196    215     1
    197    208     1
    197    209     1
    197    205     1
    197    206     1
    198    202     1
    198    203     1
    199    201     1
    199    211     1
    199    208     1
    199    209     1
    200    201     1
    200    211     1
    200    208     1
    200    209     1
    202    210     1
    202    205     1
    202    206     1
    203    210     1
    203    205     1
    203    206     1
    204    465     1
    205    212     1
    205    464     1
    206    212     1
    206    464     1
    207    490     1
    208    213     1
    208    489     1
    209    213     1
    209    489     1
    210    445     1
    210    446     1
    211    470     1
    211    471     1
    212    465     1
    213    490     1
    216    240     1
    216    224     1
    216    225     1
    216    227     1
    216    228     1
    217    239     1
    217    220     1
    217    221     1
    217    223     1
    217    226     1
    218    239     1
    218    220     1
    218    221     1
    218    223     1
    218    226     1
    220    222     1
    220    240     1
    221    222     1
    221    240     1
    222    233     1
    222    234     1
    222    230     1
    222    231     1
    223    227     1
    223    228     1
    224    226     1
    224    236     1
    224    233     1
    224    234     1
    225    226     1
    225    236     1
    225    233     1
    225    234     1
    227    235     1
    227    230     1
    227    231     1
    228    235     1
    228    230     1
    228    231     1
    229    515     1
    230    237     1
    230    514     1
    231    237     1
    231    514     1
    232    540     1
    233    238     1
    233    539     1
    234    238     1
    234    539     1
    235    495     1
    235    496     1
    236    520     1
    236    521     1
    237    515     1
    238    540     1
    241    265     1
    241    249     1
    241    250     1
    241    252     1
    241    253     1
    242    264     1
    242    245     1
    242    246     1
    242    248     1
    242    251     1
    243    264     1
    243    245     1
    243    246     1
    243    248     1
    243    251     1
    245    247     1
    245    265     1
    246    247     1
    246    265     1
    247    258     1
    247    259     1
    247    255     1
    247    256     1
    248    252     1
    248    253     1
    249    251     1
    249    261     1
    249    258     1
    249    259     1
    250    251     1
    250    261     1
    250    258     1
    250    259     1
    252    260     1
    252    255     1
    252    256     1
    253    260     1
    253    255     1
    253    256     1
    254    565     1
    255    262     1
    255    564     1
    256    262     1
    256    564     1
    257    590     1
    258    263     1
    258    589     1
    259    263     1
    259    589     1
    260    545     1
    260    546     1
    261    570     1
    261    571     1
    262    565     1
    263    590     1
    266    290     1
    266    274     1
    266    275     1
    266    277     1
    266    278     1
    267    289     1
    267    270     1
    267    271     1
    267    273     1
    267    276     1
    268    289     1
    268    270     1
    268    271     1
    268    273     1
    268    276     1
    270    272     1
    270    290     1
    271    272     1
    271    290     1
    272    283     1
    272    284     1
    272    280     1
    272    281     1
    273    277     1
    273    278     1
    274    276     1
    274    286     1
    274    283     1
    274    284     1
    275    276     1
    275    286     1
    275    283     1
    275    284     1
    277    285     1
    277    280     1
    277    281     1
    278    285     1
    278    280     1
    278    281     1
    279    615     1
    280    287     1
    280    614     1
    281    287     1
    281    614     1
    282    640     1
    283    288     1
    283    639     1
    284    288     1
    284    639     1
    285    595     1
    285    596     1
    286    620     1
    286    621     1
    287    615     1
    288    640     1
    291    315     1
    291    299     1
    291    300     1
    291    302     1
    291    303     1
    292    314     1
    292    295     1
    292    296     1
    292    298     1
    292    301     1
    293    314     1
    293    295     1
    293    296     1
    293    298     1
    293    301     1
    295    297     1
    295    315     1
    296    297     1
    296    315     1
    297    308     1
    297    309     1
    297    305     1
    297    306     1
    298    302     1
    298    303     1
    299    301     1
    299    311     1
    299    308     1
    299    309     1
    300    301     1
    300    311     1
    300    308     1
    300    309     1
    302    310     1
    302    305     1
    302    306     1
    303    310     1
    303    305     1
    303    306     1
    304    665     1
    305    312     1
    305    664     1
    306    312     1
    306    664     1
    307    690     1
    308    313     1
    308    689     1
    309    313     1
    309    689     1
    310    645     1
    310    646     1
    311    670     1
    311    671     1
    312    665     1
    313    690     1
    316    340     1
    316    324     1
    316    325     1
    316    327     1
    316    328     1
    317    339     1
    317    320     1
    317    321     1
    317    323     1
    317    326     1
    318    339     1
    318    320     1
    318    321     1
    318    323     1
    318    326     1
    320    322     1
    320    340     1
    321    322     1
    321    340     1
    322    333     1
    322    334     1
    322    330     1
    322    331     1
    323    327     1
    323    328     1
    324    326     1
    324    336     1
    324    333     1
    324    334     1
    325    326     1
    325    336     1
    325    333     1
    325    334     1
    327    335     1
    327    330     1
    327    331     1
    328    335     1
    328    330     1
    328    331     1
    329    715     1
    330    337     1
    330    714     1
    331    337     1
    331    714     1
    332    740     1
    333    338     1
    333    739     1
    334    338     1
    334    739     1
    335    695     1
    335    696     1
    336    720     1
    336    721     1
    337    715     1
    338    740     1
    341    365     1
    341    349     1
    341    350     1
    341    352     1
    341    353     1
    342    364     1
    342    345     1
    342    346     1
    342    348     1
    342    351     1
    343    364     1
    343    345     1
    343    346     1
    343    348     1
    343    351     1
    345    347     1
    345    365     1
    346    347     1
    346    365     1
    347    358     1
    347    359     1
    347    355     1
    347    356     1
    348    352     1
    348    353     1
    349    351     1
    349    361     1
    349    358     1
    349    359     1
    350    351     1
    350    361     1
    350    358     1
    350    359     1
    352    360     1
    352    355     1
    352    356     1
    353    360     1
    353    355     1
    353    356     1
    354    765     1
    355    362     1
    355    764     1
    356    362     1
    356    764     1
    357    790     1
    358    363     1
    358    789     1
    359    363     1
    359    789     1
    360    745     1
    360    746     1
    361    770     1
    361    771     1
    362    765     1
    363    790     1
    366    390     1
    366    374     1
    366    375     1
    366    377     1
    366    378     1
    367    389     1
    367    370     1
    367    371     1
    367    373     1
    367    376     1
    368    389     1
    368    370     1
    368    371     1
    368    373     1
    368    376     1
    370    372     1
    370    390     1
    371    372     1
    371    390     1
    372    383     1
    372    384     1
    372    380     1
    372    381     1
    373    377     1
    373    378     1
    374    376     1
    374    386     1
    374    383     1
    374    384     1
    375    376     1
    375    386     1
    375    383     1
    375    384     1
    377    385     1
    377    380     1
    377    381     1
    378    385     1
    378    380     1
    378    381     1
    379    815     1
    380    387     1
    380    814     1
    381    387     1
    381    814     1
    382    840     1
    383    388     1
    383    839     1
    384    388     1
    384    839     1
    385    795     1
    385    796     1
    386    820     1
    386    821     1
    387    815     1
    388    840     1
    391    415     1
    391    399     1
    391    400     1
    391    402     1
    391    403     1
    392    414     1
    392    395     1
    392    396     1
    392    398     1
    392    401     1
    393    414     1
    393    395     1
    393    396     1
    393    398     1
    393    401     1
    395    397     1
    395    415     1
    396    397     1
    396    415     1
    397    408     1
    397    409     1
    397    405     1
    397    406     1
    398    402     1
    398    403     1
    399    401     1
    399    411     1
    399    408     1
    399    409     1
    400    401     1
    400    411     1
    400    408     1
    400    409     1
    402    410     1
    402    405     1
    402    406     1
    403    410     1
    403    405     1
    403    406     1
    404    865     1
    405    412     1
    405    864     1
    406    412     1
    406    864     1
    407    890     1
    408    413     1
    408    889     1
    409    413     1
    409    889     1
    410    845     1
    410    846     1
    411    870     1
    411    871     1
    412    865     1
    413    890     1
    416    440     1
    416    424     1
    416    425     1
    416    427     1
    416    428     1
    417    439     1
    417    420     1
    417    421     1
    417    423     1
    417    426     1
    418    439     1
    418    420     1
    418    421     1
    418    423     1
    418    426     1
    420    422     1
    420    440     1
    421    422     1
    421    440     1
    422    433     1
    422    434     1
    422    430     1
    422    431     1
    423    427     1
    423    428     1
    424    426     1
    424    436     1
    424    433     1
    424    434     1
    425    426     1
    425    436     1
    425    433     1
    425    434     1
    427    435     1
    427    430     1
    427    431     1
    428    435     1
    428    430     1
    428    431     1
    429    915     1
    430    437     1
    430    914     1
    431    437     1
    431    914     1
    432    940     1
    433    438     1
    433    939     1
    434    438     1
    434    939     1
    435    895     1
    435    896     1
    436    920     1
    436    921     1
    437    915     1
    438    940     1
    441    465     1
    441    449     1
    441    450     1
    441    452     1
    441    453     1
    442    464     1
    442    445     1
    442    446     1
    442    448     1
    442    451     1
    443    464     1
    443    445     1
    443    446     1
    443    448     1
    443    451     1
    445    447     1
    445    465     1
    446    447     1
    446    465     1
    447    458     1
    447    459     1
    447    455     1
    447    456     1
    448    452     1
    448    453     1
    449    451     1
    449    461     1
    449    458     1
    449    459     1
    450    451     1
    450    461     1
    450    458     1
    450    459     1
    452    460     1
    452    455     1
    452    456     1
    453    460     1
    453    455     1
    453    456     1
    454    965     1
    455    462     1
    455    964     1
    456    462     1
    456    964     1
    457    990     1
    458    463     1
    458    989     1
    459    463     1
    459    989     1
    460    945     1
    460    946     1
    461    970     1
    461    971     1
    462    965     1
    463    990     1
    466    490     1
    466    474     1
    466    475     1
    466    477     1
    466    478     1
    467    489     1
    467    470     1
    467    471     1
    467    473     1
    467    476     1
    468    489     1
    468    470     1
    468    471     1
    468    473     1
    468    476     1
    470    472     1
    470    490     1
    471    472     1
    471    490     1
    472    483     1
    472    484     1
    472    480     1
    472    481     1
    473    477     1
    473    478     1
    474    476     1
    474    486     1
    474    483     1
    474    484     1
    475    476     1
    475    486     1
    475    483     1
    475    484     1
    477    485     1
    477    480     1
    477    481     1
    478    485     1
    478    480     1
    478    481     1
    479   1015     1
    480    487     1
    480   1014     1
    481    487     1
    481   1014     1
    482   1040     1
    483    488     1
    483   1039     1
    484    488     1
    484   1039     1
    485    995     1
    485    996     1
    486   1020     1
    486   1021     1
    487   1015     1
    488   1040     1
    491    515     1
    491    499     1
    491    500     1
    491    502     1
    491    503     1
    492    514     1
    492    495     1
    492    496     1
    492    498     1
    492    501     1
    493    514     1
    493    495     1
    493    496     1
    493    498     1
    493    501     1
    495    497     1
    495    515     1
    496    497     1
    496    515     1
    497    508     1
    497    509     1
    497    505     1
    497    506     1
    498    502     1
    498    503     1
    499    501     1
    499    511     1
    499    508     1
    499    509     1
    500    501     1
    500    511     1
    500    508     1
    500    509     1
    502    510     1
    502    505     1
    502    506     1
    503    510     1
    503    505     1
    503    506     1
    504   1065     1
    505    512     1
    505   1064     1
    506    512     1
    506   1064     1
    507   1090     1
    508    513     1
    508   1089     1
    509    513     1
    509   1089     1
    510   1045     1
    510   1046     1
    511   1070     1
    511   1071     1
    512   1065     1
    513   1090     1
    516    540     1
    516    524     1
    516    525     1
    516    527     1
    516    528     1
    517    539     1
    517    520     1
    517    521     1
    517    523     1
    517    526     1
    518    539     1
    518    520     1
    518    521     1
    518    523     1
    518    526     1
    520    522     1
    520    540     1
    521    522     1
    521    540     1
    522    533     1
    522    534     1
    522    530     1
    522    531     1
    523    527     1
    523    528     1
    524    526     1
    524    536     1
    524    533     1
    524    534     1
    525    526     1
    525    536     1
    525    533     1
    525    534     1
    527    535     1
    527    530     1
    527    531     1
    528    535     1
    528    530     1
    528    531     1
    529   1115     1
    530    537     1
    530   1114     1
    531    537     1
    531   1114     1
    532   1140     1
    533    538     1
    533   1139     1
    534    538     1
    534   1139     1
    535   1095     1
    535   1096     1
    536   1120     1
    536   1121     1
    537   1115     1
    538   1140     1
    541    565     1
    541    549     1
    541    550     1
    541    552     1
    541    553     1
    542    564     1
    542    545     1
    542    546     1
    542    548     1
    542    551     1
    543    564     1
    543    545     1
    543    546     1
    543    548     1
    543    551     1
    545    547     1
    545    565     1
    546    547     1
    546    565     1
    547    558     1
    547    559     1
    547    555     1
    547    556     1
    548    552     1
    548    553     1
    549    551     1
    549    561     1
    549    558     1
    549    559     1
    550    551     1
    550    561     1
    550    558     1
    550    559     1
    552    560     1
    552    555     1
    552    556     1
    553    560     1
    553    555     1
    553    556     1
    554   1165     1
    555    562     1
    555   1164     1
    556    562     1
    556   1164     1
    557   1190     1
    558    563     1
    558   1189     1
    559    563     1
    559   1189     1
    560   1145     1
    560   1146     1
    561   1170     1
    561   1171     1
    562   1165     1
    563   1190     1
    566    590     1
    566    574     1
    566    575     1
    566    577     1
    566    578     1
    567    589     1
    567    570     1
    567    571     1
    567    573     1
    567    576     1
    568    589     1
    568    570     1
    568    571     1
    568    573     1
    568    576     1
    570    572     1
    570    590     1
    571    572     1
    571    590     1
    572    583     1
    572    584     1
    572    580     1
    572    581     1
    573    577     1
    573    578     1
    574    576     1
    574    586     1
    574    583     1
    574    584     1
    575    576     1
    575    586     1
    575    583     1
    575    584     1
    577    585     1
    577    580     1
    577    581     1
    578    585     1
    578    580     1
    578    581     1
    579   1215     1
    580    587     1
    580   1214     1
    581    587     1
    581   1214     1
    582   1240     1
    583    588     1
    583   1239     1
    584    588     1
    584   1239     1
    585   1195     1
    585   1196     1
    586   1220     1
    586   1221     1
    587   1215     1
    588   1240     1
    591    615     1
    591    599     1
    591    600     1
    591    602     1
    591    603     1
    592    614     1
    592    595     1
    592    596     1
    592    598     1
    592    601     1
    593    614     1
    593    595     1
    593    596     1
    593    598     1
    593    601     1
    595    597     1
    595    615     1
    596    597     1
    596    615     1
    597    608     1
    597    609     1
    597    605     1
    597    606     1
    598    602     1
    598    603     1
    599    601     1
    599    611     1
    599    608     1
    599    609     1
    600    601     1
    600    611     1
    600    608     1
    600    609     1
    602    610     1
    602    605     1
    602    606     1
    603    610     1
    603    605     1
    603    606     1
    604   1265     1
    605    612     1
    605   1264     1
    606    612     1
    606   1264     1
    607   1290     1
    608    613     1
    608   1289     1
    609    613     1
    609   1289     1
    610   1245     1
    610   1246     1
    611   1270     1
    611   1271     1
    612   1265     1
    613   1290     1
    616    640     1
    616    624     1
    616    625     1
    616    627     1
    616    628     1
    617    639     1
    617    620     1
    617    621     1
    617    623     1
    617    626     1
    618    639     1
    618    620     1
    618    621     1
    618    623     1
    618    626     1
    620    622     1
    620    640     1
    621    622     1
    621    640     1
    622    633     1
    622    634     1
    622    630     1
    622    631     1
    623    627     1
    623    628     1
    624    626     1
    624    636     1
    624    633     1
    624    634     1
    625    626     1
    625    636     1
    625    633     1
    625    634     1
    627    635     1
    627    630     1
    627    631     1
    628    635     1
    628    630     1
    628    631     1
    629   1315     1
    630    637     1
    630   1314     1
    631    637     1
    631   1314     1
    632   1340     1
    633    638     1
    633   1339     1
    634    638     1
    634   1339     1
    635   1295     1
    635   1296     1
    636   1320     1
    636   1321     1
    637   1315     1
    638   1340     1
    641    665     1
    641    649     1
    641    650     1
    641    652     1
    641    653     1
    642    664     1
    642    645     1
    642    646     1
    642    648     1
    642    651     1
    643    664     1
    643    645     1
    643    646     1
    643    648     1
    643    651     1
    645    647     1
    645    665     1
    646    647     1
    646    665     1
    647    658     1
    647    659     1
    647    655     1
    647    656     1
    648    652     1
    648    653     1
    649    651     1
    649    661     1
    649    658     1
    649    659     1
    650    651     1
    650    661     1
    650    658     1
    650    659     1
    652    660     1
    652    655     1
    652    656     1
    653    660     1
    653    655     1
    653    656     1
    654   1365     1
    655    662     1
    655   1364     1
    656    662     1
    656   1364     1
    657   1390     1
    658    663     1
    658   1389     1
    659    663     1
    659   1389     1
    660   1345     1
    660   1346     1
    661   1370     1
    661   1371     1
    662   1365     1
    663   1390     1
    666    690     1
    666    674     1
    666    675     1
    666    677     1
    666    678     1
    667    689     1
    667    670     1
    667    671     1
    667    673     1
    667    676     1
    668    689     1
    668    670     1
    668    671     1
    668    673     1
    668    676     1
    670    672     1
    670    690     1
    671    672     1
    671    690     1
    672    683     1
    672    684     1
    672    680     1
    672    681     1
    673    677     1
    673    678     1
    674    676     1
    674    686     1
    674    683     1
    674    684     1
    675    676     1
    675    686     1
    675    683     1
    675    684     1
    677    685     1
    677    680     1
    677    681     1
    678    685     1
    678    680     1
    678    681     1
    679   1415     1
    680    687     1
    680   1414     1
    681    687     1
    681   1414     1
    682   1440     1
    683    688     1
    683   1439     1
    684    688     1
    684   1439     1
    685   1395     1
    685   1396     1
    686   1420     1
    686   1421     1
    687   1415     1
    688   1440     1
    691    715     1
    691    699     1
    691    700     1
    691    702     1
    691    703     1
    692    714     1
    692    695     1
    692    696     1
    692    698     1
    692    701     1
    693    714     1
    693    695     1
    693    696     1
    693    698     1
    693    701     1
    695    697     1
    695    715     1
    696    697     1
    696    715     1
    697    708     1
    697    709     1
    697    705     1
    697    706     1
    698    702     1
    698    703     1
    699    701     1
    699    711     1
    699    708     1
    699    709     1
    700    701     1
    700    711     1
    700    708     1
    700    709     1
    702    710     1
    702    705     1
    702    706     1
    703    710     1
    703    705     1
    703    706     1
    704   1465     1
    705    712     1
    705   1464     1
    706    712     1
    706   1464     1
    707   1490     1
    708    713     1
    708   1489     1
    709    713     1
    709   1489     1
    710   1445     1
    710   1446     1
    711   1470     1
    711   1471     1
    712   1465     1
    713   1490     1
    716    740     1
    716    724     1
    716    725     1
    716    727     1
    716    728     1
    717    739     1
    717    720     1
    717    721     1
    717    723     1
    717    726     1
    718    739     1
    718    720     1
    718    721     1
    718    723     1
    718    726     1
    720    722     1
    720    740     1
    721    722     1
    721    740     1
    722    733     1
    722    734     1
    722    730     1
    722    731     1
    723    727     1
    723    728     1
    724    726     1
    724    736     1
    724    733     1
    724    734     1
    725    726     1
    725    736     1
    725    733     1
    725    734     1
    727    735     1
    727    730     1
    727    731     1
    728    735     1
    728    730     1
    728    731     1
    729   1515     1
    730    737     1
    730   1514     1
    731    737     1
    731   1514     1
    732   1540     1
    733    738     1
    733   1539     1
    734    738     1
    734   1539     1
    735   1495     1
    735   1496     1
    736   1520     1
    736   1521     1
    737   1515     1
    738   1540     1
    741    765     1
    741    749     1
    741    750     1
    741    752     1
    741    753     1
    742    764     1
    742    745     1
    742    746     1
    742    748     1
    742    751     1
    743    764     1
    743    745     1
    743    746     1
    743    748     1
    743    751     1
    745    747     1
    745    765     1
    746    747     1
    746    765     1
    747    758     1
    747    759     1
    747    755     1
    747    756     1
    748    752     1
    748    753     1
    749    751     1
    749    761     1
    749    758     1
    749    759     1
    750    751     1
    750    761     1
    750    758     1
    750    759     1
    752    760     1
    752    755     1
    752    756     1
    753    760     1
    753    755     1
    753    756     1
    754   1565     1
    755    762     1
    755   1564     1
    756    762     1
    756   1564     1
    757   1590     1
    758    763     1
    758   1589     1
    759    763     1
    759   1589     1
    760   1545     1
    760   1546     1
    761   1570     1
    761   1571     1
    762   1565     1
    763   1590     1
    766    790     1
    766    774     1
    766    775     1
    766    777     1
    766    778     1
    767    789     1
    767    770     1
    767    771     1
    767    773     1
    767    776     1
    768    789     1
    768    770     1
    768    771     1
    768    773     1
    768    776     1
    770    772     1
    770    790     1
    771    772     1
    771    790     1
    772    783     1
    772    784     1
    772    780     1
    772    781     1
    773    777     1
    773    778     1
    774    776     1
    774    786     1
    774    783     1
    774    784     1
    775    776     1
    775    786     1
    775    783     1
    775    784     1
    777    785     1
    777    780     1
    777    781     1
    778    785     1
    778    780     1
    778    781     1
    779   1615     1
    780    787     1
    780   1614     1
    781    787     1
    781   1614     1
    782   1640     1
    783    788     1
    783   1639     1
    784    788     1
    784   1639     1
    785   1595     1
    785   1596     1
    786   1620     1
    786   1621     1
    787   1615     1
    788   1640     1
    791    815     1
    791    799     1
    791    800     1
    791    802     1
    791    803     1
    792    814     1
    792    795     1
    792    796     1
    792    798     1
    792    801     1
    793    814     1
    793    795     1
    793    796     1
    793    798     1
    793    801     1
    795    797     1
    795    815     1
    796    797     1
    796    815     1
    797    808     1
    797    809     1
    797    805     1
    797    806     1
    798    802     1
    798    803     1
    799    801     1
    799    811     1
    799    808     1
    799    809     1
    800    801     1
    800    811     1
    800    808     1
    800    809     1
    802    810     1
    802    805     1
    802    806     1
    803    810     1
    803    805     1
    803    806     1
    804   1665     1
    805    812     1
    805   1664     1
    806    812     1
    806   1664     1
    807   1690     1
    808    813     1
    808   1689     1
    809    813     1
    809   1689     1
    810   1645     1
    810   1646     1
    811   1670     1
    811   1671     1
    812   1665     1
    813   1690     1
    816    840     1
    816    824     1
    816    825     1
    816    827     1
    816    828     1
    817    839     1
    817    820     1
    817    821     1
    817    823     1
    817    826     1
    818    839     1
    818    820     1
    818    821     1
    818    823     1
    818    826     1
    820    822     1
    820    840     1
    821    822     1
    821    840     1
    822    833     1
    822    834     1
    822    830     1
    822    831     1
    823    827     1
    823    828     1
    824    826     1
    824    836     1
    824    833     1
    824    834     1
    825    826     1
    825    836     1
    825    833     1
    825    834     1
    827    835     1
    827    830     1
    827    831     1
    828    835     1
    828    830     1
    828    831     1
    829   1715     1
    830    837     1
    830   1714     1
    831    837     1
    831   1714     1
    832   1740     1
    833    838     1
    833   1739     1
    834    838     1
    834   1739     1
    835   1695     1
    835   1696     1
    836   1720     1
    836   1721     1
    837   1715     1
    838   1740     1
    841    865     1
    841    849     1
    841    850     1
    841    852     1
    841    853     1
    842    864     1
    842    845     1
    842    846     1
    842    848     1
    842    851     1
    843    864     1
    843    845     1
    843    846     1
    843    848     1
    843    851     1
    845    847     1
    845    865     1
    846    847     1
    846    865     1
    847    858     1
    847    859     1
    847    855     1
    847    856     1
    848    852     1
    848    853     1
    849    851     1
    849    861     1
    849    858     1
    849    859     1
    850    851     1
    850    861     1
    850    858     1
    850    859     1
    852    860     1
    852    855     1
    852    856     1
    853    860     1
    853    855     1
    853    856     1
    854   1765     1
    855    862     1
    855   1764     1
    856    862     1
    856   1764     1
    857   1790     1
    858    863     1
    858   1789     1
    859    863     1
    859   1789     1
    860   1745     1
    860   1746     1
    861   1770     1
    861   1771     1
    862   1765     1
    863   1790     1
    866    890     1
    866    874     1
    866    875     1
    866    877     1
    866    878     1
    867    889     1
    867    870     1
    867    871     1
    867    873     1
    867    876     1
    868    889     1
    868    870     1
    868    871     1
    868    873     1
    868    876     1
    870    872     1
    870    890     1
    871    872     1
    871    890     1
    872    883     1
    872    884     1
    872    880     1
    872    881     1
    873    877     1
    873    878     1
    874    876     1
    874    886     1
    874    883     1
    874    884     1
    875    876     1
    875    886     1
    875    883     1
    875    884     1
    877    885     1
    877    880     1
    877    881     1
    878    885     1
    878    880     1
    878    881     1
    879   1815     1
    880    887     1
    880   1814     1
    881    887     1
    881   1814     1
    882   1840     1
    883    888     1
    883   1839     1
    884    888     1
    884   1839     1
    885   1795     1
    885   1796     1
    886   1820     1
    886   1821     1
    887   1815     1
    888   1840     1
    891    915     1
    891    899     1
    891    900     1
    891    902     1
    891    903     1
    892    914     1
    892    895     1
    892    896     1
    892    898     1
    892    901     1
    893    914     1
    893    895     1
    893    896     1
    893    898     1
    893    901     1
    895    897     1
    895    915     1
    896    897     1
    896    915     1
    897    908     1
    897    909     1
    897    905     1
    897    906     1
    898    902     1
    898    903     1
    899    901     1
    899    911     1
    899    908     1
    899    909     1
    900    901     1
    900    911     1
    900    908     1
    900    909     1
    902    910     1
    902    905     1
    902    906     1
    903    910     1
    903    905     1
    903    906     1
    904   1865     1
    905    912     1
    905   1864     1
    906    912     1
    906   1864     1
    907   1890     1
    908    913     1
    908   1889     1
    909    913     1
    909   1889     1
    910   1845     1
    910   1846     1
    911   1870     1
    911   1871     1
    912   1865     1
    913   1890     1
    916    940     1
    916    924     1
    916    925     1
    916    927     1
    916    928     1
    917    939     1
    917    920     1
    917    921     1
    917    923     1
    917    926     1
    918    939     1
    918    920     1
    918    921     1
    918    923     1
    918    926     1
    920    922     1
    920    940     1
    921    922     1
    921    940     1
    922    933     1
    922    934     1
    922    930     1
    922    931     1
    923    927     1
    923    928     1
    924    926     1
    924    936     1
    924    933     1
    924    934     1
    925    926     1
    925    936     1
    925    933     1
    925    934     1
    927    935     1
    927    930     1
    927    931     1
    928    935     1
    928    930     1
    928    931     1
    929   1915     1
    930    937     1
    930   1914     1
    931    937     1
    931   1914     1
    932   1940     1
    933    938     1
    933   1939     1
    934    938     1
    934   1939     1
    935   1895     1
    935   1896     1
    936   1920     1
    936   1921     1
    937   1915     1
    938   1940     1
    941    965     1
    941    949     1
    941    950     1
    941    952     1
    941    953     1
    942    964     1
    942    945     1
    942    946     1
    942    948     1
    942    951     1
    943    964     1
    943    945     1
    943    946     1
    943    948     1
    943    951     1
    945    947     1
    945    965     1
    946    947     1
    946    965     1
    947    958     1
    947    959     1
    947    955     1
    947    956     1
    948    952     1
    948    953     1
    949    951     1
    949    961     1
    949    958     1
    949    959     1
    950    951     1
    950    961     1
    950    958     1
    950    959     1
    952    960     1
    952    955     1
    952    956     1
    953    960     1
    953    955     1
    953    956     1
    954   1965     1
    955    962     1
    955   1964     1
    956    962     1
    956   1964     1
    957   1990     1
    958    963     1
    958   1989     1
    959    963     1
    959   1989     1
    960   1945     1
    960   1946     1
    961   1970     1
    961   1971     1
    962   1965     1
    963   1990     1
    966    990     1
    966    974     1
    966    975     1
    966    977     1
    966    978     1
    967    989     1
    967    970     1
    967    971     1
    967    973     1
    967    976     1
    968    989     1
    968    970     1
    968    971     1
    968    973     1
    968    976     1
    970    972     1
    970    990     1
    971    972     1
    971    990     1
    972    983     1
    972    984     1
    972    980     1
    972    981     1
    973    977     1
    973    978     1
    974    976     1
    974    986     1
    974    983     1
    974    984     1
    975    976     1
    975    986     1
    975    983     1
    975    984     1
    977    985     1
    977    980     1
    977    981     1
    978    985     1
    978    980     1
    978    981     1
    979   2015     1
    980    987     1
    980   2014     1
    981    987     1
    981   2014     1
    982   2040     1
    983    988     1
    983   2039     1
    984    988     1
    984   2039     1
    985   1995     1
    985   1996     1
    986   2020     1
    986   2021     1
    987   2015     1
    988   2040     1
    991   1015     1
    991    999     1
    991   1000     1
    991   1002     1
    991   1003     1
    992   1014     1
    992    995     1
    992    996     1
    992    998     1
    992   1001     1
    993   1014     1
    993    995     1
    993    996     1
    993    998     1
    993   1001     1
    995    997     1
    995   1015     1
    996    997     1
    996   1015     1
    997   1008     1
    997   1009     1
    997   1005     1
    997   1006     1
    998   1002     1
    998   1003     1
    999   1001     1
    999   1011     1
    999   1008     1
    999   1009     1
   1000   1001     1
   1000   1011     1
   1000   1008     1
   1000   1009     1
   1002   1010     1
   1002   1005     1
   1002   1006     1
   1003   1010     1
   1003   1005     1
   1003   1006     1
   1004   2065     1
   1005   1012     1
   1005   2064     1
   1006   1012     1
   1006   2064     1
   1007   2090     1
   1008   1013     1
   1008   2089     1
   1009   1013     1
   1009   2089     1
   1010   2045     1
   1010   2046     1
   1011   2070     1
   1011   2071     1
   1012   2065     1
   1013   2090     1
   1016   1040     1
   1016   1024     1
   1016   1025     1
   1016   1027     1
   1016   1028     1
   1017   1039     1
   1017   1020     1
   1017   1021     1
   1017   1023     1
   1017   1026     1
   1018   1039     1
   1018   1020     1
   1018   1021     1
   1018   1023     1
   1018   1026     1
   1020   1022     1
   1020   1040     1
   1021   1022     1
   1021   1040     1
   1022   1033     1
   1022   1034     1
   1022   1030     1
   1022   1031     1
   1023   1027     1
   1023   1028     1
   1024   1026     1
   1024   1036     1
   1024   1033     1
   1024   1034     1
   1025   1026     1
   1025   1036     1
   1025   1033     1
   1025   1034     1
   1027   1035     1
   1027   1030     1
   1027   1031     1
   1028   1035     1
   1028   1030     1
   1028   1031     1
   1029   2115     1
   1030   1037     1
   1030   2114     1
   1031   1037     1
   1031   2114     1
   1032   2140     1
   1033   1038     1
   1033   2139     1
   1034   1038     1
   1034   2139     1
   1035   2095     1
   1035   2096     1
   1036   2120     1
   1036   2121     1
   1037   2115     1
   1038   2140     1
   1041   1065     1
   1041   1049     1
   1041   1050     1
   1041   1052     1
   1041   1053     1
   1042   1064     1
   1042   1045     1
   1042   1046     1
   1042   1048     1
   1042   1051     1
   1043   1064     1
   1043   1045     1
   1043   1046     1
   1043   1048     1
   1043   1051     1
   1045   1047     1
   1045   1065     1
   1046   1047     1
   1046   1065     1
   1047   1058     1
   1047   1059     1
   1047   1055     1
   1047   1056     1
   1048   1052     1
   1048   1053     1
   1049   1051     1
   1049   1061     1
   1049   1058     1
   1049   1059     1
   1050   1051     1
   1050   1061     1
   1050   1058     1
   1050   1059     1
   1052   1060     1
   1052   1055     1
   1052   1056     1
   1053   1060     1
   1053   1055     1
   1053   1056     1
   1054   2165     1
   1055   1062     1
   1055   2164     1
   1056   1062     1
   1056   2164     1
   1057   2190     1
   1058   1063     1
   1058   2189     1
   1059   1063     1
   1059   2189     1
   1060   2145     1
   1060   2146     1
   1061   2170     1
   1061   2171     1
   1062   2165     1
   1063   2190     1
   1066   1090     1
   1066   1074     1
   1066   1075     1
   1066   1077     1
   1066   1078     1
   1067   1089     1
   1067   1070     1
   1067   1071     1
   1067   1073     1
   1067   1076     1
   1068   1089     1
   1068   1070     1
   1068   1071     1
   1068   1073     1
   1068   1076     1
   1070   1072     1
   1070   1090     1
   1071   1072     1
   1071   1090     1
   1072   1083     1
   1072   1084     1
   1072   1080     1
   1072   1081     1
   1073   1077     1
   1073   1078     1
   1074   1076     1
   1074   1086     1
   1074   1083     1
   1074   1084     1
   1075   1076     1
   1075   1086     1
   1075   1083     1
   1075   1084     1
   1077   1085     1
   1077   1080     1
   1077   1081     1
   1078   1085     1
   1078   1080     1
   1078   1081     1
   1079   2215     1
   1080   1087     1
   1080   2214     1
   1081   1087     1
   1081   2214     1
   1082   2240     1
   1083   1088     1
   1083   2239     1
   1084   1088     1
   1084   2239     1
   1085   2195     1
   1085   2196     1
   1086   2220     1
   1086   2221     1
   1087   2215     1
   1088   2240     1
   1091   1115     1
   1091   1099     1
   1091   1100     1
   1091   1102     1
   1091   1103     1
   1092   1114     1
   1092   1095     1
   1092   1096     1
   1092   1098     1
   1092   1101     1
   1093   1114     1
   1093   1095     1
   1093   1096     1
   1093   1098     1
   1093   1101     1
   1095   1097     1
   1095   1115     1
   1096   1097     1
   1096   1115     1
   1097   1108     1
   1097   1109     1
   1097   1105     1
   1097   1106     1
   1098   1102     1
   1098   1103     1
   1099   1101     1
   1099   1111     1
   1099   1108     1
   1099   1109     1
   1100   1101     1
   1100   1111     1
   1100   1108     1
   1100   1109     1
   1102   1110     1
   1102   1105     1
   1102   1106     1
   1103   1110     1
   1103   1105     1
   1103   1106     1
   1104   2265     1
   1105   1112     1
   1105   2264     1
   1106   1112     1
   1106   2264     1
   1107   2290     1
   1108   1113     1
   1108   2289     1
   1109   1113     1
   1109   2289     1
   1110   2245     1
   1110   2246     1
   1111   2270     1
   1111   2271     1
   1112   2265     1
   1113   2290     1
   1116   1140     1
   1116   1124     1
   1116   1125     1
   1116   1127     1
   1116   1128     1
   1117   1139     1
   1117   1120     1
   1117   1121     1
   1117   1123     1
   1117   1126     1
   1118   1139     1
   1118   1120     1
   1118   1121     1
   1118   1123     1
   1118   1126     1
   1120   1122     1
   1120   1140     1
   1121   1122     1
   1121   1140     1
   1122   1133     1
   1122   1134     1
   1122   1130     1
   1122   1131     1
   1123   1127     1
   1123   1128     1
   1124   1126     1
   1124   1136     1
   1124   1133     1
   1124   1134     1
   1125   1126     1
   1125   1136     1
   1125   1133     1
   1125   1134     1
   1127   1135     1
   1127   1130     1
   1127   1131     1
   1128   1135     1
   1128   1130     1
   1128   1131     1
   1129   2315     1
   1130   1137     1
   1130   2314     1
   1131   1137     1
   1131   2314     1
   1132   2340     1
   1133   1138     1
   1133   2339     1
   1134   1138     1
   1134   2339     1
   1135   2295     1
   1135   2296     1
   1136   2320     1
   1136   2321     1
   1137   2315     1
   1138   2340     1
   1141   1165     1
   1141   1149     1
   1141   1150     1
   1141   1152     1
   1141   1153     1
   1142   1164     1
   1142   1145     1
   1142   1146     1
   1142   1148     1
   1142   1151     1
   1143   1164     1
   1143   1145     1
   1143   1146     1
   1143   1148     1
   1143   1151     1
   1145   1147     1
   1145   1165     1
   1146   1147     1
   1146   1165     1
   1147   1158     1
   1147   1159     1
   1147   1155     1
   1147   1156     1
   1148   1152     1
   1148   1153     1
   1149   1151     1
   1149   1161     1
   1149   1158     1
   1149   1159     1
   1150   1151     1
   1150   1161     1
   1150   1158     1
   1150   1159     1
   1152   1160     1
   1152   1155     1
   1152   1156     1
   1153   1160     1
   1153   1155     1
   1153   1156     1
   1154   2365     1
   1155   1162     1
   1155   2364     1
   1156   1162     1
   1156   2364     1
   1157   2390     1
   1158   1163     1
   1158   2389     1
   1159   1163     1
   1159   2389     1
   1160   2345     1
   1160   2346     1
   1161   2370     1
   1161   2371     1
   1162   2365     1
   1163   2390     1
   1166   1190     1
   1166   1174     1
   1166   1175     1
   1166   1177     1
   1166   1178     1
   1167   1189     1
   1167   1170     1
   1167   1171     1
   1167   1173     1
   1167   1176     1
   1168   1189     1
   1168   1170     1
   1168   1171     1
   1168   1173     1
   1168   1176     1
   1170   1172     1
   1170   1190     1
   1171   1172     1
   1171   1190     1
   1172   1183     1
   1172   1184     1
   1172   1180     1
   1172   1181     1
   1173   1177     1
   1173   1178     1
   1174   1176     1
   1174   1186     1
   1174   1183     1
   1174   1184     1
   1175   1176     1
   1175   1186     1
   1175   1183     1
   1175   1184     1
   1177   1185     1
   1177   1180     1
   1177   1181     1
   1178   1185     1
   1178   1180     1
   1178   1181     1
   1179   2415     1
   1180   1187     1
   1180   2414     1
   1181   1187     1
   1181   2414     1
   1182   2440     1
   1183   1188     1
   1183   2439     1
   1184   1188     1
   1184   2439     1
   1185   2395     1
   1185   2396     1
   1186   2420     1
   1186   2421     1
   1187   2415     1
   1188   2440     1
   1191   1215     1
   1191   1199     1
   1191   1200     1
   1191   1202     1
   1191   1203     1
   1192   1214     1
   1192   1195     1
   1192   1196     1
   1192   1198     1
   1192   1201     1
   1193   1214     1
   1193   1195     1
   1193   1196     1
   1193   1198     1
   1193   1201     1
   1195   1197     1
   1195   1215     1
   1196   1197     1
   1196   1215     1
   1197   1208     1
   1197   1209     1
   1197   1205     1
   1197   1206     1
   1198   1202     1
   1198   1203     1
   1199   1201     1
   1199   1211     1
   1199   1208     1
   1199   1209     1
   1200   1201     1
   1200   1211     1
   1200   1208     1
   1200   1209     1
   1202   1210     1
   1202   1205     1
   1202   1206     1
   1203   1210     1
   1203   1205     1
   1203   1206     1
   1204   2465     1
   1205   1212     1
   1205   2464     1
   1206   1212     1
   1206   2464     1
   1207   2490     1
   1208   1213     1
   1208   2489     1
   1209   1213     1
   1209   2489     1
   1210   2445     1
   1210   2446     1
   1211   2470     1
   1211   2471     1
   1212   2465     1
   1213   2490     1
   1216   1240     1
   1216   1224     1
   1216   1225     1
   1216   1227     1
   1216   1228     1
   1217   1239     1
   1217   1220     1
   1217   1221     1
   1217   1223     1
   1217   1226     1
   1218   1239     1
   1218   1220     1
   1218   1221     1
   1218   1223     1
   1218   1226     1
   1220   1222     1
   1220   1240     1
   1221   1222     1
   1221   1240     1
   1222   1233     1
   1222   1234     1
   1222   1230     1
   1222   1231     1
   1223   1227     1
   1223   1228     1
   1224   1226     1
   1224   1236     1
   1224   1233     1
   1224   1234     1
   1225   1226     1
   1225   1236     1
   1225   1233     1
   1225   1234     1
   1227   1235     1
   1227   1230     1
   1227   1231     1
   1228   1235     1
   1228   1230     1
   1228   1231     1
   1229   2515     1
   1230   1237     1
   1230   2514     1
   1231   1237     1
   1231   2514     1
   1232   2540     1
   1233   1238     1
   1233   2539     1
   1234   1238     1
   1234   2539     1
   1235   2495     1
   1235   2496     1
   1236   2520     1
   1236   2521     1
   1237   2515     1
   1238   2540     1
   1241   1265     1
   1241   1249     1
   1241   1250     1
   1241   1252     1
   1241   1253     1
   1242   1264     1
   1242   1245     1
   1242   1246     1
   1242   1248     1
   1242   1251     1
   1243   1264     1
   1243   1245     1
   1243   1246     1
   1243   1248     1
   1243   1251     1
   1245   1247     1
   1245   1265     1
   1246   1247     1
   1246   1265     1
   1247   1258     1
   1247   1259     1
   1247   1255     1
   1247   1256     1
   1248   1252     1
   1248   1253     1
   1249   1251     1
   1249   1261     1
   1249   1258     1
   1249   1259     1
   1250   1251     1
   1250   1261     1
   1250   1258     1
   1250   1259     1
   1252   1260     1
   1252   1255     1
   1252   1256     1
   1253   1260     1
   1253   1255     1
   1253   1256     1
   1254   2565     1
   1255   1262     1
   1255   2564     1
   1256   1262     1
   1256   2564     1
   1257   2590     1
   1258   1263     1
   1258   2589     1
   1259   1263     1
   1259   2589     1
   1260   2545     1
   1260   2546     1
   1261   2570     1
   1261   2571     1
   1262   2565     1
   1263   2590     1
   1266   1290     1
   1266   1274     1
   1266   1275     1
   1266   1277     1
   1266   1278     1
   1267   1289     1
   1267   1270     1
   1267   1271     1
   1267   1273     1
   1267   1276     1
   1268   1289     1
   1268   1270     1
   1268   1271     1
   1268   1273     1
   1268   1276     1
   1270   1272     1
   1270   1290     1
   1271   1272     1
   1271   1290     1
   1272   1283     1
   1272   1284     1
   1272   1280     1
   1272   1281     1
   1273   1277     1
   1273   1278     1
   1274   1276     1
   1274   1286     1
   1274   1283     1
   1274   1284     1
   1275   1276     1
   1275   1286     1
   1275   1283     1
   1275   1284     1
   1277   1285     1
   1277   1280     1
   1277   1281     1
   1278   1285     1
   1278   1280     1
   1278   1281     1
   1279   2615     1
   1280   1287     1
   1280   2614     1
   1281   1287     1
   1281   2614     1
   1282   2640     1
   1283   1288     1
   1283   2639     1
   1284   1288     1
   1284   2639     1
   1285   2595     1
   1285   2596     1
   1286   2620     1
   1286   2621     1
   1287   2615     1
   1288   2640     1
   1291   1315     1
   1291   1299     1
   1291   1300     1
   1291   1302     1
   1291   1303     1
   1292   1314     1
   1292   1295     1
   1292   1296     1
   1292   1298     1
   1292   1301     1
   1293   1314     1
   1293   1295     1
   1293   1296     1
   1293   1298     1
   1293   1301     1
   1295   1297     1
   1295   1315     1
   1296   1297     1
   1296   1315     1
   1297   1308     1
   1297   1309     1
   1297   1305     1
   1297   1306     1
   1298   1302     1
   1298   1303     1
   1299   1301     1
   1299   1311     1
   1299   1308     1
   1299   1309     1
   1300   1301     1
   1300   1311     1
   1300   1308     1
   1300   1309     1
   1302   1310     1
   1302   1305     1
   1302   1306     1
   1303   1310     1
   1303   1305     1
   1303   1306     1
   1304   2665     1
   1305   1312     1
   1305   2664     1
   1306   1312     1
   1306   2664     1
   1307   2690     1
   1308   1313     1
   1308   2689     1
   1309   1313     1
   1309   2689     1
   1310   2645     1
   1310   2646     1
   1311   2670     1
   1311   2671     1
   1312   2665     1
   1313   2690     1
   1316   1340     1
   1316   1324     1
   1316   1325     1
   1316   1327     1
   1316   1328     1
   1317   1339     1
   1317   1320     1
   1317   1321     1
   1317   1323     1
   1317   1326     1
   1318   1339     1
   1318   1320     1
   1318   1321     1
   1318   1323     1
   1318   1326     1
   1320   1322     1
   1320   1340     1
   1321   1322     1
   1321   1340     1
   1322   1333     1
   1322   1334     1
   1322   1330     1
   1322   1331     1
   1323   1327     1
   1323   1328     1
   1324   1326     1
   1324   1336     1
   1324   1333     1
   1324   1334     1
   1325   1326     1
   1325   1336     1
   1325   1333     1
   1325   1334     1
   1327   1335     1
   1327   1330     1
   1327   1331     1
   1328   1335     1
   1328   1330     1
   1328   1331     1
   1329   2715     1
   1330   1337     1
   1330   2714     1
   1331   1337     1
   1331   2714     1
   1332   2740     1
   1333   1338     1
   1333   2739     1
   1334   1338     1
   1334   2739     1
   1335   2695     1
   1335   2696     1
   1336   2720     1
   1336   2721     1
   1337   2715     1
   1338   2740     1
   1341   1365     1
   1341   1349     1
   1341   1350     1
   1341   1352     1
   1341   1353     1
   1342   1364     1
   1342   1345     1
   1342   1346     1
   1342   1348     1
   1342   1351     1
   1343   1364     1
   1343   1345     1
   1343   1346     1
   1343   1348     1
   1343   1351     1
   1345   1347     1
   1345   1365     1
   1346   1347     1
   1346   1365     1
   1347   1358     1
   1347   1359     1
   1347   1355     1
   1347   1356     1
   1348   1352     1
   1348   1353     1
   1349   1351     1
   1349   1361     1
   1349   1358     1
   1349   1359     1
   1350   1351     1
   1350   1361     1
   1350   1358     1
   1350   1359     1
   1352   1360     1
   1352   1355     1
   1352   1356     1
   1353   1360     1
   1353   1355     1
   1353   1356     1
   1354   2765     1
   1355   1362     1
   1355   2764     1
   1356   1362     1
   1356   2764     1
   1357   2790     1
   1358   1363     1
   1358   2789     1
   1359   1363     1
   1359   2789     1
   1360   2745     1
   1360   2746     1
   1361   2770     1
   1361   2771     1
   1362   2765     1
   1363   2790     1
   1366   1390     1
   1366   1374     1
   1366   1375     1
   1366   1377     1
   1366   1378     1
   1367   1389     1
   1367   1370     1
   1367   1371     1
   1367   1373     1
   1367   1376     1
   1368   1389     1
   1368   1370     1
   1368   1371     1
   1368   1373     1
   1368   1376     1
   1370   1372     1
   1370   1390     1
   1371   1372     1
   1371   1390     1
   1372   1383     1
   1372   1384     1
   1372   1380     1
   1372   1381     1
   1373   1377     1
   1373   1378     1
   1374   1376     1
   1374   1386     1
   1374   1383     1
   1374   1384     1
   1375   1376     1
   1375   1386     1
   1375   1383     1
   1375   1384     1
   1377   1385     1
   1377   1380     1
   1377   1381     1
   1378   1385     1
   1378   1380     1
   1378   1381     1
   1379   2815     1
   1380   1387     1
   1380   2814     1
   1381   1387     1
   1381   2814     1
   1382   2840     1
   1383   1388     1
   1383   2839     1
   1384   1388     1
   1384   2839     1
   1385   2795     1
   1385   2796     1
   1386   2820     1
   1386   2821     1
   1387   2815     1
   1388   2840     1
   1391   1415     1
   1391   1399     1
   1391   1400     1
   1391   1402     1
   1391   1403     1
   1392   1414     1
   1392   1395     1
   1392   1396     1
   1392   1398     1
   1392   1401     1
   1393   1414     1
   1393   1395     1
   1393   1396     1
   1393   1398     1
   1393   1401     1
   1395   1397     1
   1395   1415     1
   1396   1397     1
   1396   1415     1
   1397   1408     1
   1397   1409     1
   1397   1405     1
   1397   1406     1
   1398   1402     1
   1398   1403     1
   1399   1401     1
   1399   1411     1
   1399   1408     1
   1399   1409     1
   1400   1401     1
   1400   1411     1
   1400   1408     1
   1400   1409     1
   1402   1410     1
   1402   1405     1
   1402   1406     1
   1403   1410     1
   1403   1405     1
   1403   1406     1
   1404   2865     1
   1405   1412     1
   1405   2864     1
   1406   1412     1
   1406   2864     1
   1407   2890     1
   1408   1413     1
   1408   2889     1
   1409   1413     1
   1409   2889     1
   1410   2845     1
   1410   2846     1
   1411   2870     1
   1411   2871     1
   1412   2865     1
   1413   2890     1
   1416   1440     1
   1416   1424     1
   1416   1425     1
   1416   1427     1
   1416   1428     1
   1417   1439     1
   1417   1420     1
   1417   1421     1
   1417   1423     1
   1417   1426     1
   1418   1439     1
   1418   1420     1
   1418   1421     1
   1418   1423     1
   1418   1426     1
   1420   1422     1
   1420   1440     1
   1421   1422     1
   1421   1440     1
   1422   1433     1
   1422   1434     1
   1422   1430     1
   1422   1431     1
   1423   1427     1
   1423   1428     1
   1424   1426     1
   1424   1436     1
   1424   1433     1
   1424   1434     1
   1425   1426     1
   1425   1436     1
   1425   1433     1
   1425   1434     1
   1427   1435     1
   1427   1430     1
   1427   1431     1
   1428   1435     1
   1428   1430     1
   1428   1431     1
   1429   2915     1
   1430   1437     1
   1430   2914     1
   1431   1437     1
   1431   2914     1
   1432   2940     1
   1433   1438     1
   1433   2939     1
   1434   1438     1
   1434   2939     1
   1435   2895     1
   1435   2896     1
   1436   2920     1
   1436   2921     1
   1437   2915     1
   1438   2940     1
   1441   1465     1
   1441   1449     1
   1441   1450     1
   1441   1452     1
   1441   1453     1
   1442   1464     1
   1442   1445     1
   1442   1446     1
   1442   1448     1
   1442   1451     1
   1443   1464     1
   1443   1445     1
   1443   1446     1
   1443   1448     1
   1443   1451     1
   1445   1447     1
   1445   1465     1
   1446   1447     1
   1446   1465     1
   1447   1458     1
   1447   1459     1
   1447   1455     1
   1447   1456     1
   1448   1452     1
   1448   1453     1
   1449   1451     1
   1449   1461     1
   1449   1458     1
   1449   1459     1
   1450   1451     1
   1450   1461     1
   1450   1458     1
   1450   1459     1
   1452   1460     1
   1452   1455     1
   1452   1456     1
   1453   1460     1
   1453   1455     1
   1453   1456     1
   1454   2965     1
   1455   1462     1
   1455   2964     1
   1456   1462     1
   1456   2964     1
   1457   2990     1
   1458   1463     1
   1458   2989     1
   1459   1463     1
   1459   2989     1
   1460   2945     1
   1460   2946     1
   1461   2970     1
   1461   2971     1
   1462   2965     1
   1463   2990     1
   1466   1490     1
   1466   1474     1
   1466   1475     1
   1466   1477     1
   1466   1478     1
   1467   1489     1
   1467   1470     1
   1467   1471     1
   1467   1473     1
   1467   1476     1
   1468   1489     1
   1468   1470     1
   1468   1471     1
   1468   1473     1
   1468   1476     1
   1470   1472     1
   1470   1490     1
   1471   1472     1
   1471   1490     1
   1472   1483     1
   1472   1484     1
   1472   1480     1
   1472   1481     1
   1473   1477     1
   1473   1478     1
   1474   1476     1
   1474   1486     1
   1474   1483     1
   1474   1484     1
   1475   1476     1
   1475   1486     1
   1475   1483     1
   1475   1484     1
   1477   1485     1
   1477   1480     1
   1477   1481     1
   1478   1485     1
   1478   1480     1
   1478   1481     1
   1479   3015     1
   1480   1487     1
   1480   3014     1
   1481   1487     1
   1481   3014     1
   1482   3040     1
   1483   1488     1
   1483   3039     1
   1484   1488     1
   1484   3039     1
   1485   2995     1
   1485   2996     1
   1486   3020     1
   1486   3021     1
   1487   3015     1
   1488   3040     1
   1491   1515     1
   1491   1499     1
   1491   1500     1
   1491   1502     1
   1491   1503     1
   1492   1514     1
   1492   1495     1
   1492   1496     1
   1492   1498     1
   1492   1501     1
   1493   1514     1
   1493   1495     1
   1493   1496     1
   1493   1498     1
   1493   1501     1
   1495   1497     1
   1495   1515     1
   1496   1497     1
   1496   1515     1
   1497   1508     1
   1497   1509     1
   1497   1505     1
   1497   1506     1
   1498   1502     1
   1498   1503     1
   1499   1501     1
   1499   1511     1
   1499   1508     1
   1499   1509     1
   1500   1501     1
   1500   1511     1
   1500   1508     1
   1500   1509     1
   1502   1510     1
   1502   1505     1
   1502   1506     1
   1503   1510     1
   1503   1505     1
   1503   1506     1
   1504   3065     1
   1505   1512     1
   1505   3064     1
   1506   1512     1
   1506   3064     1
   1507   3090     1
   1508   1513     1
   1508   3089     1
   1509   1513     1
   1509   3089     1
   1510   3045     1
   1510   3046     1
   1511   3070     1
   1511   3071     1
   1512   3065     1
   1513   3090     1
   1516   1540     1
   1516   1524     1
   1516   1525     1
   1516   1527     1
   1516   1528     1
   1517   1539     1
   1517   1520     1
   1517   1521     1
   1517   1523     1
   1517   1526     1
   1518   1539     1
   1518   1520     1
   1518   1521     1
   1518   1523     1
   1518   1526     1
   1520   1522     1
   1520   1540     1
   1521   1522     1
   1521   1540     1
   1522   1533     1
   1522   1534     1
   1522   1530     1
   1522   1531     1
   1523   1527     1
   1523   1528     1
   1524   1526     1
   1524   1536     1
   1524   1533     1
   1524   1534     1
   1525   1526     1
   1525   1536     1
   1525   1533     1
   1525   1534     1
   1527   1535     1
   1527   1530     1
   1527   1531     1
   1528   1535     1
   1528   1530     1
   1528   1531     1
   1529   3115     1
   1530   1537     1
   1530   3114     1
   1531   1537     1
   1531   3114     1
   1532   3140     1
   1533   1538     1
   1533   3139     1
   1534   1538     1
   1534   3139     1
   1535   3095     1
   1535   3096     1
   1536   3120     1
   1536   3121     1
   1537   3115     1
   1538   3140     1
   1541   1565     1
   1541   1549     1
   1541   1550     1
   1541   1552     1
   1541   1553     1
   1542   1564     1
   1542   1545     1
   1542   1546     1
   1542   1548     1
   1542   1551     1
   1543   1564     1
   1543   1545     1
   1543   1546     1
   1543   1548     1
   1543   1551     1
   1545   1547     1
   1545   1565     1
   1546   1547     1
   1546   1565     1
   1547   1558     1
   1547   1559     1
   1547   1555     1
   1547   1556     1
   1548   1552     1
   1548   1553     1
   1549   1551     1
   1549   1561     1
   1549   1558     1
   1549   1559     1
   1550   1551     1
   1550   1561     1
   1550   1558     1
   1550   1559     1
   1552   1560     1
   1552   1555     1
   1552   1556     1
   1553   1560     1
   1553   1555     1
   1553   1556     1
   1554   3142     1
   1555   3141     1
   1555   1562     1
   1556   3141     1
   1556   1562     1
   1557   3154     1
   1558   1563     1
   1558   3153     1
   1559   1563     1
   1559   3153     1
   1560   3145     1
   1560   3146     1
   1561   3157     1
   1561   3158     1
   1562   3142     1
   1563   3154     1
   1566   1590     1
   1566   1574     1
   1566   1575     1
   1566   1577     1
   1566   1578     1
   1567   1589     1
   1567   1570     1
   1567   1571     1
   1567   1573     1
   1567   1576     1
   1568   1589     1
   1568   1570     1
   1568   1571     1
   1568   1573     1
   1568   1576     1
   1570   1572     1
   1570   1590     1
   1571   1572     1
   1571   1590     1
   1572   1583     1
   1572   1584     1
   1572   1580     1
   1572   1581     1
   1573   1577     1
   1573   1578     1
   1574   1576     1
   1574   1586     1
   1574   1583     1
   1574   1584     1
   1575   1576     1
   1575   1586     1
   1575   1583     1
   1575   1584     1
   1577   1585     1
   1577   1580     1
   1577   1581     1
   1578   1585     1
   1578   1580     1
   1578   1581     1
   1579   3166     1
   1580   3165     1
   1580   1587     1
   1581   3165     1
   1581   1587     1
   1582   3178     1
   1583   1588     1
   1583   3177     1
   1584   1588     1
   1584   3177     1
   1585   3169     1
   1585   3170     1
   1586   3181     1
   1586   3182     1
   1587   3166     1
   1588   3178     1
   1591   1615     1
   1591   1599     1
   1591   1600     1
   1591   1602     1
   1591   1603     1
   1592   1614     1
   1592   1595     1
   1592   1596     1
   1592   1598     1
   1592   1601     1
   1593   1614     1
   1593   1595     1
   1593   1596     1
   1593   1598     1
   1593   1601     1
   1595   1597     1
   1595   1615     1
   1596   1597     1
   1596   1615     1
   1597   1608     1
   1597   1609     1
   1597   1605     1
   1597   1606     1
   1598   1602     1
   1598   1603     1
   1599   1601     1
   1599   1611     1
   1599   1608     1
   1599   1609     1
   1600   1601     1
   1600   1611     1
   1600   1608     1
   1600   1609     1
   1602   1610     1
   1602   1605     1
   1602   1606     1
   1603   1610     1
   1603   1605     1
   1603   1606     1
   1604   3190     1
   1605   3189     1
   1605   1612     1
   1606   3189     1
   1606   1612     1
   1607   3202     1
   1608   1613     1
   1608   3201     1
   1609   1613     1
   1609   3201     1
   1610   3193     1
   1610   3194     1
   1611   3205     1
   1611   3206     1
   1612   3190     1
   1613   3202     1
   1616   1640     1
   1616   1624     1
   1616   1625     1
   1616   1627     1
   1616   1628     1
   1617   1639     1
   1617   1620     1
   1617   1621     1
   1617   1623     1
   1617   1626     1
   1618   1639     1
   1618   1620     1
   1618   1621     1
   1618   1623     1
   1618   1626     1
   1620   1622     1
   1620   1640     1
   1621   1622     1
   1621   1640     1
   1622   1633     1
   1622   1634     1
   1622   1630     1
   1622   1631     1
   1623   1627     1
   1623   1628     1
   1624   1626     1
   1624   1636     1
   1624   1633     1
   1624   1634     1
   1625   1626     1
   1625   1636     1
   1625   1633     1
   1625   1634     1
   1627   1635     1
   1627   1630     1
   1627   1631     1
   1628   1635     1
   1628   1630     1
   1628   1631     1
   1629   3214     1
   1630   3213     1
   1630   1637     1
   1631   3213     1
   1631   1637     1
   1632   3226     1
   1633   1638     1
   1633   3225     1
   1634   1638     1
   1634   3225     1
   1635   3217     1
   1635   3218     1
   1636   3229     1
   1636   3230     1
   1637   3214     1
   1638   3226     1
   1641   1665     1
   1641   1649     1
   1641   1650     1
   1641   1652     1
   1641   1653     1
   1642   1664     1
   1642   1645     1
   1642   1646     1
   1642   1648     1
   1642   1651     1
   1643   1664     1
   1643   1645     1
   1643   1646     1
   1643   1648     1
   1643   1651     1
   1645   1647     1
   1645   1665     1
   1646   1647     1
   1646   1665     1
   1647   1658     1
   1647   1659     1
   1647   1655     1
   1647   1656     1
   1648   1652     1
   1648   1653     1
   1649   1651     1
   1649   1661     1
   1649   1658     1
   1649   1659     1
   1650   1651     1
   1650   1661     1
   1650   1658     1
   1650   1659     1
   1652   1660     1
   1652   1655     1
   1652   1656     1
   1653   1660     1
   1653   1655     1
   1653   1656     1
   1654   3238     1
   1655   3237     1
   1655   1662     1
   1656   3237     1
   1656   1662     1
   1657   3250     1
   1658   1663     1
   1658   3249     1
   1659   1663     1
   1659   3249     1
   1660   3241     1
   1660   3242     1
   1661   3253     1
   1661   3254     1
   1662   3238     1
   1663   3250     1
   1666   1690     1
   1666   1674     1
   1666   1675     1
   1666   1677     1
   1666   1678     1
   1667   1689     1
   1667   1670     1
   1667   1671     1
   1667   1673     1
   1667   1676     1
   1668   1689     1
   1668   1670     1
   1668   1671     1
   1668   1673     1
   1668   1676     1
   1670   1672     1
   1670   1690     1
   1671   1672     1
   1671   1690     1
   1672   1683     1
   1672   1684     1
   1672   1680     1
   1672   1681     1
   1673   1677     1
   1673   1678     1
   1674   1676     1
   1674   1686     1
   1674   1683     1
   1674   1684     1
   1675   1676     1
   1675   1686     1
   1675   1683     1
   1675   1684     1
   1677   1685     1
   1677   1680     1
   1677   1681     1
   1678   1685     1
   1678   1680     1
   1678   1681     1
   1679   3262     1
   1680   3261     1
   1680   1687     1
   1681   3261     1
   1681   1687     1
   1682   3274     1
   1683   1688     1
   1683   3273     1
   1684   1688     1
   1684   3273     1
   1685   3265     1
   1685   3266     1
   1686   3277     1
   1686   3278     1
   1687   3262     1
   1688   3274     1
   1691   1715     1
   1691   1699     1
   1691   1700     1
   1691   1702     1
   1691   1703     1
   1692   1714     1
   1692   1695     1
   1692   1696     1
   1692   1698     1
   1692   1701     1
   1693   1714     1
   1693   1695     1
   1693   1696     1
   1693   1698     1
   1693   1701     1
   1695   1697     1
   1695   1715     1
   1696   1697     1
   1696   1715     1
   1697   1708     1
   1697   1709     1
   1697   1705     1
   1697   1706     1
   1698   1702     1
   1698   1703     1
   1699   1701     1
   1699   1711     1
   1699   1708     1
   1699   1709     1
   1700   1701     1
   1700   1711     1
   1700   1708     1
   1700   1709     1
   1702   1710     1
   1702   1705     1
   1702   1706     1
   1703   1710     1
   1703   1705     1
   1703   1706     1
   1704   3286     1
   1705   3285     1
   1705   1712     1
   1706   3285     1
   1706   1712     1
   1707   3298     1
   1708   1713     1
   1708   3297     1
   1709   1713     1
   1709   3297     1
   1710   3289     1
   1710   3290     1
   1711   3301     1
   1711   3302     1
   1712   3286     1
   1713   3298     1
   1716   1740     1
   1716   1724     1
   1716   1725     1
   1716   1727     1
   1716   1728     1
   1717   1739     1
   1717   1720     1
   1717   1721     1
   1717   1723     1
   1717   1726     1
   1718   1739     1
   1718   1720     1
   1718   1721     1
   1718   1723     1
   1718   1726     1
   1720   1722     1
   1720   1740     1
   1721   1722     1
   1721   1740     1
   1722   1733     1
   1722   1734     1
   1722   1730     1
   1722   1731     1
   1723   1727     1
   1723   1728     1
   1724   1726     1
   1724   1736     1
   1724   1733     1
   1724   1734     1
   1725   1726     1
   1725   1736     1
   1725   1733     1
   1725   1734     1
   1727   1735     1
   1727   1730     1
   1727   1731     1
   1728   1735     1
   1728   1730     1
   1728   1731     1
   1729   3310     1
   1730   3309     1
   1730   1737     1
   1731   3309     1
   1731   1737     1
   1732   3322     1
   1733   1738     1
   1733   3321     1
   1734   1738     1
   1734   3321     1
   1735   3313     1
   1735   3314     1
   1736   3325     1
   1736   3326     1
   1737   3310     1
   1738   3322     1
   1741   1765     1
   1741   1749     1
   1741   1750     1
   1741   1752     1
   1741   1753     1
   1742   1764     1
   1742   1745     1
   1742   1746     1
   1742   1748     1
   1742   1751     1
   1743   1764     1
   1743   1745     1
   1743   1746     1
   1743   1748     1
   1743   1751     1
   1745   1747     1
   1745   1765     1
   1746   1747     1
   1746   1765     1
   1747   1758     1
   1747   1759     1
   1747   1755     1
   1747   1756     1
   1748   1752     1
   1748   1753     1
   1749   1751     1
   1749   1761     1
   1749   1758     1
   1749   1759     1
   1750   1751     1
   1750   1761     1
   1750   1758     1
   1750   1759     1
   1752   1760     1
   1752   1755     1
   1752   1756     1
   1753   1760     1
   1753   1755     1
   1753   1756     1
   1754   3334     1
   1755   3333     1
   1755   1762     1
   1756   3333     1
   1756   1762     1
   1757   3346     1
   1758   1763     1
   1758   3345     1
   1759   1763     1
   1759   3345     1
   1760   3337     1
   1760   3338     1
   1761   3349     1
   1761   3350     1
   1762   3334     1
   1763   3346     1
   1766   1790     1
   1766   1774     1
   1766   1775     1
   1766   1777     1
   1766   1778     1
   1767   1789     1
   1767   1770     1
   1767   1771     1
   1767   1773     1
   1767   1776     1
   1768   1789     1
   1768   1770     1
   1768   1771     1
   1768   1773     1
   1768   1776     1
   1770   1772     1
   1770   1790     1
   1771   1772     1
   1771   1790     1
   1772   1783     1
   1772   1784     1
   1772   1780     1
   1772   1781     1
   1773   1777     1
   1773   1778     1
   1774   1776     1
   1774   1786     1
   1774   1783     1
   1774   1784     1
   1775   1776     1
   1775   1786     1
   1775   1783     1
   1775   1784     1
   1777   1785     1
   1777   1780     1
   1777   1781     1
   1778   1785     1
   1778   1780     1
   1778   1781     1
   1779   3358     1
   1780   3357     1
   1780   1787     1
   1781   3357     1
   1781   1787     1
   1782   3370     1
   1783   1788     1
   1783   3369     1
   1784   1788     1
   1784   3369     1
   1785   3361     1
   1785   3362     1
   1786   3373     1
   1786   3374     1
   1787   3358     1
   1788   3370     1
   1791   1815     1
   1791   1799     1
   1791   1800     1
   1791   1802     1
   1791   1803     1
   1792   1814     1
   1792   1795     1
   1792   1796     1
   1792   1798     1
   1792   1801     1
   1793   1814     1
   1793   1795     1
   1793   1796     1
   1793   1798     1
   1793   1801     1
   1795   1797     1
   1795   1815     1
   1796   1797     1
   1796   1815     1
   1797   1808     1
   1797   1809     1
   1797   1805     1
   1797   1806     1
   1798   1802     1
   1798   1803     1
   1799   1801     1
   1799   1811     1
   1799   1808     1
   1799   1809     1
   1800   1801     1
   1800   1811     1
   1800   1808     1
   1800   1809     1
   1802   1810     1
   1802   1805     1
   1802   1806     1
   1803   1810     1
   1803   1805     1
   1803   1806     1
   1804   3382     1
   1805   3381     1
   1805   1812     1
   1806   3381     1
   1806   1812     1
   1807   3394     1
   1808   1813     1
   1808   3393     1
   1809   1813     1
   1809   3393     1
   1810   3385     1
   1810   3386     1
   1811   3397     1
   1811   3398     1
   1812   3382     1
   1813   3394     1
   1816   1840     1
   1816   1824     1
   1816   1825     1
   1816   1827     1
   1816   1828     1
   1817   1839     1
   1817   1820     1
   1817   1821     1
   1817   1823     1
   1817   1826     1
   1818   1839     1
   1818   1820     1
   1818   1821     1
   1818   1823     1
   1818   1826     1
   1820   1822     1
   1820   1840     1
   1821   1822     1
   1821   1840     1
   1822   1833     1
   1822   1834     1
   1822   1830     1
   1822   1831     1
   1823   1827     1
   1823   1828     1
   1824   1826     1
   1824   1836     1
   1824   1833     1
   1824   1834     1
   1825   1826     1
   1825   1836     1
   1825   1833     1
   1825   1834     1
   1827   1835     1
   1827   1830     1
   1827   1831     1
   1828   1835     1
   1828   1830     1
   1828   1831     1
   1829   3406     1
   1830   3405     1
   1830   1837     1
   1831   3405     1
   1831   1837     1
   1832   3418     1
   1833   1838     1
   1833   3417     1
   1834   1838     1
   1834   3417     1
   1835   3409     1
   1835   3410     1
   1836   3421     1
   1836   3422     1
   1837   3406     1
   1838   3418     1
   1841   1865     1
   1841   1849     1
   1841   1850     1
   1841   1852     1
   1841   1853     1
   1842   1864     1
   1842   1845     1
   1842   1846     1
   1842   1848     1
   1842   1851     1
   1843   1864     1
   1843   1845     1
   1843   1846     1
   1843   1848     1
   1843   1851     1
   1845   1847     1
   1845   1865     1
   1846   1847     1
   1846   1865     1
   1847   1858     1
   1847   1859     1
   1847   1855     1
   1847   1856     1
   1848   1852     1
   1848   1853     1
   1849   1851     1
   1849   1861     1
   1849   1858     1
   1849   1859     1
   1850   1851     1
   1850   1861     1
   1850   1858     1
   1850   1859     1
   1852   1860     1
   1852   1855     1
   1852   1856     1
   1853   1860     1
   1853   1855     1
   1853   1856     1
   1854   3430     1
   1855   3429     1
   1855   1862     1
   1856   3429     1
   1856   1862     1
   1857   3442     1
   1858   1863     1
   1858   3441     1
   1859   1863     1
   1859   3441     1
   1860   3433     1
   1860   3434     1
   1861   3445     1
   1861   3446     1
   1862   3430     1
   1863   3442     1
   1866   1890     1
   1866   1874     1
   1866   1875     1
   1866   1877     1
   1866   1878     1
   1867   1889     1
   1867   1870     1
   1867   1871     1
   1867   1873     1
   1867   1876     1
   1868   1889     1
   1868   1870     1
   1868   1871     1
   1868   1873     1
   1868   1876     1
   1870   1872     1
   1870   1890     1
   1871   1872     1
   1871   1890     1
   1872   1883     1
   1872   1884     1
   1872   1880     1
   1872   1881     1
   1873   1877     1
   1873   1878     1
   1874   1876     1
   1874   1886     1
   1874   1883     1
   1874   1884     1
   1875   1876     1
   1875   1886     1
   1875   1883     1
   1875   1884     1
   1877   1885     1
   1877   1880     1
   1877   1881     1
   1878   1885     1
   1878   1880     1
   1878   1881     1
   1879   3454     1
   1880   3453     1
   1880   1887     1
   1881   3453     1
   1881   1887     1
   1882   3466     1
   1883   1888     1
   1883   3465     1
   1884   1888     1
   1884   3465     1
   1885   3457     1
   1885   3458     1
   1886   3469     1
   1886   3470     1
   1887   3454     1
   1888   3466     1
   1891   1915     1
   1891   1899     1
   1891   1900     1
   1891   1902     1
   1891   1903     1
   1892   1914     1
   1892   1895     1
   1892   1896     1
   1892   1898     1
   1892   1901     1
   1893   1914     1
   1893   1895     1
   1893   1896     1
   1893   1898     1
   1893   1901     1
   1895   1897     1
   1895   1915     1
   1896   1897     1
   1896   1915     1
   1897   1908     1
   1897   1909     1
   1897   1905     1
   1897   1906     1
   1898   1902     1
   1898   1903     1
   1899   1901     1
   1899   1911     1
   1899   1908     1
   1899   1909     1
   1900   1901     1
   1900   1911     1
   1900   1908     1
   1900   1909     1
   1902   1910     1
   1902   1905     1
   1902   1906     1
   1903   1910     1
   1903   1905     1
   1903   1906     1
   1904   3478     1
   1905   3477     1
   1905   1912     1
   1906   3477     1
   1906   1912     1
   1907   3490     1
   1908   1913     1
   1908   3489     1
   1909   1913     1
   1909   3489     1
   1910   3481     1
   1910   3482     1
   1911   3493     1
   1911   3494     1
   1912   3478     1
   1913   3490     1
   1916   1940     1
   1916   1924     1
   1916   1925     1
   1916   1927     1
   1916   1928     1
   1917   1939     1
   1917   1920     1
   1917   1921     1
   1917   1923     1
   1917   1926     1
   1918   1939     1
   1918   1920     1
   1918   1921     1
   1918   1923     1
   1918   1926     1
   1920   1922     1
   1920   1940     1
   1921   1922     1
   1921   1940     1
   1922   1933     1
   1922   1934     1
   1922   1930     1
   1922   1931     1
   1923   1927     1
   1923   1928     1
   1924   1926     1
   1924   1936     1
   1924   1933     1
   1924   1934     1
   1925   1926     1
   1925   1936     1
   1925   1933     1
   1925   1934     1
   1927   1935     1
   1927   1930     1
   1927   1931     1
   1928   1935     1
   1928   1930     1
   1928   1931     1
   1929   3502     1
   1930   3501     1
   1930   1937     1
   1931   3501     1
   1931   1937     1
   1932   3514     1
   1933   1938     1
   1933   3513     1
   1934   1938     1
   1934   3513     1
   1935   3505     1
   1935   3506     1
   1936   3517     1
   1936   3518     1
   1937   3502     1
   1938   3514     1
   1941   1965     1
   1941   1949     1
   1941   1950     1
   1941   1952     1
   1941   1953     1
   1942   1964     1
   1942   1945     1
   1942   1946     1
   1942   1948     1
   1942   1951     1
   1943   1964     1
   1943   1945     1
   1943   1946     1
   1943   1948     1
   1943   1951     1
   1945   1947     1
   1945   1965     1
   1946   1947     1
   1946   1965     1
   1947   1958     1
   1947   1959     1
   1947   1955     1
   1947   1956     1
   1948   1952     1
   1948   1953     1
   1949   1951     1
   1949   1961     1
   1949   1958     1
   1949   1959     1
   1950   1951     1
   1950   1961     1
   1950   1958     1
   1950   1959     1
   1952   1960     1
   1952   1955     1
   1952   1956     1
   1953   1960     1
   1953   1955     1
   1953   1956     1
   1954   3526     1
   1955   3525     1
   1955   1962     1
   1956   3525     1
   1956   1962     1
   1957   3538     1
   1958   1963     1
   1958   3537     1
   1959   1963     1
   1959   3537     1
   1960   3529     1
   1960   3530     1
   1961   3541     1
   1961   3542     1
   1962   3526     1
   1963   3538     1
   1966   1990     1
   1966   1974     1
   1966   1975     1
   1966   1977     1
   1966   1978     1
   1967   1989     1
   1967   1970     1
   1967   1971     1
   1967   1973     1
   1967   1976     1
   1968   1989     1
   1968   1970     1
   1968   1971     1
   1968   1973     1
   1968   1976     1
   1970   1972     1
   1970   1990     1
   1971   1972     1
   1971   1990     1
   1972   1983     1
   1972   1984     1
   1972   1980     1
   1972   1981     1
   1973   1977     1
   1973   1978     1
   1974   1976     1
   1974   1986     1
   1974   1983     1
   1974   1984     1
   1975   1976     1
   1975   1986     1
   1975   1983     1
   1975   1984     1
   1977   1985     1
   1977   1980     1
   1977   1981     1
   1978   1985     1
   1978   1980     1
   1978   1981     1
   1979   3550     1
   1980   3549     1
   1980   1987     1
   1981   3549     1
   1981   1987     1
   1982   3562     1
   1983   1988     1
   1983   3561     1
   1984   1988     1
   1984   3561     1
   1985   3553     1
   1985   3554     1
   1986   3565     1
   1986   3566     1
   1987   3550     1
   1988   3562     1
   1991   2015     1
   1991   1999     1
   1991   2000     1
   1991   2002     1
   1991   2003     1
   1992   2014     1
   1992   1995     1
   1992   1996     1
   1992   1998     1
   1992   2001     1
   1993   2014     1
   1993   1995     1
   1993   1996     1
   1993   1998     1
   1993   2001     1
   1995   1997     1
   1995   2015     1
   1996   1997     1
   1996   2015     1
   1997   2008     1
   1997   2009     1
   1997   2005     1
   1997   2006     1
   1998   2002     1
   1998   2003     1
   1999   2001     1
   1999   2011     1
   1999   2008     1
   1999   2009     1
   2000   2001     1
   2000   2011     1
   2000   2008     1
   2000   2009     1
   2002   2010     1
   2002   2005     1
   2002   2006     1
   2003   2010     1
   2003   2005     1
   2003   2006     1
   2004   3574     1
   2005   3573     1
   2005   2012     1
   2006   3573     1
   2006   2012     1
   2007   3586     1
   2008   2013     1
   2008   3585     1
   2009   2013     1
   2009   3585     1
   2010   3577     1
   2010   3578     1
   2011   3589     1
   2011   3590     1
   2012   3574     1
   2013   3586     1
   2016   2040     1
   2016   2024     1
   2016   2025     1
   2016   2027     1
   2016   2028     1
   2017   2039     1
   2017   2020     1
   2017   2021     1
   2017   2023     1
   2017   2026     1
   2018   2039     1
   2018   2020     1
   2018   2021     1
   2018   2023     1
   2018   2026     1
   2020   2022     1
   2020   2040     1
   2021   2022     1
   2021   2040     1
   2022   2033     1
   2022   2034     1
   2022   2030     1
   2022   2031     1
   2023   2027     1
   2023   2028     1
   2024   2026     1
   2024   2036     1
   2024   2033     1
   2024   2034     1
   2025   2026     1
   2025   2036     1
   2025   2033     1
   2025   2034     1
   2027   2035     1
   2027   2030     1
   2027   2031     1
   2028   2035     1
   2028   2030     1
   2028   2031     1
   2029   3598     1
   2030   3597     1
   2030   2037     1
   2031   3597     1
   2031   2037     1
   2032   3610     1
   2033   2038     1
   2033   3609     1
   2034   2038     1
   2034   3609     1
   2035   3601     1
   2035   3602     1
   2036   3613     1
   2036   3614     1
   2037   3598     1
   2038   3610     1
   2041   2065     1
   2041   2049     1
   2041   2050     1
   2041   2052     1
   2041   2053     1
   2042   2064     1
   2042   2045     1
   2042   2046     1
   2042   2048     1
   2042   2051     1
   2043   2064     1
   2043   2045     1
   2043   2046     1
   2043   2048     1
   2043   2051     1
   2045   2047     1
   2045   2065     1
   2046   2047     1
   2046   2065     1
   2047   2058     1
   2047   2059     1
   2047   2055     1
   2047   2056     1
   2048   2052     1
   2048   2053     1
   2049   2051     1
   2049   2061     1
   2049   2058     1
   2049   2059     1
   2050   2051     1
   2050   2061     1
   2050   2058     1
   2050   2059     1
   2052   2060     1
   2052   2055     1
   2052   2056     1
   2053   2060     1
   2053   2055     1
   2053   2056     1
   2054   3622     1
   2055   3621     1
   2055   2062     1
   2056   3621     1
   2056   2062     1
   2057   3634     1
   2058   2063     1
   2058   3633     1
   2059   2063     1
   2059   3633     1
   2060   3625     1
   2060   3626     1
   2061   3637     1
   2061   3638     1
   2062   3622     1
   2063   3634     1
   2066   2090     1
   2066   2074     1
   2066   2075     1
   2066   2077     1
   2066   2078     1
   2067   2089     1
   2067   2070     1
   2067   2071     1
   2067   2073     1
   2067   2076     1
   2068   2089     1
   2068   2070     1
   2068   2071     1
   2068   2073     1
   2068   2076     1
   2070   2072     1
   2070   2090     1
   2071   2072     1
   2071   2090     1
   2072   2083     1
   2072   2084     1
   2072   2080     1
   2072   2081     1
   2073   2077     1
   2073   2078     1
   2074   2076     1
   2074   2086     1
   2074   2083     1
   2074   2084     1
   2075   2076     1
   2075   2086     1
   2075   2083     1
   2075   2084     1
   2077   2085     1
   2077   2080     1
   2077   2081     1
   2078   2085     1
   2078   2080     1
   2078   2081     1
   2079   3646     1
   2080   3645     1
   2080   2087     1
   2081   3645     1
   2081   2087     1
   2082   3658     1
   2083   2088     1
   2083   3657     1
   2084   2088     1
   2084   3657     1
   2085   3649     1
   2085   3650     1
   2086   3661     1
   2086   3662     1
   2087   3646     1
   2088   3658     1
   2091   2115     1
   2091   2099     1
   2091   2100     1
   2091   2102     1
   2091   2103     1
   2092   2114     1
   2092   2095     1
   2092   2096     1
   2092   2098     1
   2092   2101     1
   2093   2114     1
   2093   2095     1
   2093   2096     1
   2093   2098     1
   2093   2101     1
   2095   2097     1
   2095   2115     1
   2096   2097     1
   2096   2115     1
   2097   2108     1
   2097   2109     1
   2097   2105     1
   2097   2106     1
   2098   2102     1
   2098   2103     1
   2099   2101     1
   2099   2111     1
   2099   2108     1
   2099   2109     1
   2100   2101     1
   2100   2111     1
   2100   2108     1
   2100   2109     1
   2102   2110     1
   2102   2105     1
   2102   2106     1
   2103   2110     1
   2103   2105     1
   2103   2106     1
   2104   3670     1
   2105   3669     1
   2105   2112     1
   2106   3669     1
   2106   2112     1
   2107   3682     1
   2108   2113     1
   2108   3681     1
   2109   2113     1
   2109   3681     1
   2110   3673     1
   2110   3674     1
   2111   3685     1
   2111   3686     1
   2112   3670     1
   2113   3682     1
   2116   2140     1
   2116   2124     1
   2116   2125     1
   2116   2127     1
   2116   2128     1
   2117   2139     1
   2117   2120     1
   2117   2121     1
   2117   2123     1
   2117   2126     1
   2118   2139     1
   2118   2120     1
   2118   2121     1
   2118   2123     1
   2118   2126     1
   2120   2122     1
   2120   2140     1
   2121   2122     1
   2121   2140     1
   2122   2133     1
   2122   2134     1
   2122   2130     1
   2122   2131     1
   2123   2127     1
   2123   2128     1
   2124   2126     1
   2124   2136     1
   2124   2133     1
   2124   2134     1
   2125   2126     1
   2125   2136     1
   2125   2133     1
   2125   2134     1
   2127   2135     1
   2127   2130     1
   2127   2131     1
   2128   2135     1
   2128   2130     1
   2128   2131     1
   2129   3694     1
   2130   3693     1
   2130   2137     1
   2131   3693     1
   2131   2137     1
   2132   3706     1
   2133   2138     1
   2133   3705     1
   2134   2138     1
   2134   3705     1
   2135   3697     1
   2135   3698     1
   2136   3709     1
   2136   3710     1
   2137   3694     1
   2138   3706     1
   2141   2165     1
   2141   2149     1
   2141   2150     1
   2141   2152     1
   2141   2153     1
   2142   2164     1
   2142   2145     1
   2142   2146     1
   2142   2148     1
   2142   2151     1
   2143   2164     1
   2143   2145     1
   2143   2146     1
   2143   2148     1
   2143   2151     1
   2145   2147     1
   2145   2165     1
   2146   2147     1
   2146   2165     1
   2147   2158     1
   2147   2159     1
   2147   2155     1
   2147   2156     1
   2148   2152     1
   2148   2153     1
   2149   2151     1
   2149   2161     1
   2149   2158     1
   2149   2159     1
   2150   2151     1
   2150   2161     1
   2150   2158     1
   2150   2159     1
   2152   2160     1
   2152   2155     1
   2152   2156     1
   2153   2160     1
   2153   2155     1
   2153   2156     1
   2154   3718     1
   2155   3717     1
   2155   2162     1
   2156   3717     1
   2156   2162     1
   2157   3730     1
   2158   2163     1
   2158   3729     1
   2159   2163     1
   2159   3729     1
   2160   3721     1
   2160   3722     1
   2161   3733     1
   2161   3734     1
   2162   3718     1
   2163   3730     1
   2166   2190     1
   2166   2174     1
   2166   2175     1
   2166   2177     1
   2166   2178     1
   2167   2189     1
   2167   2170     1
   2167   2171     1
   2167   2173     1
   2167   2176     1
   2168   2189     1
   2168   2170     1
   2168   2171     1
   2168   2173     1
   2168   2176     1
   2170   2172     1
   2170   2190     1
   2171   2172     1
   2171   2190     1
   2172   2183     1
   2172   2184     1
   2172   2180     1
   2172   2181     1
   2173   2177     1
   2173   2178     1
   2174   2176     1
   2174   2186     1
   2174   2183     1
   2174   2184     1
   2175   2176     1
   2175   2186     1
   2175   2183     1
   2175   2184     1
   2177   2185     1
   2177   2180     1
   2177   2181     1
   2178   2185     1
   2178   2180     1
   2178   2181     1
   2179   3742     1
   2180   3741     1
   2180   2187     1
   2181   3741     1
   2181   2187     1
   2182   3754     1
   2183   2188     1
   2183   3753     1
   2184   2188     1
   2184   3753     1
   2185   3745     1
   2185   3746     1
   2186   3757     1
   2186   3758     1
   2187   3742     1
   2188   3754     1
   2191   2215     1
   2191   2199     1
   2191   2200     1
   2191   2202     1
   2191   2203     1
   2192   2214     1
   2192   2195     1
   2192   2196     1
   2192   2198     1
   2192   2201     1
   2193   2214     1
   2193   2195     1
   2193   2196     1
   2193   2198     1
   2193   2201     1
   2195   2197     1
   2195   2215     1
   2196   2197     1
   2196   2215     1
   2197   2208     1
   2197   2209     1
   2197   2205     1
   2197   2206     1
   2198   2202     1
   2198   2203     1
   2199   2201     1
   2199   2211     1
   2199   2208     1
   2199   2209     1
   2200   2201     1
   2200   2211     1
   2200   2208     1
   2200   2209     1
   2202   2210     1
   2202   2205     1
   2202   2206     1
   2203   2210     1
   2203   2205     1
   2203   2206     1
   2204   3766     1
   2205   3765     1
   2205   2212     1
   2206   3765     1
   2206   2212     1
   2207   3778     1
   2208   2213     1
   2208   3777     1
   2209   2213     1
   2209   3777     1
   2210   3769     1
   2210   3770     1
   2211   3781     1
   2211   3782     1
   2212   3766     1
   2213   3778     1
   2216   2240     1
   2216   2224     1
   2216   2225     1
   2216   2227     1
   2216   2228     1
   2217   2239     1
   2217   2220     1
   2217   2221     1
   2217   2223     1
   2217   2226     1
   2218   2239     1
   2218   2220     1
   2218   2221     1
   2218   2223     1
   2218   2226     1
   2220   2222     1
   2220   2240     1
   2221   2222     1
   2221   2240     1
   2222   2233     1
   2222   2234     1
   2222   2230     1
   2222   2231     1
   2223   2227     1
   2223   2228     1
   2224   2226     1
   2224   2236     1
   2224   2233     1
   2224   2234     1
   2225   2226     1
   2225   2236     1
   2225   2233     1
   2225   2234     1
   2227   2235     1
   2227   2230     1
   2227   2231     1
   2228   2235     1
   2228   2230     1
   2228   2231     1
   2229   3790     1
   2230   3789     1
   2230   2237     1
   2231   3789     1
   2231   2237     1
   2232   3802     1
   2233   2238     1
   2233   3801     1
   2234   2238     1
   2234   3801     1
   2235   3793     1
   2235   3794     1
   2236   3805     1
   2236   3806     1
   2237   3790     1
   2238   3802     1
   2241   2265     1
   2241   2249     1
   2241   2250     1
   2241   2252     1
   2241   2253     1
   2242   2264     1
   2242   2245     1
   2242   2246     1
   2242   2248     1
   2242   2251     1
   2243   2264     1
   2243   2245     1
   2243   2246     1
   2243   2248     1
   2243   2251     1
   2245   2247     1
   2245   2265     1
   2246   2247     1
   2246   2265     1
   2247   2258     1
   2247   2259     1
   2247   2255     1
   2247   2256     1
   2248   2252     1
   2248   2253     1
   2249   2251     1
   2249   2261     1
   2249   2258     1
   2249   2259     1
   2250   2251     1
   2250   2261     1
   2250   2258     1
   2250   2259     1
   2252   2260     1
   2252   2255     1
   2252   2256     1
   2253   2260     1
   2253   2255     1
   2253   2256     1
   2254   3814     1
   2255   3813     1
   2255   2262     1
   2256   3813     1
   2256   2262     1
   2257   3826     1
   2258   2263     1
   2258   3825     1
   2259   2263     1
   2259   3825     1
   2260   3817     1
   2260   3818     1
   2261   3829     1
   2261   3830     1
   2262   3814     1
   2263   3826     1
   2266   2290     1
   2266   2274     1
   2266   2275     1
   2266   2277     1
   2266   2278     1
   2267   2289     1
   2267   2270     1
   2267   2271     1
   2267   2273     1
   2267   2276     1
   2268   2289     1
   2268   2270     1
   2268   2271     1
   2268   2273     1
   2268   2276     1
   2270   2272     1
   2270   2290     1
   2271   2272     1
   2271   2290     1
   2272   2283     1
   2272   2284     1
   2272   2280     1
   2272   2281     1
   2273   2277     1
   2273   2278     1
   2274   2276     1
   2274   2286     1
   2274   2283     1
   2274   2284     1
   2275   2276     1
   2275   2286     1
   2275   2283     1
   2275   2284     1
   2277   2285     1
   2277   2280     1
   2277   2281     1
   2278   2285     1
   2278   2280     1
   2278   2281     1
   2279   3838     1
   2280   3837     1
   2280   2287     1
   2281   3837     1
   2281   2287     1
   2282   3850     1
   2283   2288     1
   2283   3849     1
   2284   2288     1
   2284   3849     1
   2285   3841     1
   2285   3842     1
   2286   3853     1
   2286   3854     1
   2287   3838     1
   2288   3850     1
   2291   2315     1
   2291   2299     1
   2291   2300     1
   2291   2302     1
   2291   2303     1
   2292   2314     1
   2292   2295     1
   2292   2296     1
   2292   2298     1
   2292   2301     1
   2293   2314     1
   2293   2295     1
   2293   2296     1
   2293   2298     1
   2293   2301     1
   2295   2297     1
   2295   2315     1
   2296   2297     1
   2296   2315     1
   2297   2308     1
   2297   2309     1
   2297   2305     1
   2297   2306     1
   2298   2302     1
   2298   2303     1
   2299   2301     1
   2299   2311     1
   2299   2308     1
   2299   2309     1
   2300   2301     1
   2300   2311     1
   2300   2308     1
   2300   2309     1
   2302   2310     1
   2302   2305     1
   2302   2306     1
   2303   2310     1
   2303   2305     1
   2303   2306     1
   2304   3862     1
   2305   3861     1
   2305   2312     1
   2306   3861     1
   2306   2312     1
   2307   3874     1
   2308   2313     1
   2308   3873     1
   2309   2313     1
   2309   3873     1
   2310   3865     1
   2310   3866     1
   2311   3877     1
   2311   3878     1
   2312   3862     1
   2313   3874     1
   2316   2340     1
   2316   2324     1
   2316   2325     1
   2316   2327     1
   2316   2328     1
   2317   2339     1
   2317   2320     1
   2317   2321     1
   2317   2323     1
   2317   2326     1
   2318   2339     1
   2318   2320     1
   2318   2321     1
   2318   2323     1
   2318   2326     1
   2320   2322     1
   2320   2340     1
   2321   2322     1
   2321   2340     1
   2322   2333     1
   2322   2334     1
   2322   2330     1
   2322   2331     1
   2323   2327     1
   2323   2328     1
   2324   2326     1
   2324   2336     1
   2324   2333     1
   2324   2334     1
   2325   2326     1
   2325   2336     1
   2325   2333     1
   2325   2334     1
   2327   2335     1
   2327   2330     1
   2327   2331     1
   2328   2335     1
   2328   2330     1
   2328   2331     1
   2329   3886     1
   2330   3885     1
   2330   2337     1
   2331   3885     1
   2331   2337     1
   2332   3898     1
   2333   2338     1
   2333   3897     1
   2334   2338     1
   2334   3897     1
   2335   3889     1
   2335   3890     1
   2336   3901     1
   2336   3902     1
   2337   3886     1
   2338   3898     1
   2341   2365     1
   2341   2349     1
   2341   2350     1
   2341   2352     1
   2341   2353     1
   2342   2364     1
   2342   2345     1
   2342   2346     1
   2342   2348     1
   2342   2351     1
   2343   2364     1
   2343   2345     1
   2343   2346     1
   2343   2348     1
   2343   2351     1
   2345   2347     1
   2345   2365     1
   2346   2347     1
   2346   2365     1
   2347   2358     1
   2347   2359     1
   2347   2355     1
   2347   2356     1
   2348   2352     1
   2348   2353     1
   2349   2351     1
   2349   2361     1
   2349   2358     1
   2349   2359     1
   2350   2351     1
   2350   2361     1
   2350   2358     1
   2350   2359     1
   2352   2360     1
   2352   2355     1
   2352   2356     1
   2353   2360     1
   2353   2355     1
   2353   2356     1
   2354   3910     1
   2355   3909     1
   2355   2362     1
   2356   3909     1
   2356   2362     1
   2357   3922     1
   2358   2363     1
   2358   3921     1
   2359   2363     1
   2359   3921     1
   2360   3913     1
   2360   3914     1
   2361   3925     1
   2361   3926     1
   2362   3910     1
   2363   3922     1
   2366   2390     1
   2366   2374     1
   2366   2375     1
   2366   2377     1
   2366   2378     1
   2367   2389     1
   2367   2370     1
   2367   2371     1
   2367   2373     1
   2367   2376     1
   2368   2389     1
   2368   2370     1
   2368   2371     1
   2368   2373     1
   2368   2376     1
   2370   2372     1
   2370   2390     1
   2371   2372     1
   2371   2390     1
   2372   2383     1
   2372   2384     1
   2372   2380     1
   2372   2381     1
   2373   2377     1
   2373   2378     1
   2374   2376     1
   2374   2386     1
   2374   2383     1
   2374   2384     1
   2375   2376     1
   2375   2386     1
   2375   2383     1
   2375   2384     1
   2377   2385     1
   2377   2380     1
   2377   2381     1
   2378   2385     1
   2378   2380     1
   2378   2381     1
   2379   3934     1
   2380   3933     1
   2380   2387     1
   2381   3933     1
   2381   2387     1
   2382   3946     1
   2383   2388     1
   2383   3945     1
   2384   2388     1
   2384   3945     1
   2385   3937     1
   2385   3938     1
   2386   3949     1
   2386   3950     1
   2387   3934     1
   2388   3946     1
   2391   2415     1
   2391   2399     1
   2391   2400     1
   2391   2402     1
   2391   2403     1
   2392   2414     1
   2392   2395     1
   2392   2396     1
   2392   2398     1
   2392   2401     1
   2393   2414     1
   2393   2395     1
   2393   2396     1
   2393   2398     1
   2393   2401     1
   2395   2397     1
   2395   2415     1
   2396   2397     1
   2396   2415     1
   2397   2408     1
   2397   2409     1
   2397   2405     1
   2397   2406     1
   2398   2402     1
   2398   2403     1
   2399   2401     1
   2399   2411     1
   2399   2408     1
   2399   2409     1
   2400   2401     1
   2400   2411     1
   2400   2408     1
   2400   2409     1
   2402   2410     1
   2402   2405     1
   2402   2406     1
   2403   2410     1
   2403   2405     1
   2403   2406     1
   2404   3958     1
   2405   3957     1
   2405   2412     1
   2406   3957     1
   2406   2412     1
   2407   3970     1
   2408   2413     1
   2408   3969     1
   2409   2413     1
   2409   3969     1
   2410   3961     1
   2410   3962     1
   2411   3973     1
   2411   3974     1
   2412   3958     1
   2413   3970     1
   2416   2440     1
   2416   2424     1
   2416   2425     1
   2416   2427     1
   2416   2428     1
   2417   2439     1
   2417   2420     1
   2417   2421     1
   2417   2423     1
   2417   2426     1
   2418   2439     1
   2418   2420     1
   2418   2421     1
   2418   2423     1
   2418   2426     1
   2420   2422     1
   2420   2440     1
   2421   2422     1
   2421   2440     1
   2422   2433     1
   2422   2434     1
   2422   2430     1
   2422   2431     1
   2423   2427     1
   2423   2428     1
   2424   2426     1
   2424   2436     1
   2424   2433     1
   2424   2434     1
   2425   2426     1
   2425   2436     1
   2425   2433     1
   2425   2434     1
   2427   2435     1
   2427   2430     1
   2427   2431     1
   2428   2435     1
   2428   2430     1
   2428   2431     1
   2429   3982     1
   2430   3981     1
   2430   2437     1
   2431   3981     1
   2431   2437     1
   2432   3994     1
   2433   2438     1
   2433   3993     1
   2434   2438     1
   2434   3993     1
   2435   3985     1
   2435   3986     1
   2436   3997     1
   2436   3998     1
   2437   3982     1
   2438   3994     1
   2441   2465     1
   2441   2449     1
   2441   2450     1
   2441   2452     1
   2441   2453     1
   2442   2464     1
   2442   2445     1
   2442   2446     1
   2442   2448     1
   2442   2451     1
   2443   2464     1
   2443   2445     1
   2443   2446     1
   2443   2448     1
   2443   2451     1
   2445   2447     1
   2445   2465     1
   2446   2447     1
   2446   2465     1
   2447   2458     1
   2447   2459     1
   2447   2455     1
   2447   2456     1
   2448   2452     1
   2448   2453     1
   2449   2451     1
   2449   2461     1
   2449   2458     1
   2449   2459     1
   2450   2451     1
   2450   2461     1
   2450   2458     1
   2450   2459     1
   2452   2460     1
   2452   2455     1
   2452   2456     1
   2453   2460     1
   2453   2455     1
   2453   2456     1
   2454   4006     1
   2455   4005     1
   2455   2462     1
   2456   4005     1
   2456   2462     1
   2457   4018     1
   2458   2463     1
   2458   4017     1
   2459   2463     1
   2459   4017     1
   2460   4009     1
   2460   4010     1
   2461   4021     1
   2461   4022     1
   2462   4006     1
   2463   4018     1
   2466   2490     1
   2466   2474     1
   2466   2475     1
   2466   2477     1
   2466   2478     1
   2467   2489     1
   2467   2470     1
   2467   2471     1
   2467   2473     1
   2467   2476     1
   2468   2489     1
   2468   2470     1
   2468   2471     1
   2468   2473     1
   2468   2476     1
   2470   2472     1
   2470   2490     1
   2471   2472     1
   2471   2490     1
   2472   2483     1
   2472   2484     1
   2472   2480     1
   2472   2481     1
   2473   2477     1
   2473   2478     1
   2474   2476     1
   2474   2486     1
   2474   2483     1
   2474   2484     1
   2475   2476     1
   2475   2486     1
   2475   2483     1
   2475   2484     1
   2477   2485     1
   2477   2480     1
   2477   2481     1
   2478   2485     1
   2478   2480     1
   2478   2481     1
   2479   4030     1
   2480   4029     1
   2480   2487     1
   2481   4029     1
   2481   2487     1
   2482   4042     1
   2483   2488     1
   2483   4041     1
   2484   2488     1
   2484   4041     1
   2485   4033     1
   2485   4034     1
   2486   4045     1
   2486   4046     1
   2487   4030     1
   2488   4042     1
   2491   2515     1
   2491   2499     1
   2491   2500     1
   2491   2502     1
   2491   2503     1
   2492   2514     1
   2492   2495     1
   2492   2496     1
   2492   2498     1
   2492   2501     1
   2493   2514     1
   2493   2495     1
   2493   2496     1
   2493   2498     1
   2493   2501     1
   2495   2497     1
   2495   2515     1
   2496   2497     1
   2496   2515     1
   2497   2508     1
   2497   2509     1
   2497   2505     1
   2497   2506     1
   2498   2502     1
   2498   2503     1
   2499   2501     1
   2499   2511     1
   2499   2508     1
   2499   2509     1
   2500   2501     1
   2500   2511     1
   2500   2508     1
   2500   2509     1
   2502   2510     1
   2502   2505     1
   2502   2506     1
   2503   2510     1
   2503   2505     1
   2503   2506     1
   2504   4054     1
   2505   4053     1
   2505   2512     1
   2506   4053     1
   2506   2512     1
   2507   4066     1
   2508   2513     1
   2508   4065     1
   2509   2513     1
   2509   4065     1
   2510   4057     1
   2510   4058     1
   2511   4069     1
   2511   4070     1
   2512   4054     1
   2513   4066     1
   2516   2540     1
   2516   2524     1
   2516   2525     1
   2516   2527     1
   2516   2528     1
   2517   2539     1
   2517   2520     1
   2517   2521     1
   2517   2523     1
   2517   2526     1
   2518   2539     1
   2518   2520     1
   2518   2521     1
   2518   2523     1
   2518   2526     1
   2520   2522     1
   2520   2540     1
   2521   2522     1
   2521   2540     1
   2522   2533     1
   2522   2534     1
   2522   2530     1
   2522   2531     1
   2523   2527     1
   2523   2528     1
   2524   2526     1
   2524   2536     1
   2524   2533     1
   2524   2534     1
   2525   2526     1
   2525   2536     1
   2525   2533     1
   2525   2534     1
   2527   2535     1
   2527   2530     1
   2527   2531     1
   2528   2535     1
   2528   2530     1
   2528   2531     1
   2529   4078     1
   2530   4077     1
   2530   2537     1
   2531   4077     1
   2531   2537     1
   2532   4090     1
   2533   2538     1
   2533   4089     1
   2534   2538     1
   2534   4089     1
   2535   4081     1
   2535   4082     1
   2536   4093     1
   2536   4094     1
   2537   4078     1
   2538   4090     1
   2541   2565     1
   2541   2549     1
   2541   2550     1
   2541   2552     1
   2541   2553     1
   2542   2564     1
   2542   2545     1
   2542   2546     1
   2542   2548     1
   2542   2551     1
   2543   2564     1
   2543   2545     1
   2543   2546     1
   2543   2548     1
   2543   2551     1
   2545   2547     1
   2545   2565     1
   2546   2547     1
   2546   2565     1
   2547   2558     1
   2547   2559     1
   2547   2555     1
   2547   2556     1
   2548   2552     1
   2548   2553     1
   2549   2551     1
   2549   2561     1
   2549   2558     1
   2549   2559     1
   2550   2551     1
   2550   2561     1
   2550   2558     1
   2550   2559     1
   2552   2560     1
   2552   2555     1
   2552   2556     1
   2553   2560     1
   2553   2555     1
   2553   2556     1
   2554   4102     1
   2555   4101     1
   2555   2562     1
   2556   4101     1
   2556   2562     1
   2557   4114     1
   2558   2563     1
   2558   4113     1
   2559   2563     1
   2559   4113     1
   2560   4105     1
   2560   4106     1
   2561   4117     1
   2561   4118     1
   2562   4102     1
   2563   4114     1
   2566   2590     1
   2566   2574     1
   2566   2575     1
   2566   2577     1
   2566   2578     1
   2567   2589     1
   2567   2570     1
   2567   2571     1
   2567   2573     1
   2567   2576     1
   2568   2589     1
   2568   2570     1
   2568   2571     1
   2568   2573     1
   2568   2576     1
   2570   2572     1
   2570   2590     1
   2571   2572     1
   2571   2590     1
   2572   2583     1
   2572   2584     1
   2572   2580     1
   2572   2581     1
   2573   2577     1
   2573   2578     1
   2574   2576     1
   2574   2586     1
   2574   2583     1
   2574   2584     1
   2575   2576     1
   2575   2586     1
   2575   2583     1
   2575   2584     1
   2577   2585     1
   2577   2580     1
   2577   2581     1
   2578   2585     1
   2578   2580     1
   2578   2581     1
   2579   4126     1
   2580   4125     1
   2580   2587     1
   2581   4125     1
   2581   2587     1
   2582   4138     1
   2583   2588     1
   2583   4137     1
   2584   2588     1
   2584   4137     1
   2585   4129     1
   2585   4130     1
   2586   4141     1
   2586   4142     1
   2587   4126     1
   2588   4138     1
   2591   2615     1
   2591   2599     1
   2591   2600     1
   2591   2602     1
   2591   2603     1
   2592   2614     1
   2592   2595     1
   2592   2596     1
   2592   2598     1
   2592   2601     1
   2593   2614     1
   2593   2595     1
   2593   2596     1
   2593   2598     1
   2593   2601     1
   2595   2597     1
   2595   2615     1
   2596   2597     1
   2596   2615     1
   2597   2608     1
   2597   2609     1
   2597   2605     1
   2597   2606     1
   2598   2602     1
   2598   2603     1
   2599   2601     1
   2599   2611     1
   2599   2608     1
   2599   2609     1
   2600   2601     1
   2600   2611     1
   2600   2608     1
   2600   2609     1
   2602   2610     1
   2602   2605     1
   2602   2606     1
   2603   2610     1
   2603   2605     1
   2603   2606     1
   2604   4150     1
   2605   4149     1
   2605   2612     1
   2606   4149     1
   2606   2612     1
   2607   4162     1
   2608   2613     1
   2608   4161     1
   2609   2613     1
   2609   4161     1
   2610   4153     1
   2610   4154     1
   2611   4165     1
   2611   4166     1
   2612   4150     1
   2613   4162     1
   2616   2640     1
   2616   2624     1
   2616   2625     1
   2616   2627     1
   2616   2628     1
   2617   2639     1
   2617   2620     1
   2617   2621     1
   2617   2623     1
   2617   2626     1
   2618   2639     1
   2618   2620     1
   2618   2621     1
   2618   2623     1
   2618   2626     1
   2620   2622     1
   2620   2640     1
   2621   2622     1
   2621   2640     1
   2622   2633     1
   2622   2634     1
   2622   2630     1
   2622   2631     1
   2623   2627     1
   2623   2628     1
   2624   2626     1
   2624   2636     1
   2624   2633     1
   2624   2634     1
   2625   2626     1
   2625   2636     1
   2625   2633     1
   2625   2634     1
   2627   2635     1
   2627   2630     1
   2627   2631     1
   2628   2635     1
   2628   2630     1
   2628   2631     1
   2629   4174     1
   2630   4173     1
   2630   2637     1
   2631   4173     1
   2631   2637     1
   2632   4186     1
   2633   2638     1
   2633   4185     1
   2634   2638     1
   2634   4185     1
   2635   4177     1
   2635   4178     1
   2636   4189     1
   2636   4190     1
   2637   4174     1
   2638   4186     1
   2641   2665     1
   2641   2649     1
   2641   2650     1
   2641   2652     1
   2641   2653     1
   2642   2664     1
   2642   2645     1
   2642   2646     1
   2642   2648     1
   2642   2651     1
   2643   2664     1
   2643   2645     1
   2643   2646     1
   2643   2648     1
   2643   2651     1
   2645   2647     1
   2645   2665     1
   2646   2647     1
   2646   2665     1
   2647   2658     1
   2647   2659     1
   2647   2655     1
   2647   2656     1
   2648   2652     1
   2648   2653     1
   2649   2651     1
   2649   2661     1
   2649   2658     1
   2649   2659     1
   2650   2651     1
   2650   2661     1
   2650   2658     1
   2650   2659     1
   2652   2660     1
   2652   2655     1
   2652   2656     1
   2653   2660     1
   2653   2655     1
   2653   2656     1
   2654   4198     1
   2655   4197     1
   2655   2662     1
   2656   4197     1
   2656   2662     1
   2657   4210     1
   2658   2663     1
   2658   4209     1
   2659   2663     1
   2659   4209     1
   2660   4201     1
   2660   4202     1
   2661   4213     1
   2661   4214     1
   2662   4198     1
   2663   4210     1
   2666   2690     1
   2666   2674     1
   2666   2675     1
   2666   2677     1
   2666   2678     1
   2667   2689     1
   2667   2670     1
   2667   2671     1
   2667   2673     1
   2667   2676     1
   2668   2689     1
   2668   2670     1
   2668   2671     1
   2668   2673     1
   2668   2676     1
   2670   2672     1
   2670   2690     1
   2671   2672     1
   2671   2690     1
   2672   2683     1
   2672   2684     1
   2672   2680     1
   2672   2681     1
   2673   2677     1
   2673   2678     1
   2674   2676     1
   2674   2686     1
   2674   2683     1
   2674   2684     1
   2675   2676     1
   2675   2686     1
   2675   2683     1
   2675   2684     1
   2677   2685     1
   2677   2680     1
   2677   2681     1
   2678   2685     1
   2678   2680     1
   2678   2681     1
   2679   4222     1
   2680   4221     1
   2680   2687     1
   2681   4221     1
   2681   2687     1
   2682   4234     1
   2683   2688     1
   2683   4233     1
   2684   2688     1
   2684   4233     1
   2685   4225     1
   2685   4226     1
   2686   4237     1
   2686   4238     1
   2687   4222     1
   2688   4234     1
   2691   2715     1
   2691   2699     1
   2691   2700     1
   2691   2702     1
   2691   2703     1
   2692   2714     1
   2692   2695     1
   2692   2696     1
   2692   2698     1
   2692   2701     1
   2693   2714     1
   2693   2695     1
   2693   2696     1
   2693   2698     1
   2693   2701     1
   2695   2697     1
   2695   2715     1
   2696   2697     1
   2696   2715     1
   2697   2708     1
   2697   2709     1
   2697   2705     1
   2697   2706     1
   2698   2702     1
   2698   2703     1
   2699   2701     1
   2699   2711     1
   2699   2708     1
   2699   2709     1
   2700   2701     1
   2700   2711     1
   2700   2708     1
   2700   2709     1
   2702   2710     1
   2702   2705     1
   2702   2706     1
   2703   2710     1
   2703   2705     1
   2703   2706     1
   2704   4246     1
   2705   4245     1
   2705   2712     1
   2706   4245     1
   2706   2712     1
   2707   4258     1
   2708   2713     1
   2708   4257     1
   2709   2713     1
   2709   4257     1
   2710   4249     1
   2710   4250     1
   2711   4261     1
   2711   4262     1
   2712   4246     1
   2713   4258     1
   2716   2740     1
   2716   2724     1
   2716   2725     1
   2716   2727     1
   2716   2728     1
   2717   2739     1
   2717   2720     1
   2717   2721     1
   2717   2723     1
   2717   2726     1
   2718   2739     1
   2718   2720     1
   2718   2721     1
   2718   2723     1
   2718   2726     1
   2720   2722     1
   2720   2740     1
   2721   2722     1
   2721   2740     1
   2722   2733     1
   2722   2734     1
   2722   2730     1
   2722   2731     1
   2723   2727     1
   2723   2728     1
   2724   2726     1
   2724   2736     1
   2724   2733     1
   2724   2734     1
   2725   2726     1
   2725   2736     1
   2725   2733     1
   2725   2734     1
   2727   2735     1
   2727   2730     1
   2727   2731     1
   2728   2735     1
   2728   2730     1
   2728   2731     1
   2729   4270     1
   2730   4269     1
   2730   2737     1
   2731   4269     1
   2731   2737     1
   2732   4282     1
   2733   2738     1
   2733   4281     1
   2734   2738     1
   2734   4281     1
   2735   4273     1
   2735   4274     1
   2736   4285     1
   2736   4286     1
   2737   4270     1
   2738   4282     1
   2741   2765     1
   2741   2749     1
   2741   2750     1
   2741   2752     1
   2741   2753     1
   2742   2764     1
   2742   2745     1
   2742   2746     1
   2742   2748     1
   2742   2751     1
   2743   2764     1
   2743   2745     1
   2743   2746     1
   2743   2748     1
   2743   2751     1
   2745   2747     1
   2745   2765     1
   2746   2747     1
   2746   2765     1
   2747   2758     1
   2747   2759     1
   2747   2755     1
   2747   2756     1
   2748   2752     1
   2748   2753     1
   2749   2751     1
   2749   2761     1
   2749   2758     1
   2749   2759     1
   2750   2751     1
   2750   2761     1
   2750   2758     1
   2750   2759     1
   2752   2760     1
   2752   2755     1
   2752   2756     1
   2753   2760     1
   2753   2755     1
   2753   2756     1
   2754   4294     1
   2755   4293     1
   2755   2762     1
   2756   4293     1
   2756   2762     1
   2757   4306     1
   2758   2763     1
   2758   4305     1
   2759   2763     1
   2759   4305     1
   2760   4297     1
   2760   4298     1
   2761   4309     1
   2761   4310     1
   2762   4294     1
   2763   4306     1
   2766   2790     1
   2766   2774     1
   2766   2775     1
   2766   2777     1
   2766   2778     1
   2767   2789     1
   2767   2770     1
   2767   2771     1
   2767   2773     1
   2767   2776     1
   2768   2789     1
   2768   2770     1
   2768   2771     1
   2768   2773     1
   2768   2776     1
   2770   2772     1
   2770   2790     1
   2771   2772     1
   2771   2790     1
   2772   2783     1
   2772   2784     1
   2772   2780     1
   2772   2781     1
   2773   2777     1
   2773   2778     1
   2774   2776     1
   2774   2786     1
   2774   2783     1
   2774   2784     1
   2775   2776     1
   2775   2786     1
   2775   2783     1
   2775   2784     1
   2777   2785     1
   2777   2780     1
   2777   2781     1
   2778   2785     1
   2778   2780     1
   2778   2781     1
   2779   4318     1
   2780   4317     1
   2780   2787     1
   2781   4317     1
   2781   2787     1
   2782   4330     1
   2783   2788     1
   2783   4329     1
   2784   2788     1
   2784   4329     1
   2785   4321     1
   2785   4322     1
   2786   4333     1
   2786   4334     1
   2787   4318     1
   2788   4330     1
   2791   2815     1
   2791   2799     1
   2791   2800     1
   2791   2802     1
   2791   2803     1
   2792   2814     1
   2792   2795     1
   2792   2796     1
   2792   2798     1
   2792   2801     1
   2793   2814     1
   2793   2795     1
   2793   2796     1
   2793   2798     1
   2793   2801     1
   2795   2797     1
   2795   2815     1
   2796   2797     1
   2796   2815     1
   2797   2808     1
   2797   2809     1
   2797   2805     1
   2797   2806     1
   2798   2802     1
   2798   2803     1
   2799   2801     1
   2799   2811     1
   2799   2808     1
   2799   2809     1
   2800   2801     1
   2800   2811     1
   2800   2808     1
   2800   2809     1
   2802   2810     1
   2802   2805     1
   2802   2806     1
   2803   2810     1
   2803   2805     1
   2803   2806     1
   2804   4342     1
   2805   4341     1
   2805   2812     1
   2806   4341     1
   2806   2812     1
   2807   4354     1
   2808   2813     1
   2808   4353     1
   2809   2813     1
   2809   4353     1
   2810   4345     1
   2810   4346     1
   2811   4357     1
   2811   4358     1
   2812   4342     1
   2813   4354     1
   2816   2840     1
   2816   2824     1
   2816   2825     1
   2816   2827     1
   2816   2828     1
   2817   2839     1
   2817   2820     1
   2817   2821     1
   2817   2823     1
   2817   2826     1
   2818   2839     1
   2818   2820     1
   2818   2821     1
   2818   2823     1
   2818   2826     1
   2820   2822     1
   2820   2840     1
   2821   2822     1
   2821   2840     1
   2822   2833     1
   2822   2834     1
   2822   2830     1
   2822   2831     1
   2823   2827     1
   2823   2828     1
   2824   2826     1
   2824   2836     1
   2824   2833     1
   2824   2834     1
   2825   2826     1
   2825   2836     1
   2825   2833     1
   2825   2834     1
   2827   2835     1
   2827   2830     1
   2827   2831     1
   2828   2835     1
   2828   2830     1
   2828   2831     1
   2829   4366     1
   2830   4365     1
   2830   2837     1
   2831   4365     1
   2831   2837     1
   2832   4378     1
   2833   2838     1
   2833   4377     1
   2834   2838     1
   2834   4377     1
   2835   4369     1
   2835   4370     1
   2836   4381     1
   2836   4382     1
   2837   4366     1
   2838   4378     1
   2841   2865     1
   2841   2849     1
   2841   2850     1
   2841   2852     1
   2841   2853     1
   2842   2864     1
   2842   2845     1
   2842   2846     1
   2842   2848     1
   2842   2851     1
   2843   2864     1
   2843   2845     1
   2843   2846     1
   2843   2848     1
   2843   2851     1
   2845   2847     1
   2845   2865     1
   2846   2847     1
   2846   2865     1
   2847   2858     1
   2847   2859     1
   2847   2855     1
   2847   2856     1
   2848   2852     1
   2848   2853     1
   2849   2851     1
   2849   2861     1
   2849   2858     1
   2849   2859     1
   2850   2851     1
   2850   2861     1
   2850   2858     1
   2850   2859     1
   2852   2860     1
   2852   2855     1
   2852   2856     1
   2853   2860     1
   2853   2855     1
   2853   2856     1
   2854   4390     1
   2855   4389     1
   2855   2862     1
   2856   4389     1
   2856   2862     1
   2857   4402     1
   2858   2863     1
   2858   4401     1
   2859   2863     1
   2859   4401     1
   2860   4393     1
   2860   4394     1
   2861   4405     1
   2861   4406     1
   2862   4390     1
   2863   4402     1
   2866   2890     1
   2866   2874     1
   2866   2875     1
   2866   2877     1
   2866   2878     1
   2867   2889     1
   2867   2870     1
   2867   2871     1
   2867   2873     1
   2867   2876     1
   2868   2889     1
   2868   2870     1
   2868   2871     1
   2868   2873     1
   2868   2876     1
   2870   2872     1
   2870   2890     1
   2871   2872     1
   2871   2890     1
   2872   2883     1
   2872   2884     1
   2872   2880     1
   2872   2881     1
   2873   2877     1
   2873   2878     1
   2874   2876     1
   2874   2886     1
   2874   2883     1
   2874   2884     1
   2875   2876     1
   2875   2886     1
   2875   2883     1
   2875   2884     1
   2877   2885     1
   2877   2880     1
   2877   2881     1
   2878   2885     1
   2878   2880     1
   2878   2881     1
   2879   4414     1
   2880   4413     1
   2880   2887     1
   2881   4413     1
   2881   2887     1
   2882   4426     1
   2883   2888     1
   2883   4425     1
   2884   2888     1
   2884   4425     1
   2885   4417     1
   2885   4418     1
   2886   4429     1
   2886   4430     1
   2887   4414     1
   2888   4426     1
   2891   2915     1
   2891   2899     1
   2891   2900     1
   2891   2902     1
   2891   2903     1
   2892   2914     1
   2892   2895     1
   2892   2896     1
   2892   2898     1
   2892   2901     1
   2893   2914     1
   2893   2895     1
   2893   2896     1
   2893   2898     1
   2893   2901     1
   2895   2897     1
   2895   2915     1
   2896   2897     1
   2896   2915     1
   2897   2908     1
   2897   2909     1
   2897   2905     1
   2897   2906     1
   2898   2902     1
   2898   2903     1
   2899   2901     1
   2899   2911     1
   2899   2908     1
   2899   2909     1
   2900   2901     1
   2900   2911     1
   2900   2908     1
   2900   2909     1
   2902   2910     1
   2902   2905     1
   2902   2906     1
   2903   2910     1
   2903   2905     1
   2903   2906     1
   2904   4438     1
   2905   4437     1
   2905   2912     1
   2906   4437     1
   2906   2912     1
   2907   4450     1
   2908   2913     1
   2908   4449     1
   2909   2913     1
   2909   4449     1
   2910   4441     1
   2910   4442     1
   2911   4453     1
   2911   4454     1
   2912   4438     1
   2913   4450     1
   2916   2940     1
   2916   2924     1
   2916   2925     1
   2916   2927     1
   2916   2928     1
   2917   2939     1
   2917   2920     1
   2917   2921     1
   2917   2923     1
   2917   2926     1
   2918   2939     1
   2918   2920     1
   2918   2921     1
   2918   2923     1
   2918   2926     1
   2920   2922     1
   2920   2940     1
   2921   2922     1
   2921   2940     1
   2922   2933     1
   2922   2934     1
   2922   2930     1
   2922   2931     1
   2923   2927     1
   2923   2928     1
   2924   2926     1
   2924   2936     1
   2924   2933     1
   2924   2934     1
   2925   2926     1
   2925   2936     1
   2925   2933     1
   2925   2934     1
   2927   2935     1
   2927   2930     1
   2927   2931     1
   2928   2935     1
   2928   2930     1
   2928   2931     1
   2929   4462     1
   2930   4461     1
   2930   2937     1
   2931   4461     1
   2931   2937     1
   2932   4474     1
   2933   2938     1
   2933   4473     1
   2934   2938     1
   2934   4473     1
   2935   4465     1
   2935   4466     1
   2936   4477     1
   2936   4478     1
   2937   4462     1
   2938   4474     1
   2941   2965     1
   2941   2949     1
   2941   2950     1
   2941   2952     1
   2941   2953     1
   2942   2964     1
   2942   2945     1
   2942   2946     1
   2942   2948     1
   2942   2951     1
   2943   2964     1
   2943   2945     1
   2943   2946     1
   2943   2948     1
   2943   2951     1
   2945   2947     1
   2945   2965     1
   2946   2947     1
   2946   2965     1
   2947   2958     1
   2947   2959     1
   2947   2955     1
   2947   2956     1
   2948   2952     1
   2948   2953     1
   2949   2951     1
   2949   2961     1
   2949   2958     1
   2949   2959     1
   2950   2951     1
   2950   2961     1
   2950   2958     1
   2950   2959     1
   2952   2960     1
   2952   2955     1
   2952   2956     1
   2953   2960     1
   2953   2955     1
   2953   2956     1
   2954   4486     1
   2955   4485     1
   2955   2962     1
   2956   4485     1
   2956   2962     1
   2957   4498     1
   2958   2963     1
   2958   4497     1
   2959   2963     1
   2959   4497     1
   2960   4489     1
   2960   4490     1
   2961   4501     1
   2961   4502     1
   2962   4486     1
   2963   4498     1
   2966   2990     1
   2966   2974     1
   2966   2975     1
   2966   2977     1
   2966   2978     1
   2967   2989     1
   2967   2970     1
   2967   2971     1
   2967   2973     1
   2967   2976     1
   2968   2989     1
   2968   2970     1
   2968   2971     1
   2968   2973     1
   2968   2976     1
   2970   2972     1
   2970   2990     1
   2971   2972     1
   2971   2990     1
   2972   2983     1
   2972   2984     1
   2972   2980     1
   2972   2981     1
   2973   2977     1
   2973   2978     1
   2974   2976     1
   2974   2986     1
   2974   2983     1
   2974   2984     1
   2975   2976     1
   2975   2986     1
   2975   2983     1
   2975   2984     1
   2977   2985     1
   2977   2980     1
   2977   2981     1
   2978   2985     1
   2978   2980     1
   2978   2981     1
   2979   4510     1
   2980   4509     1
   2980   2987     1
   2981   4509     1
   2981   2987     1
   2982   4522     1
   2983   2988     1
   2983   4521     1
   2984   2988     1
   2984   4521     1
   2985   4513     1
   2985   4514     1
   2986   4525     1
   2986   4526     1
   2987   4510     1
   2988   4522     1
   2991   3015     1
   2991   2999     1
   2991   3000     1
   2991   3002     1
   2991   3003     1
   2992   3014     1
   2992   2995     1
   2992   2996     1
   2992   2998     1
   2992   3001     1
   2993   3014     1
   2993   2995     1
   2993   2996     1
   2993   2998     1
   2993   3001     1
   2995   2997     1
   2995   3015     1
   2996   2997     1
   2996   3015     1
   2997   3008     1
   2997   3009     1
   2997   3005     1
   2997   3006     1
   2998   3002     1
   2998   3003     1
   2999   3001     1
   2999   3011     1
   2999   3008     1
   2999   3009     1
   3000   3001     1
   3000   3011     1
   3000   3008     1
   3000   3009     1
   3002   3010     1
   3002   3005     1
   3002   3006     1
   3003   3010     1
   3003   3005     1
   3003   3006     1
   3004   4534     1
   3005   4533     1
   3005   3012     1
   3006   4533     1
   3006   3012     1
   3007   4546     1
   3008   3013     1
   3008   4545     1
   3009   3013     1
   3009   4545     1
   3010   4537     1
   3010   4538     1
   3011   4549     1
   3011   4550     1
   3012   4534     1
   3013   4546     1
   3016   3040     1
   3016   3024     1
   3016   3025     1
   3016   3027     1
   3016   3028     1
   3017   3039     1
   3017   3020     1
   3017   3021     1
   3017   3023     1
   3017   3026     1
   3018   3039     1
   3018   3020     1
   3018   3021     1
   3018   3023     1
   3018   3026     1
   3020   3022     1
   3020   3040     1
   3021   3022     1
   3021   3040     1
   3022   3033     1
   3022   3034     1
   3022   3030     1
   3022   3031     1
   3023   3027     1
   3023   3028     1
   3024   3026     1
   3024   3036     1
   3024   3033     1
   3024   3034     1
   3025   3026     1
   3025   3036     1
   3025   3033     1
   3025   3034     1
   3027   3035     1
   3027   3030     1
   3027   3031     1
   3028   3035     1
   3028   3030     1
   3028   3031     1
   3029   4558     1
   3030   4557     1
   3030   3037     1
   3031   4557     1
   3031   3037     1
   3032   4570     1
   3033   3038     1
   3033   4569     1
   3034   3038     1
   3034   4569     1
   3035   4561     1
   3035   4562     1
   3036   4573     1
   3036   4574     1
   3037   4558     1
   3038   4570     1
   3041   3065     1
   3041   3049     1
   3041   3050     1
   3041   3052     1
   3041   3053     1
   3042   3064     1
   3042   3045     1
   3042   3046     1
   3042   3048     1
   3042   3051     1
   3043   3064     1
   3043   3045     1
   3043   3046     1
   3043   3048     1
   3043   3051     1
   3045   3047     1
   3045   3065     1
   3046   3047     1
   3046   3065     1
   3047   3058     1
   3047   3059     1
   3047   3055     1
   3047   3056     1
   3048   3052     1
   3048   3053     1
   3049   3051     1
   3049   3061     1
   3049   3058     1
   3049   3059     1
   3050   3051     1
   3050   3061     1
   3050   3058     1
   3050   3059     1
   3052   3060     1
   3052   3055     1
   3052   3056     1
   3053   3060     1
   3053   3055     1
   3053   3056     1
   3054   4582     1
   3055   4581     1
   3055   3062     1
   3056   4581     1
   3056   3062     1
   3057   4594     1
   3058   3063     1
   3058   4593     1
   3059   3063     1
   3059   4593     1
   3060   4585     1
   3060   4586     1
   3061   4597     1
   3061   4598     1
   3062   4582     1
   3063   4594     1
   3066   3090     1
   3066   3074     1
   3066   3075     1
   3066   3077     1
   3066   3078     1
   3067   3089     1
   3067   3070     1
   3067   3071     1
   3067   3073     1
   3067   3076     1
   3068   3089     1
   3068   3070     1
   3068   3071     1
   3068   3073     1
   3068   3076     1
   3070   3072     1
   3070   3090     1
   3071   3072     1
   3071   3090     1
   3072   3083     1
   3072   3084     1
   3072   3080     1
   3072   3081     1
   3073   3077     1
   3073   3078     1
   3074   3076     1
   3074   3086     1
   3074   3083     1
   3074   3084     1
   3075   3076     1
   3075   3086     1
   3075   3083     1
   3075   3084     1
   3077   3085     1
   3077   3080     1
   3077   3081     1
   3078   3085     1
   3078   3080     1
   3078   3081     1
   3079   4606     1
   3080   4605     1
   3080   3087     1
   3081   4605     1
   3081   3087     1
   3082   4618     1
   3083   3088     1
   3083   4617     1
   3084   3088     1
   3084   4617     1
   3085   4609     1
   3085   4610     1
   3086   4621     1
   3086   4622     1
   3087   4606     1
   3088   4618     1
   3091   3115     1
   3091   3099     1
   3091   3100     1
   3091   3102     1
   3091   3103     1
   3092   3114     1
   3092   3095     1
   3092   3096     1
   3092   3098     1
   3092   3101     1
   3093   3114     1
   3093   3095     1
   3093   3096     1
   3093   3098     1
   3093   3101     1
   3095   3097     1
   3095   3115     1
   3096   3097     1
   3096   3115     1
   3097   3108     1
   3097   3109     1
   3097   3105     1
   3097   3106     1
   3098   3102     1
   3098   3103     1
   3099   3101     1
   3099   3111     1
   3099   3108     1
   3099   3109     1
   3100   3101     1
   3100   3111     1
   3100   3108     1
   3100   3109     1
   3102   3110     1
   3102   3105     1
   3102   3106     1
   3103   3110     1
   3103   3105     1
   3103   3106     1
   3104   4630     1
   3105   4629     1
   3105   3112     1
   3106   4629     1
   3106   3112     1
   3107   4642     1
   3108   3113     1
   3108   4641     1
   3109   3113     1
   3109   4641     1
   3110   4633     1
   3110   4634     1
   3111   4645     1
   3111   4646     1
   3112   4630     1
   3113   4642     1
   3116   3140     1
   3116   3124     1
   3116   3125     1
   3116   3127     1
   3116   3128     1
   3117   3139     1
   3117   3120     1
   3117   3121     1
   3117   3123     1
   3117   3126     1
   3118   3139     1
   3118   3120     1
   3118   3121     1
   3118   3123     1
   3118   3126     1
   3120   3122     1
   3120   3140     1
   3121   3122     1
   3121   3140     1
   3122   3133     1
   3122   3134     1
   3122   3130     1
   3122   3131     1
   3123   3127     1
   3123   3128     1
   3124   3126     1
   3124   3136     1
   3124   3133     1
   3124   3134     1
   3125   3126     1
   3125   3136     1
   3125   3133     1
   3125   3134     1
   3127   3135     1
   3127   3130     1
   3127   3131     1
   3128   3135     1
   3128   3130     1
   3128   3131     1
   3129   4654     1
   3130   4653     1
   3130   3137     1
   3131   4653     1
   3131   3137     1
   3132   4666     1
   3133   4665     1
   3133   3138     1
   3134   4665     1
   3134   3138     1
   3135   4657     1
   3135   4658     1
   3136   4669     1
   3136   4670     1
   3137   4654     1
   3138   4666     1
   3141   3147     1
   3141   3148     1
   3142   3144     1
   3142   3145     1
   3142   3146     1
   3143   3150     1
   3143   3151     1
   3143   3152     1
   3145   3149     1
   3145   3147     1
   3145   3148     1
   3146   3149     1
   3146   3147     1
   3146   3148     1
   3147   3150     1
   3147   3151     1
   3147   3152     1
   3148   3150     1
   3148   3151     1
   3148   3152     1
   3153   3159     1
   3153   3160     1
   3154   3156     1
   3154   3157     1
   3154   3158     1
   3155   3162     1
   3155   3163     1
   3155   3164     1
   3157   3161     1
   3157   3159     1
   3157   3160     1
   3158   3161     1
   3158   3159     1
   3158   3160     1
   3159   3162     1
   3159   3163     1
   3159   3164     1
   3160   3162     1
   3160   3163     1
   3160   3164     1
   3165   3171     1
   3165   3172     1
   3166   3168     1
   3166   3169     1
   3166   3170     1
   3167   3174     1
   3167   3175     1
   3167   3176     1
   3169   3173     1
   3169   3171     1
   3169   3172     1
   3170   3173     1
   3170   3171     1
   3170   3172     1
   3171   3174     1
   3171   3175     1
   3171   3176     1
   3172   3174     1
   3172   3175     1
   3172   3176     1
   3177   3183     1
   3177   3184     1
   3178   3180     1
   3178   3181     1
   3178   3182     1
   3179   3186     1
   3179   3187     1
   3179   3188     1
   3181   3185     1
   3181   3183     1
   3181   3184     1
   3182   3185     1
   3182   3183     1
   3182   3184     1
   3183   3186     1
   3183   3187     1
   3183   3188     1
   3184   3186     1
   3184   3187     1
   3184   3188     1
   3189   3195     1
   3189   3196     1
   3190   3192     1
   3190   3193     1
   3190   3194     1
   3191   3198     1
   3191   3199     1
   3191   3200     1
   3193   3197     1
   3193   3195     1
   3193   3196     1
   3194   3197     1
   3194   3195     1
   3194   3196     1
   3195   3198     1
   3195   3199     1
   3195   3200     1
   3196   3198     1
   3196   3199     1
   3196   3200     1
   3201   3207     1
   3201   3208     1
   3202   3204     1
   3202   3205     1
   3202   3206     1
   3203   3210     1
   3203   3211     1
   3203   3212     1
   3205   3209     1
   3205   3207     1
   3205   3208     1
   3206   3209     1
   3206   3207     1
   3206   3208     1
   3207   3210     1
   3207   3211     1
   3207   3212     1
   3208   3210     1
   3208   3211     1
   3208   3212     1
   3213   3219     1
   3213   3220     1
   3214   3216     1
   3214   3217     1
   3214   3218     1
   3215   3222     1
   3215   3223     1
   3215   3224     1
   3217   3221     1
   3217   3219     1
   3217   3220     1
   3218   3221     1
   3218   3219     1
   3218   3220     1
   3219   3222     1
   3219   3223     1
   3219   3224     1
   3220   3222     1
   3220   3223     1
   3220   3224     1
   3225   3231     1
   3225   3232     1
   3226   3228     1
   3226   3229     1
   3226   3230     1
   3227   3234     1
   3227   3235     1
   3227   3236     1
   3229   3233     1
   3229   3231     1
   3229   3232     1
   3230   3233     1
   3230   3231     1
   3230   3232     1
   3231   3234     1
   3231   3235     1
   3231   3236     1
   3232   3234     1
   3232   3235     1
   3232   3236     1
   3237   3243     1
   3237   3244     1
   3238   3240     1
   3238   3241     1
   3238   3242     1
   3239   3246     1
   3239   3247     1
   3239   3248     1
   3241   3245     1
   3241   3243     1
   3241   3244     1
   3242   3245     1
   3242   3243     1
   3242   3244     1
   3243   3246     1
   3243   3247     1
   3243   3248     1
   3244   3246     1
   3244   3247     1
   3244   3248     1
   3249   3255     1
   3249   3256     1
   3250   3252     1
   3250   3253     1
   3250   3254     1
   3251   3258     1
   3251   3259     1
   3251   3260     1
   3253   3257     1
   3253   3255     1
   3253   3256     1
   3254   3257     1
   3254   3255     1
   3254   3256     1
   3255   3258     1
   3255   3259     1
   3255   3260     1
   3256   3258     1
   3256   3259     1
   3256   3260     1
   3261   3267     1
   3261   3268     1
   3262   3264     1
   3262   3265     1
   3262   3266     1
   3263   3270     1
   3263   3271     1
   3263   3272     1
   3265   3269     1
   3265   3267     1
   3265   3268     1
   3266   3269     1
   3266   3267     1
   3266   3268     1
   3267   3270     1
   3267   3271     1
   3267   3272     1
   3268   3270     1
   3268   3271     1
   3268   3272     1
   3273   3279     1
   3273   3280     1
   3274   3276     1
   3274   3277     1
   3274   3278     1
   3275   3282     1
   3275   3283     1
   3275   3284     1
   3277   3281     1
   3277   3279     1
   3277   3280     1
   3278   3281     1
   3278   3279     1
   3278   3280     1
   3279   3282     1
   3279   3283     1
   3279   3284     1
   3280   3282     1
   3280   3283     1
   3280   3284     1
   3285   3291     1
   3285   3292     1
   3286   3288     1
   3286   3289     1
   3286   3290     1
   3287   3294     1
   3287   3295     1
   3287   3296     1
   3289   3293     1
   3289   3291     1
   3289   3292     1
   3290   3293     1
   3290   3291     1
   3290   3292     1
   3291   3294     1
   3291   3295     1
   3291   3296     1
   3292   3294     1
   3292   3295     1
   3292   3296     1
   3297   3303     1
   3297   3304     1
   3298   3300     1
   3298   3301     1
   3298   3302     1
   3299   3306     1
   3299   3307     1
   3299   3308     1
   3301   3305     1
   3301   3303     1
   3301   3304     1
   3302   3305     1
   3302   3303     1
   3302   3304     1
   3303   3306     1
   3303   3307     1
   3303   3308     1
   3304   3306     1
   3304   3307     1
   3304   3308     1
   3309   3315     1
   3309   3316     1
   3310   3312     1
   3310   3313     1
   3310   3314     1
   3311   3318     1
   3311   3319     1
   3311   3320     1
   3313   3317     1
   3313   3315     1
   3313   3316     1
   3314   3317     1
   3314   3315     1
   3314   3316     1
   3315   3318     1
   3315   3319     1
   3315   3320     1
   3316   3318     1
   3316   3319     1
   3316   3320     1
   3321   3327     1
   3321   3328     1
   3322   3324     1
   3322   3325     1
   3322   3326     1
   3323   3330     1
   3323   3331     1
   3323   3332     1
   3325   3329     1
   3325   3327     1
   3325   3328     1
   3326   3329     1
   3326   3327     1
   3326   3328     1
   3327   3330     1
   3327   3331     1
   3327   3332     1
   3328   3330     1
   3328   3331     1
   3328   3332     1
   3333   3339     1
   3333   3340     1
   3334   3336     1
   3334   3337     1
   3334   3338     1
   3335   3342     1
   3335   3343     1
   3335   3344     1
   3337   3341     1
   3337   3339     1
   3337   3340     1
   3338   3341     1
   3338   3339     1
   3338   3340     1
   3339   3342     1
   3339   3343     1
   3339   3344     1
   3340   3342     1
   3340   3343     1
   3340   3344     1
   3345   3351     1
   3345   3352     1
   3346   3348     1
   3346   3349     1
   3346   3350     1
   3347   3354     1
   3347   3355     1
   3347   3356     1
   3349   3353     1
   3349   3351     1
   3349   3352     1
   3350   3353     1
   3350   3351     1
   3350   3352     1
   3351   3354     1
   3351   3355     1
   3351   3356     1
   3352   3354     1
   3352   3355     1
   3352   3356     1
   3357   3363     1
   3357   3364     1
   3358   3360     1
   3358   3361     1
   3358   3362     1
   3359   3366     1
   3359   3367     1
   3359   3368     1
   3361   3365     1
   3361   3363     1
   3361   3364     1
   3362   3365     1
   3362   3363     1
   3362   3364     1
   3363   3366     1
   3363   3367     1
   3363   3368     1
   3364   3366     1
   3364   3367     1
   3364   3368     1
   3369   3375     1
   3369   3376     1
   3370   3372     1
   3370   3373     1
   3370   3374     1
   3371   3378     1
   3371   3379     1
   3371   3380     1
   3373   3377     1
   3373   3375     1
   3373   3376     1
   3374   3377     1
   3374   3375     1
   3374   3376     1
   3375   3378     1
   3375   3379     1
   3375   3380     1
   3376   3378     1
   3376   3379     1
   3376   3380     1
   3381   3387     1
   3381   3388     1
   3382   3384     1
   3382   3385     1
   3382   3386     1
   3383   3390     1
   3383   3391     1
   3383   3392     1
   3385   3389     1
   3385   3387     1
   3385   3388     1
   3386   3389     1
   3386   3387     1
   3386   3388     1
   3387   3390     1
   3387   3391     1
   3387   3392     1
   3388   3390     1
   3388   3391     1
   3388   3392     1
   3393   3399     1
   3393   3400     1
   3394   3396     1
   3394   3397     1
   3394   3398     1
   3395   3402     1
   3395   3403     1
   3395   3404     1
   3397   3401     1
   3397   3399     1
   3397   3400     1
   3398   3401     1
   3398   3399     1
   3398   3400     1
   3399   3402     1
   3399   3403     1
   3399   3404     1
   3400   3402     1
   3400   3403     1
   3400   3404     1
   3405   3411     1
   3405   3412     1
   3406   3408     1
   3406   3409     1
   3406   3410     1
   3407   3414     1
   3407   3415     1
   3407   3416     1
   3409   3413     1
   3409   3411     1
   3409   3412     1
   3410   3413     1
   3410   3411     1
   3410   3412     1
   3411   3414     1
   3411   3415     1
   3411   3416     1
   3412   3414     1
   3412   3415     1
   3412   3416     1
   3417   3423     1
   3417   3424     1
   3418   3420     1
   3418   3421     1
   3418   3422     1
   3419   3426     1
   3419   3427     1
   3419   3428     1
   3421   3425     1
   3421   3423     1
   3421   3424     1
   3422   3425     1
   3422   3423     1
   3422   3424     1
   3423   3426     1
   3423   3427     1
   3423   3428     1
   3424   3426     1
   3424   3427     1
   3424   3428     1
   3429   3435     1
   3429   3436     1
   3430   3432     1
   3430   3433     1
   3430   3434     1
   3431   3438     1
   3431   3439     1
   3431   3440     1
   3433   3437     1
   3433   3435     1
   3433   3436     1
   3434   3437     1
   3434   3435     1
   3434   3436     1
   3435   3438     1
   3435   3439     1
   3435   3440     1
   3436   3438     1
   3436   3439     1
   3436   3440     1
   3441   3447     1
   3441   3448     1
   3442   3444     1
   3442   3445     1
   3442   3446     1
   3443   3450     1
   3443   3451     1
   3443   3452     1
   3445   3449     1
   3445   3447     1
   3445   3448     1
   3446   3449     1
   3446   3447     1
   3446   3448     1
   3447   3450     1
   3447   3451     1
   3447   3452     1
   3448   3450     1
   3448   3451     1
   3448   3452     1
   3453   3459     1
   3453   3460     1
   3454   3456     1
   3454   3457     1
   3454   3458     1
   3455   3462     1
   3455   3463     1
   3455   3464     1
   3457   3461     1
   3457   3459     1
   3457   3460     1
   3458   3461     1
   3458   3459     1
   3458   3460     1
   3459   3462     1
   3459   3463     1
   3459   3464     1
   3460   3462     1
   3460   3463     1
   3460   3464     1
   3465   3471     1
   3465   3472     1
   3466   3468     1
   3466   3469     1
   3466   3470     1
   3467   3474     1
   3467   3475     1
   3467   3476     1
   3469   3473     1
   3469   3471     1
   3469   3472     1
   3470   3473     1
   3470   3471     1
   3470   3472     1
   3471   3474     1
   3471   3475     1
   3471   3476     1
   3472   3474     1
   3472   3475     1
   3472   3476     1
   3477   3483     1
   3477   3484     1
   3478   3480     1
   3478   3481     1
   3478   3482     1
   3479   3486     1
   3479   3487     1
   3479   3488     1
   3481   3485     1
   3481   3483     1
   3481   3484     1
   3482   3485     1
   3482   3483     1
   3482   3484     1
   3483   3486     1
   3483   3487     1
   3483   3488     1
   3484   3486     1
   3484   3487     1
   3484   3488     1
   3489   3495     1
   3489   3496     1
   3490   3492     1
   3490   3493     1
   3490   3494     1
   3491   3498     1
   3491   3499     1
   3491   3500     1
   3493   3497     1
   3493   3495     1
   3493   3496     1
   3494   3497     1
   3494   3495     1
   3494   3496     1
   3495   3498     1
   3495   3499     1
   3495   3500     1
   3496   3498     1
   3496   3499     1
   3496   3500     1
   3501   3507     1
   3501   3508     1
   3502   3504     1
   3502   3505     1
   3502   3506     1
   3503   3510     1
   3503   3511     1
   3503   3512     1
   3505   3509     1
   3505   3507     1
   3505   3508     1
   3506   3509     1
   3506   3507     1
   3506   3508     1
   3507   3510     1
   3507   3511     1
   3507   3512     1
   3508   3510     1
   3508   3511     1
   3508   3512     1
   3513   3519     1
   3513   3520     1
   3514   3516     1
   3514   3517     1
   3514   3518     1
   3515   3522     1
   3515   3523     1
   3515   3524     1
   3517   3521     1
   3517   3519     1
   3517   3520     1
   3518   3521     1
   3518   3519     1
   3518   3520     1
   3519   3522     1
   3519   3523     1
   3519   3524     1
   3520   3522     1
   3520   3523     1
   3520   3524     1
   3525   3531     1
   3525   3532     1
   3526   3528     1
   3526   3529     1
   3526   3530     1
   3527   3534     1
   3527   3535     1
   3527   3536     1
   3529   3533     1
   3529   3531     1
   3529   3532     1
   3530   3533     1
   3530   3531     1
   3530   3532     1
   3531   3534     1
   3531   3535     1
   3531   3536     1
   3532   3534     1
   3532   3535     1
   3532   3536     1
   3537   3543     1
   3537   3544     1
   3538   3540     1
   3538   3541     1
   3538   3542     1
   3539   3546     1
   3539   3547     1
   3539   3548     1
   3541   3545     1
   3541   3543     1
   3541   3544     1
   3542   3545     1
   3542   3543     1
   3542   3544     1
   3543   3546     1
   3543   3547     1
   3543   3548     1
   3544   3546     1
   3544   3547     1
   3544   3548     1
   3549   3555     1
   3549   3556     1
   3550   3552     1
   3550   3553     1
   3550   3554     1
   3551   3558     1
   3551   3559     1
   3551   3560     1
   3553   3557     1
   3553   3555     1
   3553   3556     1
   3554   3557     1
   3554   3555     1
   3554   3556     1
   3555   3558     1
   3555   3559     1
   3555   3560     1
   3556   3558     1
   3556   3559     1
   3556   3560     1
   3561   3567     1
   3561   3568     1
   3562   3564     1
   3562   3565     1
   3562   3566     1
   3563   3570     1
   3563   3571     1
   3563   3572     1
   3565   3569     1
   3565   3567     1
   3565   3568     1
   3566   3569     1
   3566   3567     1
   3566   3568     1
   3567   3570     1
   3567   3571     1
   3567   3572     1
   3568   3570     1
   3568   3571     1
   3568   3572     1
   3573   3579     1
   3573   3580     1
   3574   3576     1
   3574   3577     1
   3574   3578     1
   3575   3582     1
   3575   3583     1
   3575   3584     1
   3577   3581     1
   3577   3579     1
   3577   3580     1
   3578   3581     1
   3578   3579     1
   3578   3580     1
   3579   3582     1
   3579   3583     1
   3579   3584     1
   3580   3582     1
   3580   3583     1
   3580   3584     1
   3585   3591     1
   3585   3592     1
   3586   3588     1
   3586   3589     1
   3586   3590     1
   3587   3594     1
   3587   3595     1
   3587   3596     1
   3589   3593     1
   3589   3591     1
   3589   3592     1
   3590   3593     1
   3590   3591     1
   3590   3592     1
   3591   3594     1
   3591   3595     1
   3591   3596     1
   3592   3594     1
   3592   3595     1
   3592   3596     1
   3597   3603     1
   3597   3604     1
   3598   3600     1
   3598   3601     1
   3598   3602     1
   3599   3606     1
   3599   3607     1
   3599   3608     1
   3601   3605     1
   3601   3603     1
   3601   3604     1
   3602   3605     1
   3602   3603     1
   3602   3604     1
   3603   3606     1
   3603   3607     1
   3603   3608     1
   3604   3606     1
   3604   3607     1
   3604   3608     1
   3609   3615     1
   3609   3616     1
   3610   3612     1
   3610   3613     1
   3610   3614     1
   3611   3618     1
   3611   3619     1
   3611   3620     1
   3613   3617     1
   3613   3615     1
   3613   3616     1
   3614   3617     1
   3614   3615     1
   3614   3616     1
   3615   3618     1
   3615   3619     1
   3615   3620     1
   3616   3618     1
   3616   3619     1
   3616   3620     1
   3621   3627     1
   3621   3628     1
   3622   3624     1
   3622   3625     1
   3622   3626     1
   3623   3630     1
   3623   3631     1
   3623   3632     1
   3625   3629     1
   3625   3627     1
   3625   3628     1
   3626   3629     1
   3626   3627     1
   3626   3628     1
   3627   3630     1
   3627   3631     1
   3627   3632     1
   3628   3630     1
   3628   3631     1
   3628   3632     1
   3633   3639     1
   3633   3640     1
   3634   3636     1
   3634   3637     1
   3634   3638     1
   3635   3642     1
   3635   3643     1
   3635   3644     1
   3637   3641     1
   3637   3639     1
   3637   3640     1
   3638   3641     1
   3638   3639     1
   3638   3640     1
   3639   3642     1
   3639   3643     1
   3639   3644     1
   3640   3642     1
   3640   3643     1
   3640   3644     1
   3645   3651     1
   3645   3652     1
   3646   3648     1
   3646   3649     1
   3646   3650     1
   3647   3654     1
   3647   3655     1
   3647   3656     1
   3649   3653     1
   3649   3651     1
   3649   3652     1
   3650   3653     1
   3650   3651     1
   3650   3652     1
   3651   3654     1
   3651   3655     1
   3651   3656     1
   3652   3654     1
   3652   3655     1
   3652   3656     1
   3657   3663     1
   3657   3664     1
   3658   3660     1
   3658   3661     1
   3658   3662     1
   3659   3666     1
   3659   3667     1
   3659   3668     1
   3661   3665     1
   3661   3663     1
   3661   3664     1
   3662   3665     1
   3662   3663     1
   3662   3664     1
   3663   3666     1
   3663   3667     1
   3663   3668     1
   3664   3666     1
   3664   3667     1
   3664   3668     1
   3669   3675     1
   3669   3676     1
   3670   3672     1
   3670   3673     1
   3670   3674     1
   3671   3678     1
   3671   3679     1
   3671   3680     1
   3673   3677     1
   3673   3675     1
   3673   3676     1
   3674   3677     1
   3674   3675     1
   3674   3676     1
   3675   3678     1
   3675   3679     1
   3675   3680     1
   3676   3678     1
   3676   3679     1
   3676   3680     1
   3681   3687     1
   3681   3688     1
   3682   3684     1
   3682   3685     1
   3682   3686     1
   3683   3690     1
   3683   3691     1
   3683   3692     1
   3685   3689     1
   3685   3687     1
   3685   3688     1
   3686   3689     1
   3686   3687     1
   3686   3688     1
   3687   3690     1
   3687   3691     1
   3687   3692     1
   3688   3690     1
   3688   3691     1
   3688   3692     1
   3693   3699     1
   3693   3700     1
   3694   3696     1
   3694   3697     1
   3694   3698     1
   3695   3702     1
   3695   3703     1
   3695   3704     1
   3697   3701     1
   3697   3699     1
   3697   3700     1
   3698   3701     1
   3698   3699     1
   3698   3700     1
   3699   3702     1
   3699   3703     1
   3699   3704     1
   3700   3702     1
   3700   3703     1
   3700   3704     1
   3705   3711     1
   3705   3712     1
   3706   3708     1
   3706   3709     1
   3706   3710     1
   3707   3714     1
   3707   3715     1
   3707   3716     1
   3709   3713     1
   3709   3711     1
   3709   3712     1
   3710   3713     1
   3710   3711     1
   3710   3712     1
   3711   3714     1
   3711   3715     1
   3711   3716     1
   3712   3714     1
   3712   3715     1
   3712   3716     1
   3717   3723     1
   3717   3724     1
   3718   3720     1
   3718   3721     1
   3718   3722     1
   3719   3726     1
   3719   3727     1
   3719   3728     1
   3721   3725     1
   3721   3723     1
   3721   3724     1
   3722   3725     1
   3722   3723     1
   3722   3724     1
   3723   3726     1
   3723   3727     1
   3723   3728     1
   3724   3726     1
   3724   3727     1
   3724   3728     1
   3729   3735     1
   3729   3736     1
   3730   3732     1
   3730   3733     1
   3730   3734     1
   3731   3738     1
   3731   3739     1
   3731   3740     1
   3733   3737     1
   3733   3735     1
   3733   3736     1
   3734   3737     1
   3734   3735     1
   3734   3736     1
   3735   3738     1
   3735   3739     1
   3735   3740     1
   3736   3738     1
   3736   3739     1
   3736   3740     1
   3741   3747     1
   3741   3748     1
   3742   3744     1
   3742   3745     1
   3742   3746     1
   3743   3750     1
   3743   3751     1
   3743   3752     1
   3745   3749     1
   3745   3747     1
   3745   3748     1
   3746   3749     1
   3746   3747     1
   3746   3748     1
   3747   3750     1
   3747   3751     1
   3747   3752     1
   3748   3750     1
   3748   3751     1
   3748   3752     1
   3753   3759     1
   3753   3760     1
   3754   3756     1
   3754   3757     1
   3754   3758     1
   3755   3762     1
   3755   3763     1
   3755   3764     1
   3757   3761     1
   3757   3759     1
   3757   3760     1
   3758   3761     1
   3758   3759     1
   3758   3760     1
   3759   3762     1
   3759   3763     1
   3759   3764     1
   3760   3762     1
   3760   3763     1
   3760   3764     1
   3765   3771     1
   3765   3772     1
   3766   3768     1
   3766   3769     1
   3766   3770     1
   3767   3774     1
   3767   3775     1
   3767   3776     1
   3769   3773     1
   3769   3771     1
   3769   3772     1
   3770   3773     1
   3770   3771     1
   3770   3772     1
   3771   3774     1
   3771   3775     1
   3771   3776     1
   3772   3774     1
   3772   3775     1
   3772   3776     1
   3777   3783     1
   3777   3784     1
   3778   3780     1
   3778   3781     1
   3778   3782     1
   3779   3786     1
   3779   3787     1
   3779   3788     1
   3781   3785     1
   3781   3783     1
   3781   3784     1
   3782   3785     1
   3782   3783     1
   3782   3784     1
   3783   3786     1
   3783   3787     1
   3783   3788     1
   3784   3786     1
   3784   3787     1
   3784   3788     1
   3789   3795     1
   3789   3796     1
   3790   3792     1
   3790   3793     1
   3790   3794     1
   3791   3798     1
   3791   3799     1
   3791   3800     1
   3793   3797     1
   3793   3795     1
   3793   3796     1
   3794   3797     1
   3794   3795     1
   3794   3796     1
   3795   3798     1
   3795   3799     1
   3795   3800     1
   3796   3798     1
   3796   3799     1
   3796   3800     1
   3801   3807     1
   3801   3808     1
   3802   3804     1
   3802   3805     1
   3802   3806     1
   3803   3810     1
   3803   3811     1
   3803   3812     1
   3805   3809     1
   3805   3807     1
   3805   3808     1
   3806   3809     1
   3806   3807     1
   3806   3808     1
   3807   3810     1
   3807   3811     1
   3807   3812     1
   3808   3810     1
   3808   3811     1
   3808   3812     1
   3813   3819     1
   3813   3820     1
   3814   3816     1
   3814   3817     1
   3814   3818     1
   3815   3822     1
   3815   3823     1
   3815   3824     1
   3817   3821     1
   3817   3819     1
   3817   3820     1
   3818   3821     1
   3818   3819     1
   3818   3820     1
   3819   3822     1
   3819   3823     1
   3819   3824     1
   3820   3822     1
   3820   3823     1
   3820   3824     1
   3825   3831     1
   3825   3832     1
   3826   3828     1
   3826   3829     1
   3826   3830     1
   3827   3834     1
   3827   3835     1
   3827   3836     1
   3829   3833     1
   3829   3831     1
   3829   3832     1
   3830   3833     1
   3830   3831     1
   3830   3832     1
   3831   3834     1
   3831   3835     1
   3831   3836     1
   3832   3834     1
   3832   3835     1
   3832   3836     1
   3837   3843     1
   3837   3844     1
   3838   3840     1
   3838   3841     1
   3838   3842     1
   3839   3846     1
   3839   3847     1
   3839   3848     1
   3841   3845     1
   3841   3843     1
   3841   3844     1
   3842   3845     1
   3842   3843     1
   3842   3844     1
   3843   3846     1
   3843   3847     1
   3843   3848     1
   3844   3846     1
   3844   3847     1
   3844   3848     1
   3849   3855     1
   3849   3856     1
   3850   3852     1
   3850   3853     1
   3850   3854     1
   3851   3858     1
   3851   3859     1
   3851   3860     1
   3853   3857     1
   3853   3855     1
   3853   3856     1
   3854   3857     1
   3854   3855     1
   3854   3856     1
   3855   3858     1
   3855   3859     1
   3855   3860     1
   3856   3858     1
   3856   3859     1
   3856   3860     1
   3861   3867     1
   3861   3868     1
   3862   3864     1
   3862   3865     1
   3862   3866     1
   3863   3870     1
   3863   3871     1
   3863   3872     1
   3865   3869     1
   3865   3867     1
   3865   3868     1
   3866   3869     1
   3866   3867     1
   3866   3868     1
   3867   3870     1
   3867   3871     1
   3867   3872     1
   3868   3870     1
   3868   3871     1
   3868   3872     1
   3873   3879     1
   3873   3880     1
   3874   3876     1
   3874   3877     1
   3874   3878     1
   3875   3882     1
   3875   3883     1
   3875   3884     1
   3877   3881     1
   3877   3879     1
   3877   3880     1
   3878   3881     1
   3878   3879     1
   3878   3880     1
   3879   3882     1
   3879   3883     1
   3879   3884     1
   3880   3882     1
   3880   3883     1
   3880   3884     1
   3885   3891     1
   3885   3892     1
   3886   3888     1
   3886   3889     1
   3886   3890     1
   3887   3894     1
   3887   3895     1
   3887   3896     1
   3889   3893     1
   3889   3891     1
   3889   3892     1
   3890   3893     1
   3890   3891     1
   3890   3892     1
   3891   3894     1
   3891   3895     1
   3891   3896     1
   3892   3894     1
   3892   3895     1
   3892   3896     1
   3897   3903     1
   3897   3904     1
   3898   3900     1
   3898   3901     1
   3898   3902     1
   3899   3906     1
   3899   3907     1
   3899   3908     1
   3901   3905     1
   3901   3903     1
   3901   3904     1
   3902   3905     1
   3902   3903     1
   3902   3904     1
   3903   3906     1
   3903   3907     1
   3903   3908     1
   3904   3906     1
   3904   3907     1
   3904   3908     1
   3909   3915     1
   3909   3916     1
   3910   3912     1
   3910   3913     1
   3910   3914     1
   3911   3918     1
   3911   3919     1
   3911   3920     1
   3913   3917     1
   3913   3915     1
   3913   3916     1
   3914   3917     1
   3914   3915     1
   3914   3916     1
   3915   3918     1
   3915   3919     1
   3915   3920     1
   3916   3918     1
   3916   3919     1
   3916   3920     1
   3921   3927     1
   3921   3928     1
   3922   3924     1
   3922   3925     1
   3922   3926     1
   3923   3930     1
   3923   3931     1
   3923   3932     1
   3925   3929     1
   3925   3927     1
   3925   3928     1
   3926   3929     1
   3926   3927     1
   3926   3928     1
   3927   3930     1
   3927   3931     1
   3927   3932     1
   3928   3930     1
   3928   3931     1
   3928   3932     1
   3933   3939     1
   3933   3940     1
   3934   3936     1
   3934   3937     1
   3934   3938     1
   3935   3942     1
   3935   3943     1
   3935   3944     1
   3937   3941     1
   3937   3939     1
   3937   3940     1
   3938   3941     1
   3938   3939     1
   3938   3940     1
   3939   3942     1
   3939   3943     1
   3939   3944     1
   3940   3942     1
   3940   3943     1
   3940   3944     1
   3945   3951     1
   3945   3952     1
   3946   3948     1
   3946   3949     1
   3946   3950     1
   3947   3954     1
   3947   3955     1
   3947   3956     1
   3949   3953     1
   3949   3951     1
   3949   3952     1
   3950   3953     1
   3950   3951     1
   3950   3952     1
   3951   3954     1
   3951   3955     1
   3951   3956     1
   3952   3954     1
   3952   3955     1
   3952   3956     1
   3957   3963     1
   3957   3964     1
   3958   3960     1
   3958   3961     1
   3958   3962     1
   3959   3966     1
   3959   3967     1
   3959   3968     1
   3961   3965     1
   3961   3963     1
   3961   3964     1
   3962   3965     1
   3962   3963     1
   3962   3964     1
   3963   3966     1
   3963   3967     1
   3963   3968     1
   3964   3966     1
   3964   3967     1
   3964   3968     1
   3969   3975     1
   3969   3976     1
   3970   3972     1
   3970   3973     1
   3970   3974     1
   3971   3978     1
   3971   3979     1
   3971   3980     1
   3973   3977     1
   3973   3975     1
   3973   3976     1
   3974   3977     1
   3974   3975     1
   3974   3976     1
   3975   3978     1
   3975   3979     1
   3975   3980     1
   3976   3978     1
   3976   3979     1
   3976   3980     1
   3981   3987     1
   3981   3988     1
   3982   3984     1
   3982   3985     1
   3982   3986     1
   3983   3990     1
   3983   3991     1
   3983   3992     1
   3985   3989     1
   3985   3987     1
   3985   3988     1
   3986   3989     1
   3986   3987     1
   3986   3988     1
   3987   3990     1
   3987   3991     1
   3987   3992     1
   3988   3990     1
   3988   3991     1
   3988   3992     1
   3993   3999     1
   3993   4000     1
   3994   3996     1
   3994   3997     1
   3994   3998     1
   3995   4002     1
   3995   4003     1
   3995   4004     1
   3997   4001     1
   3997   3999     1
   3997   4000     1
   3998   4001     1
   3998   3999     1
   3998   4000     1
   3999   4002     1
   3999   4003     1
   3999   4004     1
   4000   4002     1
   4000   4003     1
   4000   4004     1
   4005   4011     1
   4005   4012     1
   4006   4008     1
   4006   4009     1
   4006   4010     1
   4007   4014     1
   4007   4015     1
   4007   4016     1
   4009   4013     1
   4009   4011     1
   4009   4012     1
   4010   4013     1
   4010   4011     1
   4010   4012     1
   4011   4014     1
   4011   4015     1
   4011   4016     1
   4012   4014     1
   4012   4015     1
   4012   4016     1
   4017   4023     1
   4017   4024     1
   4018   4020     1
   4018   4021     1
   4018   4022     1
   4019   4026     1
   4019   4027     1
   4019   4028     1
   4021   4025     1
   4021   4023     1
   4021   4024     1
   4022   4025     1
   4022   4023     1
   4022   4024     1
   4023   4026     1
   4023   4027     1
   4023   4028     1
   4024   4026     1
   4024   4027     1
   4024   4028     1
   4029   4035     1
   4029   4036     1
   4030   4032     1
   4030   4033     1
   4030   4034     1
   4031   4038     1
   4031   4039     1
   4031   4040     1
   4033   4037     1
   4033   4035     1
   4033   4036     1
   4034   4037     1
   4034   4035     1
   4034   4036     1
   4035   4038     1
   4035   4039     1
   4035   4040     1
   4036   4038     1
   4036   4039     1
   4036   4040     1
   4041   4047     1
   4041   4048     1
   4042   4044     1
   4042   4045     1
   4042   4046     1
   4043   4050     1
   4043   4051     1
   4043   4052     1
   4045   4049     1
   4045   4047     1
   4045   4048     1
   4046   4049     1
   4046   4047     1
   4046   4048     1
   4047   4050     1
   4047   4051     1
   4047   4052     1
   4048   4050     1
   4048   4051     1
   4048   4052     1
   4053   4059     1
   4053   4060     1
   4054   4056     1
   4054   4057     1
   4054   4058     1
   4055   4062     1
   4055   4063     1
   4055   4064     1
   4057   4061     1
   4057   4059     1
   4057   4060     1
   4058   4061     1
   4058   4059     1
   4058   4060     1
   4059   4062     1
   4059   4063     1
   4059   4064     1
   4060   4062     1
   4060   4063     1
   4060   4064     1
   4065   4071     1
   4065   4072     1
   4066   4068     1
   4066   4069     1
   4066   4070     1
   4067   4074     1
   4067   4075     1
   4067   4076     1
   4069   4073     1
   4069   4071     1
   4069   4072     1
   4070   4073     1
   4070   4071     1
   4070   4072     1
   4071   4074     1
   4071   4075     1
   4071   4076     1
   4072   4074     1
   4072   4075     1
   4072   4076     1
   4077   4083     1
   4077   4084     1
   4078   4080     1
   4078   4081     1
   4078   4082     1
   4079   4086     1
   4079   4087     1
   4079   4088     1
   4081   4085     1
   4081   4083     1
   4081   4084     1
   4082   4085     1
   4082   4083     1
   4082   4084     1
   4083   4086     1
   4083   4087     1
   4083   4088     1
   4084   4086     1
   4084   4087     1
   4084   4088     1
   4089   4095     1
   4089   4096     1
   4090   4092     1
   4090   4093     1
   4090   4094     1
   4091   4098     1
   4091   4099     1
   4091   4100     1
   4093   4097     1
   4093   4095     1
   4093   4096     1
   4094   4097     1
   4094   4095     1
   4094   4096     1
   4095   4098     1
   4095   4099     1
   4095   4100     1
   4096   4098     1
   4096   4099     1
   4096   4100     1
   4101   4107     1
   4101   4108     1
   4102   4104     1
   4102   4105     1
   4102   4106     1
   4103   4110     1
   4103   4111     1
   4103   4112     1
   4105   4109     1
   4105   4107     1
   4105   4108     1
   4106   4109     1
   4106   4107     1
   4106   4108     1
   4107   4110     1
   4107   4111     1
   4107   4112     1
   4108   4110     1
   4108   4111     1
   4108   4112     1
   4113   4119     1
   4113   4120     1
   4114   4116     1
   4114   4117     1
   4114   4118     1
   4115   4122     1
   4115   4123     1
   4115   4124     1
   4117   4121     1
   4117   4119     1
   4117   4120     1
   4118   4121     1
   4118   4119     1
   4118   4120     1
   4119   4122     1
   4119   4123     1
   4119   4124     1
   4120   4122     1
   4120   4123     1
   4120   4124     1
   4125   4131     1
   4125   4132     1
   4126   4128     1
   4126   4129     1
   4126   4130     1
   4127   4134     1
   4127   4135     1
   4127   4136     1
   4129   4133     1
   4129   4131     1
   4129   4132     1
   4130   4133     1
   4130   4131     1
   4130   4132     1
   4131   4134     1
   4131   4135     1
   4131   4136     1
   4132   4134     1
   4132   4135     1
   4132   4136     1
   4137   4143     1
   4137   4144     1
   4138   4140     1
   4138   4141     1
   4138   4142     1
   4139   4146     1
   4139   4147     1
   4139   4148     1
   4141   4145     1
   4141   4143     1
   4141   4144     1
   4142   4145     1
   4142   4143     1
   4142   4144     1
   4143   4146     1
   4143   4147     1
   4143   4148     1
   4144   4146     1
   4144   4147     1
   4144   4148     1
   4149   4155     1
   4149   4156     1
   4150   4152     1
   4150   4153     1
   4150   4154     1
   4151   4158     1
   4151   4159     1
   4151   4160     1
   4153   4157     1
   4153   4155     1
   4153   4156     1
   4154   4157     1
   4154   4155     1
   4154   4156     1
   4155   4158     1
   4155   4159     1
   4155   4160     1
   4156   4158     1
   4156   4159     1
   4156   4160     1
   4161   4167     1
   4161   4168     1
   4162   4164     1
   4162   4165     1
   4162   4166     1
   4163   4170     1
   4163   4171     1
   4163   4172     1
   4165   4169     1
   4165   4167     1
   4165   4168     1
   4166   4169     1
   4166   4167     1
   4166   4168     1
   4167   4170     1
   4167   4171     1
   4167   4172     1
   4168   4170     1
   4168   4171     1
   4168   4172     1
   4173   4179     1
   4173   4180     1
   4174   4176     1
   4174   4177     1
   4174   4178     1
   4175   4182     1
   4175   4183     1
   4175   4184     1
   4177   4181     1
   4177   4179     1
   4177   4180     1
   4178   4181     1
   4178   4179     1
   4178   4180     1
   4179   4182     1
   4179   4183     1
   4179   4184     1
   4180   4182     1
   4180   4183     1
   4180   4184     1
   4185   4191     1
   4185   4192     1
   4186   4188     1
   4186   4189     1
   4186   4190     1
   4187   4194     1
   4187   4195     1
   4187   4196     1
   4189   4193     1
   4189   4191     1
   4189   4192     1
   4190   4193     1
   4190   4191     1
   4190   4192     1
   4191   4194     1
   4191   4195     1
   4191   4196     1
   4192   4194     1
   4192   4195     1
   4192   4196     1
   4197   4203     1
   4197   4204     1
   4198   4200     1
   4198   4201     1
   4198   4202     1
   4199   4206     1
   4199   4207     1
   4199   4208     1
   4201   4205     1
   4201   4203     1
   4201   4204     1
   4202   4205     1
   4202   4203     1
   4202   4204     1
   4203   4206     1
   4203   4207     1
   4203   4208     1
   4204   4206     1
   4204   4207     1
   4204   4208     1
   4209   4215     1
   4209   4216     1
   4210   4212     1
   4210   4213     1
   4210   4214     1
   4211   4218     1
   4211   4219     1
   4211   4220     1
   4213   4217     1
   4213   4215     1
   4213   4216     1
   4214   4217     1
   4214   4215     1
   4214   4216     1
   4215   4218     1
   4215   4219     1
   4215   4220     1
   4216   4218     1
   4216   4219     1
   4216   4220     1
   4221   4227     1
   4221   4228     1
   4222   4224     1
   4222   4225     1
   4222   4226     1
   4223   4230     1
   4223   4231     1
   4223   4232     1
   4225   4229     1
   4225   4227     1
   4225   4228     1
   4226   4229     1
   4226   4227     1
   4226   4228     1
   4227   4230     1
   4227   4231     1
   4227   4232     1
   4228   4230     1
   4228   4231     1
   4228   4232     1
   4233   4239     1
   4233   4240     1
   4234   4236     1
   4234   4237     1
   4234   4238     1
   4235   4242     1
   4235   4243     1
   4235   4244     1
   4237   4241     1
   4237   4239     1
   4237   4240     1
   4238   4241     1
   4238   4239     1
   4238   4240     1
   4239   4242     1
   4239   4243     1
   4239   4244     1
   4240   4242     1
   4240   4243     1
   4240   4244     1
   4245   4251     1
   4245   4252     1
   4246   4248     1
   4246   4249     1
   4246   4250     1
   4247   4254     1
   4247   4255     1
   4247   4256     1
   4249   4253     1
   4249   4251     1
   4249   4252     1
   4250   4253     1
   4250   4251     1
   4250   4252     1
   4251   4254     1
   4251   4255     1
   4251   4256     1
   4252   4254     1
   4252   4255     1
   4252   4256     1
   4257   4263     1
   4257   4264     1
   4258   4260     1
   4258   4261     1
   4258   4262     1
   4259   4266     1
   4259   4267     1
   4259   4268     1
   4261   4265     1
   4261   4263     1
   4261   4264     1
   4262   4265     1
   4262   4263     1
   4262   4264     1
   4263   4266     1
   4263   4267     1
   4263   4268     1
   4264   4266     1
   4264   4267     1
   4264   4268     1
   4269   4275     1
   4269   4276     1
   4270   4272     1
   4270   4273     1
   4270   4274     1
   4271   4278     1
   4271   4279     1
   4271   4280     1
   4273   4277     1
   4273   4275     1
   4273   4276     1
   4274   4277     1
   4274   4275     1
   4274   4276     1
   4275   4278     1
   4275   4279     1
   4275   4280     1
   4276   4278     1
   4276   4279     1
   4276   4280     1
   4281   4287     1
   4281   4288     1
   4282   4284     1
   4282   4285     1
   4282   4286     1
   4283   4290     1
   4283   4291     1
   4283   4292     1
   4285   4289     1
   4285   4287     1
   4285   4288     1
   4286   4289     1
   4286   4287     1
   4286   4288     1
   4287   4290     1
   4287   4291     1
   4287   4292     1
   4288   4290     1
   4288   4291     1
   4288   4292     1
   4293   4299     1
   4293   4300     1
   4294   4296     1
   4294   4297     1
   4294   4298     1
   4295   4302     1
   4295   4303     1
   4295   4304     1
   4297   4301     1
   4297   4299     1
   4297   4300     1
   4298   4301     1
   4298   4299     1
   4298   4300     1
   4299   4302     1
   4299   4303     1
   4299   4304     1
   4300   4302     1
   4300   4303     1
   4300   4304     1
   4305   4311     1
   4305   4312     1
   4306   4308     1
   4306   4309     1
   4306   4310     1
   4307   4314     1
   4307   4315     1
   4307   4316     1
   4309   4313     1
   4309   4311     1
   4309   4312     1
   4310   4313     1
   4310   4311     1
   4310   4312     1
   4311   4314     1
   4311   4315     1
   4311   4316     1
   4312   4314     1
   4312   4315     1
   4312   4316     1
   4317   4323     1
   4317   4324     1
   4318   4320     1
   4318   4321     1
   4318   4322     1
   4319   4326     1
   4319   4327     1
   4319   4328     1
   4321   4325     1
   4321   4323     1
   4321   4324     1
   4322   4325     1
   4322   4323     1
   4322   4324     1
   4323   4326     1
   4323   4327     1
   4323   4328     1
   4324   4326     1
   4324   4327     1
   4324   4328     1
   4329   4335     1
   4329   4336     1
   4330   4332     1
   4330   4333     1
   4330   4334     1
   4331   4338     1
   4331   4339     1
   4331   4340     1
   4333   4337     1
   4333   4335     1
   4333   4336     1
   4334   4337     1
   4334   4335     1
   4334   4336     1
   4335   4338     1
   4335   4339     1
   4335   4340     1
   4336   4338     1
   4336   4339     1
   4336   4340     1
   4341   4347     1
   4341   4348     1
   4342   4344     1
   4342   4345     1
   4342   4346     1
   4343   4350     1
   4343   4351     1
   4343   4352     1
   4345   4349     1
   4345   4347     1
   4345   4348     1
   4346   4349     1
   4346   4347     1
   4346   4348     1
   4347   4350     1
   4347   4351     1
   4347   4352     1
   4348   4350     1
   4348   4351     1
   4348   4352     1
   4353   4359     1
   4353   4360     1
   4354   4356     1
   4354   4357     1
   4354   4358     1
   4355   4362     1
   4355   4363     1
   4355   4364     1
   4357   4361     1
   4357   4359     1
   4357   4360     1
   4358   4361     1
   4358   4359     1
   4358   4360     1
   4359   4362     1
   4359   4363     1
   4359   4364     1
   4360   4362     1
   4360   4363     1
   4360   4364     1
   4365   4371     1
   4365   4372     1
   4366   4368     1
   4366   4369     1
   4366   4370     1
   4367   4374     1
   4367   4375     1
   4367   4376     1
   4369   4373     1
   4369   4371     1
   4369   4372     1
   4370   4373     1
   4370   4371     1
   4370   4372     1
   4371   4374     1
   4371   4375     1
   4371   4376     1
   4372   4374     1
   4372   4375     1
   4372   4376     1
   4377   4383     1
   4377   4384     1
   4378   4380     1
   4378   4381     1
   4378   4382     1
   4379   4386     1
   4379   4387     1
   4379   4388     1
   4381   4385     1
   4381   4383     1
   4381   4384     1
   4382   4385     1
   4382   4383     1
   4382   4384     1
   4383   4386     1
   4383   4387     1
   4383   4388     1
   4384   4386     1
   4384   4387     1
   4384   4388     1
   4389   4395     1
   4389   4396     1
   4390   4392     1
   4390   4393     1
   4390   4394     1
   4391   4398     1
   4391   4399     1
   4391   4400     1
   4393   4397     1
   4393   4395     1
   4393   4396     1
   4394   4397     1
   4394   4395     1
   4394   4396     1
   4395   4398     1
   4395   4399     1
   4395   4400     1
   4396   4398     1
   4396   4399     1
   4396   4400     1
   4401   4407     1
   4401   4408     1
   4402   4404     1
   4402   4405     1
   4402   4406     1
   4403   4410     1
   4403   4411     1
   4403   4412     1
   4405   4409     1
   4405   4407     1
   4405   4408     1
   4406   4409     1
   4406   4407     1
   4406   4408     1
   4407   4410     1
   4407   4411     1
   4407   4412     1
   4408   4410     1
   4408   4411     1
   4408   4412     1
   4413   4419     1
   4413   4420     1
   4414   4416     1
   4414   4417     1
   4414   4418     1
   4415   4422     1
   4415   4423     1
   4415   4424     1
   4417   4421     1
   4417   4419     1
   4417   4420     1
   4418   4421     1
   4418   4419     1
   4418   4420     1
   4419   4422     1
   4419   4423     1
   4419   4424     1
   4420   4422     1
   4420   4423     1
   4420   4424     1
   4425   4431     1
   4425   4432     1
   4426   4428     1
   4426   4429     1
   4426   4430     1
   4427   4434     1
   4427   4435     1
   4427   4436     1
   4429   4433     1
   4429   4431     1
   4429   4432     1
   4430   4433     1
   4430   4431     1
   4430   4432     1
   4431   4434     1
   4431   4435     1
   4431   4436     1
   4432   4434     1
   4432   4435     1
   4432   4436     1
   4437   4443     1
   4437   4444     1
   4438   4440     1
   4438   4441     1
   4438   4442     1
   4439   4446     1
   4439   4447     1
   4439   4448     1
   4441   4445     1
   4441   4443     1
   4441   4444     1
   4442   4445     1
   4442   4443     1
   4442   4444     1
   4443   4446     1
   4443   4447     1
   4443   4448     1
   4444   4446     1
   4444   4447     1
   4444   4448     1
   4449   4455     1
   4449   4456     1
   4450   4452     1
   4450   4453     1
   4450   4454     1
   4451   4458     1
   4451   4459     1
   4451   4460     1
   4453   4457     1
   4453   4455     1
   4453   4456     1
   4454   4457     1
   4454   4455     1
   4454   4456     1
   4455   4458     1
   4455   4459     1
   4455   4460     1
   4456   4458     1
   4456   4459     1
   4456   4460     1
   4461   4467     1
   4461   4468     1
   4462   4464     1
   4462   4465     1
   4462   4466     1
   4463   4470     1
   4463   4471     1
   4463   4472     1
   4465   4469     1
   4465   4467     1
   4465   4468     1
   4466   4469     1
   4466   4467     1
   4466   4468     1
   4467   4470     1
   4467   4471     1
   4467   4472     1
   4468   4470     1
   4468   4471     1
   4468   4472     1
   4473   4479     1
   4473   4480     1
   4474   4476     1
   4474   4477     1
   4474   4478     1
   4475   4482     1
   4475   4483     1
   4475   4484     1
   4477   4481     1
   4477   4479     1
   4477   4480     1
   4478   4481     1
   4478   4479     1
   4478   4480     1
   4479   4482     1
   4479   4483     1
   4479   4484     1
   4480   4482     1
   4480   4483     1
   4480   4484     1
   4485   4491     1
   4485   4492     1
   4486   4488     1
   4486   4489     1
   4486   4490     1
   4487   4494     1
   4487   4495     1
   4487   4496     1
   4489   4493     1
   4489   4491     1
   4489   4492     1
   4490   4493     1
   4490   4491     1
   4490   4492     1
   4491   4494     1
   4491   4495     1
   4491   4496     1
   4492   4494     1
   4492   4495     1
   4492   4496     1
   4497   4503     1
   4497   4504     1
   4498   4500     1
   4498   4501     1
   4498   4502     1
   4499   4506     1
   4499   4507     1
   4499   4508     1
   4501   4505     1
   4501   4503     1
   4501   4504     1
   4502   4505     1
   4502   4503     1
   4502   4504     1
   4503   4506     1
   4503   4507     1
   4503   4508     1
   4504   4506     1
   4504   4507     1
   4504   4508     1
   4509   4515     1
   4509   4516     1
   4510   4512     1
   4510   4513     1
   4510   4514     1
   4511   4518     1
   4511   4519     1
   4511   4520     1
   4513   4517     1
   4513   4515     1
   4513   4516     1
   4514   4517     1
   4514   4515     1
   4514   4516     1
   4515   4518     1
   4515   4519     1
   4515   4520     1
   4516   4518     1
   4516   4519     1
   4516   4520     1
   4521   4527     1
   4521   4528     1
   4522   4524     1
   4522   4525     1
   4522   4526     1
   4523   4530     1
   4523   4531     1
   4523   4532     1
   4525   4529     1
   4525   4527     1
   4525   4528     1
   4526   4529     1
   4526   4527     1
   4526   4528     1
   4527   4530     1
   4527   4531     1
   4527   4532     1
   4528   4530     1
   4528   4531     1
   4528   4532     1
   4533   4539     1
   4533   4540     1
   4534   4536     1
   4534   4537     1
   4534   4538     1
   4535   4542     1
   4535   4543     1
   4535   4544     1
   4537   4541     1
   4537   4539     1
   4537   4540     1
   4538   4541     1
   4538   4539     1
   4538   4540     1
   4539   4542     1
   4539   4543     1
   4539   4544     1
   4540   4542     1
   4540   4543     1
   4540   4544     1
   4545   4551     1
   4545   4552     1
   4546   4548     1
   4546   4549     1
   4546   4550     1
   4547   4554     1
   4547   4555     1
   4547   4556     1
   4549   4553     1
   4549   4551     1
   4549   4552     1
   4550   4553     1
   4550   4551     1
   4550   4552     1
   4551   4554     1
   4551   4555     1
   4551   4556     1
   4552   4554     1
   4552   4555     1
   4552   4556     1
   4557   4563     1
   4557   4564     1
   4558   4560     1
   4558   4561     1
   4558   4562     1
   4559   4566     1
   4559   4567     1
   4559   4568     1
   4561   4565     1
   4561   4563     1
   4561   4564     1
   4562   4565     1
   4562   4563     1
   4562   4564     1
   4563   4566     1
   4563   4567     1
   4563   4568     1
   4564   4566     1
   4564   4567     1
   4564   4568     1
   4569   4575     1
   4569   4576     1
   4570   4572     1
   4570   4573     1
   4570   4574     1
   4571   4578     1
   4571   4579     1
   4571   4580     1
   4573   4577     1
   4573   4575     1
   4573   4576     1
   4574   4577     1
   4574   4575     1
   4574   4576     1
   4575   4578     1
   4575   4579     1
   4575   4580     1
   4576   4578     1
   4576   4579     1
   4576   4580     1
   4581   4587     1
   4581   4588     1
   4582   4584     1
   4582   4585     1
   4582   4586     1
   4583   4590     1
   4583   4591     1
   4583   4592     1
   4585   4589     1
   4585   4587     1
   4585   4588     1
   4586   4589     1
   4586   4587     1
   4586   4588     1
   4587   4590     1
   4587   4591     1
   4587   4592     1
   4588   4590     1
   4588   4591     1
   4588   4592     1
   4593   4599     1
   4593   4600     1
   4594   4596     1
   4594   4597     1
   4594   4598     1
   4595   4602     1
   4595   4603     1
   4595   4604     1
   4597   4601     1
   4597   4599     1
   4597   4600     1
   4598   4601     1
   4598   4599     1
   4598   4600     1
   4599   4602     1
   4599   4603     1
   4599   4604     1
   4600   4602     1
   4600   4603     1
   4600   4604     1
   4605   4611     1
   4605   4612     1
   4606   4608     1
   4606   4609     1
   4606   4610     1
   4607   4614     1
   4607   4615     1
   4607   4616     1
   4609   4613     1
   4609   4611     1
   4609   4612     1
   4610   4613     1
   4610   4611     1
   4610   4612     1
   4611   4614     1
   4611   4615     1
   4611   4616     1
   4612   4614     1
   4612   4615     1
   4612   4616     1
   4617   4623     1
   4617   4624     1
   4618   4620     1
   4618   4621     1
   4618   4622     1
   4619   4626     1
   4619   4627     1
   4619   4628     1
   4621   4625     1
   4621   4623     1
   4621   4624     1
   4622   4625     1
   4622   4623     1
   4622   4624     1
   4623   4626     1
   4623   4627     1
   4623   4628     1
   4624   4626     1
   4624   4627     1
   4624   4628     1
   4629   4635     1
   4629   4636     1
   4630   4632     1
   4630   4633     1
   4630   4634     1
   4631   4638     1
   4631   4639     1
   4631   4640     1
   4633   4637     1
   4633   4635     1
   4633   4636     1
   4634   4637     1
   4634   4635     1
   4634   4636     1
   4635   4638     1
   4635   4639     1
   4635   4640     1
   4636   4638     1
   4636   4639     1
   4636   4640     1
   4641   4647     1
   4641   4648     1
   4642   4644     1
   4642   4645     1
   4642   4646     1
   4643   4650     1
   4643   4651     1
   4643   4652     1
   4645   4649     1
   4645   4647     1
   4645   4648     1
   4646   4649     1
   4646   4647     1
   4646   4648     1
   4647   4650     1
   4647   4651     1
   4647   4652     1
   4648   4650     1
   4648   4651     1
   4648   4652     1
   4653   4659     1
   4653   4660     1
   4654   4656     1
   4654   4657     1
   4654   4658     1
   4655   4662     1
   4655   4663     1
   4655   4664     1
   4657   4661     1
   4657   4659     1
   4657   4660     1
   4658   4661     1
   4658   4659     1
   4658   4660     1
   4659   4662     1
   4659   4663     1
   4659   4664     1
   4660   4662     1
   4660   4663     1
   4660   4664     1
   4665   4671     1
   4665   4672     1
   4666   4668     1
   4666   4669     1
   4666   4670     1
   4667   4674     1
   4667   4675     1
   4667   4676     1
   4669   4673     1
   4669   4671     1
   4669   4672     1
   4670   4673     1
   4670   4671     1
   4670   4672     1
   4671   4674     1
   4671   4675     1
   4671   4676     1
   4672   4674     1
   4672   4675     1
   4672   4676     1

[ angles ]
;    ai     aj     ak funct         c0         c1         c2         c3
      1      4      7     1   111.0400475 552.288000
      1      8      9     1   112.3500484 533.878400
      1      8     12     1   112.3500484 533.878400
      4      1      8     1   111.0400475 552.288000
      4      7     15     1   112.3500484 533.878400
      4      7     18     1   112.3500484 533.878400
      7     15     21     1   111.0400475 552.288000
      7     18     24     1   111.0400475 552.288000
      8      9     30     1   111.0400475 552.288000
      8     12     27     1   111.0400475 552.288000
      9      8     12     1   112.3500484 533.878400
      9     30     34     1   111.0400475 529.694400
     12     27     33     1   111.0400475 529.694400
     15      7     18     1   112.3500484 533.878400
     15     21     35     1   111.0400475 529.694400
     18     24     36     1   111.0400475 529.694400
     21     35     38     1   123.2000528 564.003200
     21     35    114     1   115.1800491 558.982400
     24     36     39     1   123.2000528 564.003200
     24     36    139     1   115.1800491 558.982400
     27     33     37     1   123.2000528 564.003200
     27     33     64     1   115.1800491 558.982400
     30     34     40     1   123.2000528 564.003200
     30     34     89     1   115.1800491 558.982400
     33     64     44     1   120.6900519 530.531200
     34     89     69     1   120.6900519 530.531200
     35    114     94     1   120.6900519 530.531200
     36    139    119     1   120.6900519 530.531200
     37     33     64     1   123.0500530 620.905600
     38     35    114     1   123.0500530 620.905600
     39     36    139     1   123.0500530 620.905600
     40     34     89     1   123.0500530 620.905600
     41     44     64     1   111.6100477 551.451200
     41     47     48     1   112.3500484 533.878400
     41     47     51     1   112.3500484 533.878400
     44     41     47     1   111.0400475 552.288000
     47     48     57     1   111.0400475 552.288000
     47     51     54     1   111.0400475 552.288000
     48     47     51     1   112.3500484 533.878400
     48     57     61     1   111.0400475 529.694400
     51     54     60     1   111.0400475 529.694400
     54     60     62     1   123.2000528 564.003200
     54     60    164     1   115.1800491 558.982400
     57     61     63     1   123.2000528 564.003200
     57     61    189     1   115.1800491 558.982400
     60    164    144     1   120.6900519 530.531200
     61    189    169     1   120.6900519 530.531200
     62     60    164     1   123.0500530 620.905600
     63     61    189     1   123.0500530 620.905600
     66     69     89     1   111.6100477 551.451200
     66     72     73     1   112.3500484 533.878400
     66     72     76     1   112.3500484 533.878400
     69     66     72     1   111.0400475 552.288000
     72     73     82     1   111.0400475 552.288000
     72     76     79     1   111.0400475 552.288000
     73     72     76     1   112.3500484 533.878400
     73     82     86     1   111.0400475 529.694400
     76     79     85     1   111.0400475 529.694400
     79     85     87     1   123.2000528 564.003200
     79     85    214     1   115.1800491 558.982400
     82     86     88     1   123.2000528 564.003200
     82     86    239     1   115.1800491 558.982400
     85    214    194     1   120.6900519 530.531200
     86    239    219     1   120.6900519 530.531200
     87     85    214     1   123.0500530 620.905600
     88     86    239     1   123.0500530 620.905600
     91     94    114     1   111.6100477 551.451200
     91     97     98     1   112.3500484 533.878400
     91     97    101     1   112.3500484 533.878400
     94     91     97     1   111.0400475 552.288000
     97     98    107     1   111.0400475 552.288000
     97    101    104     1   111.0400475 552.288000
     98     97    101     1   112.3500484 533.878400
     98    107    111     1   111.0400475 529.694400
    101    104    110     1   111.0400475 529.694400
    104    110    112     1   123.2000528 564.003200
    104    110    264     1   115.1800491 558.982400
    107    111    113     1   123.2000528 564.003200
    107    111    289     1   115.1800491 558.982400
    110    264    244     1   120.6900519 530.531200
    111    289    269     1   120.6900519 530.531200
    112    110    264     1   123.0500530 620.905600
    113    111    289     1   123.0500530 620.905600
    116    119    139     1   111.6100477 551.451200
    116    122    123     1   112.3500484 533.878400
    116    122    126     1   112.3500484 533.878400
    119    116    122     1   111.0400475 552.288000
    122    123    132     1   111.0400475 552.288000
    122    126    129     1   111.0400475 552.288000
    123    122    126     1   112.3500484 533.878400
    123    132    136     1   111.0400475 529.694400
    126    129    135     1   111.0400475 529.694400
    129    135    137     1   123.2000528 564.003200
    129    135    314     1   115.1800491 558.982400
    132    136    138     1   123.2000528 564.003200
    132    136    339     1   115.1800491 558.982400
    135    314    294     1   120.6900519 530.531200
    136    339    319     1   120.6900519 530.531200
    137    135    314     1   123.0500530 620.905600
    138    136    339     1   123.0500530 620.905600
    141    144    164     1   111.6100477 551.451200
    141    147    148     1   112.3500484 533.878400
    141    147    151     1   112.3500484 533.878400
    144    141    147     1   111.0400475 552.288000
    147    148    157     1   111.0400475 552.288000
    147    151    154     1   111.0400475 552.288000
    148    147    151     1   112.3500484 533.878400
    148    157    161     1   111.0400475 529.694400
    151    154    160     1   111.0400475 529.694400
    154    160    162     1   123.2000528 564.003200
    154    160    364     1   115.1800491 558.982400
    157    161    163     1   123.2000528 564.003200
    157    161    389     1   115.1800491 558.982400
    160    364    344     1   120.6900519 530.531200
    161    389    369     1   120.6900519 530.531200
    162    160    364     1   123.0500530 620.905600
    163    161    389     1   123.0500530 620.905600
    166    169    189     1   111.6100477 551.451200
    166    172    173     1   112.3500484 533.878400
    166    172    176     1   112.3500484 533.878400
    169    166    172     1   111.0400475 552.288000
    172    173    182     1   111.0400475 552.288000
    172    176    179     1   111.0400475 552.288000
    173    172    176     1   112.3500484 533.878400
    173    182    186     1   111.0400475 529.694400
    176    179    185     1   111.0400475 529.694400
    179    185    187     1   123.2000528 564.003200
    179    185    414     1   115.1800491 558.982400
    182    186    188     1   123.2000528 564.003200
    182    186    439     1   115.1800491 558.982400
    185    414    394     1   120.6900519 530.531200
    186    439    419     1   120.6900519 530.531200
    187    185    414     1   123.0500530 620.905600
    188    186    439     1   123.0500530 620.905600
    191    194    214     1   111.6100477 551.451200
    191    197    198     1   112.3500484 533.878400
    191    197    201     1   112.3500484 533.878400
    194    191    197     1   111.0400475 552.288000
    197    198    207     1   111.0400475 552.288000
    197    201    204     1   111.0400475 552.288000
    198    197    201     1   112.3500484 533.878400
    198    207    211     1   111.0400475 529.694400
    201    204    210     1   111.0400475 529.694400
    204    210    212     1   123.2000528 564.003200
    204    210    464     1   115.1800491 558.982400
    207    211    213     1   123.2000528 564.003200
    207    211    489     1   115.1800491 558.982400
    210    464    444     1   120.6900519 530.531200
    211    489    469     1   120.6900519 530.531200
    212    210    464     1   123.0500530 620.905600
    213    211    489     1   123.0500530 620.905600
    216    219    239     1   111.6100477 551.451200
    216    222    223     1   112.3500484 533.878400
    216    222    226     1   112.3500484 533.878400
    219    216    222     1   111.0400475 552.288000
    222    223    232     1   111.0400475 552.288000
    222    226    229     1   111.0400475 552.288000
    223    222    226     1   112.3500484 533.878400
    223    232    236     1   111.0400475 529.694400
    226    229    235     1   111.0400475 529.694400
    229    235    237     1   123.2000528 564.003200
    229    235    514     1   115.1800491 558.982400
    232    236    238     1   123.2000528 564.003200
    232    236    539     1   115.1800491 558.982400
    235    514    494     1   120.6900519 530.531200
    236    539    519     1   120.6900519 530.531200
    237    235    514     1   123.0500530 620.905600
    238    236    539     1   123.0500530 620.905600
    241    244    264     1   111.6100477 551.451200
    241    247    248     1   112.3500484 533.878400
    241    247    251     1   112.3500484 533.878400
    244    241    247     1   111.0400475 552.288000
    247    248    257     1   111.0400475 552.288000
    247    251    254     1   111.0400475 552.288000
    248    247    251     1   112.3500484 533.878400
    248    257    261     1   111.0400475 529.694400
    251    254    260     1   111.0400475 529.694400
    254    260    262     1   123.2000528 564.003200
    254    260    564     1   115.1800491 558.982400
    257    261    263     1   123.2000528 564.003200
    257    261    589     1   115.1800491 558.982400
    260    564    544     1   120.6900519 530.531200
    261    589    569     1   120.6900519 530.531200
    262    260    564     1   123.0500530 620.905600
    263    261    589     1   123.0500530 620.905600
    266    269    289     1   111.6100477 551.451200
    266    272    273     1   112.3500484 533.878400
    266    272    276     1   112.3500484 533.878400
    269    266    272     1   111.0400475 552.288000
    272    273    282     1   111.0400475 552.288000
    272    276    279     1   111.0400475 552.288000
    273    272    276     1   112.3500484 533.878400
    273    282    286     1   111.0400475 529.694400
    276    279    285     1   111.0400475 529.694400
    279    285    287     1   123.2000528 564.003200
    279    285    614     1   115.1800491 558.982400
    282    286    288     1   123.2000528 564.003200
    282    286    639     1   115.1800491 558.982400
    285    614    594     1   120.6900519 530.531200
    286    639    619     1   120.6900519 530.531200
    287    285    614     1   123.0500530 620.905600
    288    286    639     1   123.0500530 620.905600
    291    294    314     1   111.6100477 551.451200
    291    297    298     1   112.3500484 533.878400
    291    297    301     1   112.3500484 533.878400
    294    291    297     1   111.0400475 552.288000
    297    298    307     1   111.0400475 552.288000
    297    301    304     1   111.0400475 552.288000
    298    297    301     1   112.3500484 533.878400
    298    307    311     1   111.0400475 529.694400
    301    304    310     1   111.0400475 529.694400
    304    310    312     1   123.2000528 564.003200
    304    310    664     1   115.1800491 558.982400
    307    311    313     1   123.2000528 564.003200
    307    311    689     1   115.1800491 558.982400
    310    664    644     1   120.6900519 530.531200
    311    689    669     1   120.6900519 530.531200
    312    310    664     1   123.0500530 620.905600
    313    311    689     1   123.0500530 620.905600
    316    319    339     1   111.6100477 551.451200
    316    322    323     1   112.3500484 533.878400
    316    322    326     1   112.3500484 533.878400
    319    316    322     1   111.0400475 552.288000
    322    323    332     1   111.0400475 552.288000
    322    326    329     1   111.0400475 552.288000
    323    322    326     1   112.3500484 533.878400
    323    332    336     1   111.0400475 529.694400
    326    329    335     1   111.0400475 529.694400
    329    335    337     1   123.2000528 564.003200
    329    335    714     1   115.1800491 558.982400
    332    336    338     1   123.2000528 564.003200
    332    336    739     1   115.1800491 558.982400
    335    714    694     1   120.6900519 530.531200
    336    739    719     1   120.6900519 530.531200
    337    335    714     1   123.0500530 620.905600
    338    336    739     1   123.0500530 620.905600
    341    344    364     1   111.6100477 551.451200
    341    347    348     1   112.3500484 533.878400
    341    347    351     1   112.3500484 533.878400
    344    341    347     1   111.0400475 552.288000
    347    348    357     1   111.0400475 552.288000
    347    351    354     1   111.0400475 552.288000
    348    347    351     1   112.3500484 533.878400
    348    357    361     1   111.0400475 529.694400
    351    354    360     1   111.0400475 529.694400
    354    360    362     1   123.2000528 564.003200
    354    360    764     1   115.1800491 558.982400
    357    361    363     1   123.2000528 564.003200
    357    361    789     1   115.1800491 558.982400
    360    764    744     1   120.6900519 530.531200
    361    789    769     1   120.6900519 530.531200
    362    360    764     1   123.0500530 620.905600
    363    361    789     1   123.0500530 620.905600
    366    369    389     1   111.6100477 551.451200
    366    372    373     1   112.3500484 533.878400
    366    372    376     1   112.3500484 533.878400
    369    366    372     1   111.0400475 552.288000
    372    373    382     1   111.0400475 552.288000
    372    376    379     1   111.0400475 552.288000
    373    372    376     1   112.3500484 533.878400
    373    382    386     1   111.0400475 529.694400
    376    379    385     1   111.0400475 529.694400
    379    385    387     1   123.2000528 564.003200
    379    385    814     1   115.1800491 558.982400
    382    386    388     1   123.2000528 564.003200
    382    386    839     1   115.1800491 558.982400
    385    814    794     1   120.6900519 530.531200
    386    839    819     1   120.6900519 530.531200
    387    385    814     1   123.0500530 620.905600
    388    386    839     1   123.0500530 620.905600
    391    394    414     1   111.6100477 551.451200
    391    397    398     1   112.3500484 533.878400
    391    397    401     1   112.3500484 533.878400
    394    391    397     1   111.0400475 552.288000
    397    398    407     1   111.0400475 552.288000
    397    401    404     1   111.0400475 552.288000
    398    397    401     1   112.3500484 533.878400
    398    407    411     1   111.0400475 529.694400
    401    404    410     1   111.0400475 529.694400
    404    410    412     1   123.2000528 564.003200
    404    410    864     1   115.1800491 558.982400
    407    411    413     1   123.2000528 564.003200
    407    411    889     1   115.1800491 558.982400
    410    864    844     1   120.6900519 530.531200
    411    889    869     1   120.6900519 530.531200
    412    410    864     1   123.0500530 620.905600
    413    411    889     1   123.0500530 620.905600
    416    419    439     1   111.6100477 551.451200
    416    422    423     1   112.3500484 533.878400
    416    422    426     1   112.3500484 533.878400
    419    416    422     1   111.0400475 552.288000
    422    423    432     1   111.0400475 552.288000
    422    426    429     1   111.0400475 552.288000
    423    422    426     1   112.3500484 533.878400
    423    432    436     1   111.0400475 529.694400
    426    429    435     1   111.0400475 529.694400
    429    435    437     1   123.2000528 564.003200
    429    435    914     1   115.1800491 558.982400
    432    436    438     1   123.2000528 564.003200
    432    436    939     1   115.1800491 558.982400
    435    914    894     1   120.6900519 530.531200
    436    939    919     1   120.6900519 530.531200
    437    435    914     1   123.0500530 620.905600
    438    436    939     1   123.0500530 620.905600
    441    444    464     1   111.6100477 551.451200
    441    447    448     1   112.3500484 533.878400
    441    447    451     1   112.3500484 533.878400
    444    441    447     1   111.0400475 552.288000
    447    448    457     1   111.0400475 552.288000
    447    451    454     1   111.0400475 552.288000
    448    447    451     1   112.3500484 533.878400
    448    457    461     1   111.0400475 529.694400
    451    454    460     1   111.0400475 529.694400
    454    460    462     1   123.2000528 564.003200
    454    460    964     1   115.1800491 558.982400
    457    461    463     1   123.2000528 564.003200
    457    461    989     1   115.1800491 558.982400
    460    964    944     1   120.6900519 530.531200
    461    989    969     1   120.6900519 530.531200
    462    460    964     1   123.0500530 620.905600
    463    461    989     1   123.0500530 620.905600
    466    469    489     1   111.6100477 551.451200
    466    472    473     1   112.3500484 533.878400
    466    472    476     1   112.3500484 533.878400
    469    466    472     1   111.0400475 552.288000
    472    473    482     1   111.0400475 552.288000
    472    476    479     1   111.0400475 552.288000
    473    472    476     1   112.3500484 533.878400
    473    482    486     1   111.0400475 529.694400
    476    479    485     1   111.0400475 529.694400
    479    485    487     1   123.2000528 564.003200
    479    485   1014     1   115.1800491 558.982400
    482    486    488     1   123.2000528 564.003200
    482    486   1039     1   115.1800491 558.982400
    485   1014    994     1   120.6900519 530.531200
    486   1039   1019     1   120.6900519 530.531200
    487    485   1014     1   123.0500530 620.905600
    488    486   1039     1   123.0500530 620.905600
    491    494    514     1   111.6100477 551.451200
    491    497    498     1   112.3500484 533.878400
    491    497    501     1   112.3500484 533.878400
    494    491    497     1   111.0400475 552.288000
    497    498    507     1   111.0400475 552.288000
    497    501    504     1   111.0400475 552.288000
    498    497    501     1   112.3500484 533.878400
    498    507    511     1   111.0400475 529.694400
    501    504    510     1   111.0400475 529.694400
    504    510    512     1   123.2000528 564.003200
    504    510   1064     1   115.1800491 558.982400
    507    511    513     1   123.2000528 564.003200
    507    511   1089     1   115.1800491 558.982400
    510   1064   1044     1   120.6900519 530.531200
    511   1089   1069     1   120.6900519 530.531200
    512    510   1064     1   123.0500530 620.905600
    513    511   1089     1   123.0500530 620.905600
    516    519    539     1   111.6100477 551.451200
    516    522    523     1   112.3500484 533.878400
    516    522    526     1   112.3500484 533.878400
    519    516    522     1   111.0400475 552.288000
    522    523    532     1   111.0400475 552.288000
    522    526    529     1   111.0400475 552.288000
    523    522    526     1   112.3500484 533.878400
    523    532    536     1   111.0400475 529.694400
    526    529    535     1   111.0400475 529.694400
    529    535    537     1   123.2000528 564.003200
    529    535   1114     1   115.1800491 558.982400
    532    536    538     1   123.2000528 564.003200
    532    536   1139     1   115.1800491 558.982400
    535   1114   1094     1   120.6900519 530.531200
    536   1139   1119     1   120.6900519 530.531200
    537    535   1114     1   123.0500530 620.905600
    538    536   1139     1   123.0500530 620.905600
    541    544    564     1   111.6100477 551.451200
    541    547    548     1   112.3500484 533.878400
    541    547    551     1   112.3500484 533.878400
    544    541    547     1   111.0400475 552.288000
    547    548    557     1   111.0400475 552.288000
    547    551    554     1   111.0400475 552.288000
    548    547    551     1   112.3500484 533.878400
    548    557    561     1   111.0400475 529.694400
    551    554    560     1   111.0400475 529.694400
    554    560    562     1   123.2000528 564.003200
    554    560   1164     1   115.1800491 558.982400
    557    561    563     1   123.2000528 564.003200
    557    561   1189     1   115.1800491 558.982400
    560   1164   1144     1   120.6900519 530.531200
    561   1189   1169     1   120.6900519 530.531200
    562    560   1164     1   123.0500530 620.905600
    563    561   1189     1   123.0500530 620.905600
    566    569    589     1   111.6100477 551.451200
    566    572    573     1   112.3500484 533.878400
    566    572    576     1   112.3500484 533.878400
    569    566    572     1   111.0400475 552.288000
    572    573    582     1   111.0400475 552.288000
    572    576    579     1   111.0400475 552.288000
    573    572    576     1   112.3500484 533.878400
    573    582    586     1   111.0400475 529.694400
    576    579    585     1   111.0400475 529.694400
    579    585    587     1   123.2000528 564.003200
    579    585   1214     1   115.1800491 558.982400
    582    586    588     1   123.2000528 564.003200
    582    586   1239     1   115.1800491 558.982400
    585   1214   1194     1   120.6900519 530.531200
    586   1239   1219     1   120.6900519 530.531200
    587    585   1214     1   123.0500530 620.905600
    588    586   1239     1   123.0500530 620.905600
    591    594    614     1   111.6100477 551.451200
    591    597    598     1   112.3500484 533.878400
    591    597    601     1   112.3500484 533.878400
    594    591    597     1   111.0400475 552.288000
    597    598    607     1   111.0400475 552.288000
    597    601    604     1   111.0400475 552.288000
    598    597    601     1   112.3500484 533.878400
    598    607    611     1   111.0400475 529.694400
    601    604    610     1   111.0400475 529.694400
    604    610    612     1   123.2000528 564.003200
    604    610   1264     1   115.1800491 558.982400
    607    611    613     1   123.2000528 564.003200
    607    611   1289     1   115.1800491 558.982400
    610   1264   1244     1   120.6900519 530.531200
    611   1289   1269     1   120.6900519 530.531200
    612    610   1264     1   123.0500530 620.905600
    613    611   1289     1   123.0500530 620.905600
    616    619    639     1   111.6100477 551.451200
    616    622    623     1   112.3500484 533.878400
    616    622    626     1   112.3500484 533.878400
    619    616    622     1   111.0400475 552.288000
    622    623    632     1   111.0400475 552.288000
    622    626    629     1   111.0400475 552.288000
    623    622    626     1   112.3500484 533.878400
    623    632    636     1   111.0400475 529.694400
    626    629    635     1   111.0400475 529.694400
    629    635    637     1   123.2000528 564.003200
    629    635   1314     1   115.1800491 558.982400
    632    636    638     1   123.2000528 564.003200
    632    636   1339     1   115.1800491 558.982400
    635   1314   1294     1   120.6900519 530.531200
    636   1339   1319     1   120.6900519 530.531200
    637    635   1314     1   123.0500530 620.905600
    638    636   1339     1   123.0500530 620.905600
    641    644    664     1   111.6100477 551.451200
    641    647    648     1   112.3500484 533.878400
    641    647    651     1   112.3500484 533.878400
    644    641    647     1   111.0400475 552.288000
    647    648    657     1   111.0400475 552.288000
    647    651    654     1   111.0400475 552.288000
    648    647    651     1   112.3500484 533.878400
    648    657    661     1   111.0400475 529.694400
    651    654    660     1   111.0400475 529.694400
    654    660    662     1   123.2000528 564.003200
    654    660   1364     1   115.1800491 558.982400
    657    661    663     1   123.2000528 564.003200
    657    661   1389     1   115.1800491 558.982400
    660   1364   1344     1   120.6900519 530.531200
    661   1389   1369     1   120.6900519 530.531200
    662    660   1364     1   123.0500530 620.905600
    663    661   1389     1   123.0500530 620.905600
    666    669    689     1   111.6100477 551.451200
    666    672    673     1   112.3500484 533.878400
    666    672    676     1   112.3500484 533.878400
    669    666    672     1   111.0400475 552.288000
    672    673    682     1   111.0400475 552.288000
    672    676    679     1   111.0400475 552.288000
    673    672    676     1   112.3500484 533.878400
    673    682    686     1   111.0400475 529.694400
    676    679    685     1   111.0400475 529.694400
    679    685    687     1   123.2000528 564.003200
    679    685   1414     1   115.1800491 558.982400
    682    686    688     1   123.2000528 564.003200
    682    686   1439     1   115.1800491 558.982400
    685   1414   1394     1   120.6900519 530.531200
    686   1439   1419     1   120.6900519 530.531200
    687    685   1414     1   123.0500530 620.905600
    688    686   1439     1   123.0500530 620.905600
    691    694    714     1   111.6100477 551.451200
    691    697    698     1   112.3500484 533.878400
    691    697    701     1   112.3500484 533.878400
    694    691    697     1   111.0400475 552.288000
    697    698    707     1   111.0400475 552.288000
    697    701    704     1   111.0400475 552.288000
    698    697    701     1   112.3500484 533.878400
    698    707    711     1   111.0400475 529.694400
    701    704    710     1   111.0400475 529.694400
    704    710    712     1   123.2000528 564.003200
    704    710   1464     1   115.1800491 558.982400
    707    711    713     1   123.2000528 564.003200
    707    711   1489     1   115.1800491 558.982400
    710   1464   1444     1   120.6900519 530.531200
    711   1489   1469     1   120.6900519 530.531200
    712    710   1464     1   123.0500530 620.905600
    713    711   1489     1   123.0500530 620.905600
    716    719    739     1   111.6100477 551.451200
    716    722    723     1   112.3500484 533.878400
    716    722    726     1   112.3500484 533.878400
    719    716    722     1   111.0400475 552.288000
    722    723    732     1   111.0400475 552.288000
    722    726    729     1   111.0400475 552.288000
    723    722    726     1   112.3500484 533.878400
    723    732    736     1   111.0400475 529.694400
    726    729    735     1   111.0400475 529.694400
    729    735    737     1   123.2000528 564.003200
    729    735   1514     1   115.1800491 558.982400
    732    736    738     1   123.2000528 564.003200
    732    736   1539     1   115.1800491 558.982400
    735   1514   1494     1   120.6900519 530.531200
    736   1539   1519     1   120.6900519 530.531200
    737    735   1514     1   123.0500530 620.905600
    738    736   1539     1   123.0500530 620.905600
    741    744    764     1   111.6100477 551.451200
    741    747    748     1   112.3500484 533.878400
    741    747    751     1   112.3500484 533.878400
    744    741    747     1   111.0400475 552.288000
    747    748    757     1   111.0400475 552.288000
    747    751    754     1   111.0400475 552.288000
    748    747    751     1   112.3500484 533.878400
    748    757    761     1   111.0400475 529.694400
    751    754    760     1   111.0400475 529.694400
    754    760    762     1   123.2000528 564.003200
    754    760   1564     1   115.1800491 558.982400
    757    761    763     1   123.2000528 564.003200
    757    761   1589     1   115.1800491 558.982400
    760   1564   1544     1   120.6900519 530.531200
    761   1589   1569     1   120.6900519 530.531200
    762    760   1564     1   123.0500530 620.905600
    763    761   1589     1   123.0500530 620.905600
    766    769    789     1   111.6100477 551.451200
    766    772    773     1   112.3500484 533.878400
    766    772    776     1   112.3500484 533.878400
    769    766    772     1   111.0400475 552.288000
    772    773    782     1   111.0400475 552.288000
    772    776    779     1   111.0400475 552.288000
    773    772    776     1   112.3500484 533.878400
    773    782    786     1   111.0400475 529.694400
    776    779    785     1   111.0400475 529.694400
    779    785    787     1   123.2000528 564.003200
    779    785   1614     1   115.1800491 558.982400
    782    786    788     1   123.2000528 564.003200
    782    786   1639     1   115.1800491 558.982400
    785   1614   1594     1   120.6900519 530.531200
    786   1639   1619     1   120.6900519 530.531200
    787    785   1614     1   123.0500530 620.905600
    788    786   1639     1   123.0500530 620.905600
    791    794    814     1   111.6100477 551.451200
    791    797    798     1   112.3500484 533.878400
    791    797    801     1   112.3500484 533.878400
    794    791    797     1   111.0400475 552.288000
    797    798    807     1   111.0400475 552.288000
    797    801    804     1   111.0400475 552.288000
    798    797    801     1   112.3500484 533.878400
    798    807    811     1   111.0400475 529.694400
    801    804    810     1   111.0400475 529.694400
    804    810    812     1   123.2000528 564.003200
    804    810   1664     1   115.1800491 558.982400
    807    811    813     1   123.2000528 564.003200
    807    811   1689     1   115.1800491 558.982400
    810   1664   1644     1   120.6900519 530.531200
    811   1689   1669     1   120.6900519 530.531200
    812    810   1664     1   123.0500530 620.905600
    813    811   1689     1   123.0500530 620.905600
    816    819    839     1   111.6100477 551.451200
    816    822    823     1   112.3500484 533.878400
    816    822    826     1   112.3500484 533.878400
    819    816    822     1   111.0400475 552.288000
    822    823    832     1   111.0400475 552.288000
    822    826    829     1   111.0400475 552.288000
    823    822    826     1   112.3500484 533.878400
    823    832    836     1   111.0400475 529.694400
    826    829    835     1   111.0400475 529.694400
    829    835    837     1   123.2000528 564.003200
    829    835   1714     1   115.1800491 558.982400
    832    836    838     1   123.2000528 564.003200
    832    836   1739     1   115.1800491 558.982400
    835   1714   1694     1   120.6900519 530.531200
    836   1739   1719     1   120.6900519 530.531200
    837    835   1714     1   123.0500530 620.905600
    838    836   1739     1   123.0500530 620.905600
    841    844    864     1   111.6100477 551.451200
    841    847    848     1   112.3500484 533.878400
    841    847    851     1   112.3500484 533.878400
    844    841    847     1   111.0400475 552.288000
    847    848    857     1   111.0400475 552.288000
    847    851    854     1   111.0400475 552.288000
    848    847    851     1   112.3500484 533.878400
    848    857    861     1   111.0400475 529.694400
    851    854    860     1   111.0400475 529.694400
    854    860    862     1   123.2000528 564.003200
    854    860   1764     1   115.1800491 558.982400
    857    861    863     1   123.2000528 564.003200
    857    861   1789     1   115.1800491 558.982400
    860   1764   1744     1   120.6900519 530.531200
    861   1789   1769     1   120.6900519 530.531200
    862    860   1764     1   123.0500530 620.905600
    863    861   1789     1   123.0500530 620.905600
    866    869    889     1   111.6100477 551.451200
    866    872    873     1   112.3500484 533.878400
    866    872    876     1   112.3500484 533.878400
    869    866    872     1   111.0400475 552.288000
    872    873    882     1   111.0400475 552.288000
    872    876    879     1   111.0400475 552.288000
    873    872    876     1   112.3500484 533.878400
    873    882    886     1   111.0400475 529.694400
    876    879    885     1   111.0400475 529.694400
    879    885    887     1   123.2000528 564.003200
    879    885   1814     1   115.1800491 558.982400
    882    886    888     1   123.2000528 564.003200
    882    886   1839     1   115.1800491 558.982400
    885   1814   1794     1   120.6900519 530.531200
    886   1839   1819     1   120.6900519 530.531200
    887    885   1814     1   123.0500530 620.905600
    888    886   1839     1   123.0500530 620.905600
    891    894    914     1   111.6100477 551.451200
    891    897    898     1   112.3500484 533.878400
    891    897    901     1   112.3500484 533.878400
    894    891    897     1   111.0400475 552.288000
    897    898    907     1   111.0400475 552.288000
    897    901    904     1   111.0400475 552.288000
    898    897    901     1   112.3500484 533.878400
    898    907    911     1   111.0400475 529.694400
    901    904    910     1   111.0400475 529.694400
    904    910    912     1   123.2000528 564.003200
    904    910   1864     1   115.1800491 558.982400
    907    911    913     1   123.2000528 564.003200
    907    911   1889     1   115.1800491 558.982400
    910   1864   1844     1   120.6900519 530.531200
    911   1889   1869     1   120.6900519 530.531200
    912    910   1864     1   123.0500530 620.905600
    913    911   1889     1   123.0500530 620.905600
    916    919    939     1   111.6100477 551.451200
    916    922    923     1   112.3500484 533.878400
    916    922    926     1   112.3500484 533.878400
    919    916    922     1   111.0400475 552.288000
    922    923    932     1   111.0400475 552.288000
    922    926    929     1   111.0400475 552.288000
    923    922    926     1   112.3500484 533.878400
    923    932    936     1   111.0400475 529.694400
    926    929    935     1   111.0400475 529.694400
    929    935    937     1   123.2000528 564.003200
    929    935   1914     1   115.1800491 558.982400
    932    936    938     1   123.2000528 564.003200
    932    936   1939     1   115.1800491 558.982400
    935   1914   1894     1   120.6900519 530.531200
    936   1939   1919     1   120.6900519 530.531200
    937    935   1914     1   123.0500530 620.905600
    938    936   1939     1   123.0500530 620.905600
    941    944    964     1   111.6100477 551.451200
    941    947    948     1   112.3500484 533.878400
    941    947    951     1   112.3500484 533.878400
    944    941    947     1   111.0400475 552.288000
    947    948    957     1   111.0400475 552.288000
    947    951    954     1   111.0400475 552.288000
    948    947    951     1   112.3500484 533.878400
    948    957    961     1   111.0400475 529.694400
    951    954    960     1   111.0400475 529.694400
    954    960    962     1   123.2000528 564.003200
    954    960   1964     1   115.1800491 558.982400
    957    961    963     1   123.2000528 564.003200
    957    961   1989     1   115.1800491 558.982400
    960   1964   1944     1   120.6900519 530.531200
    961   1989   1969     1   120.6900519 530.531200
    962    960   1964     1   123.0500530 620.905600
    963    961   1989     1   123.0500530 620.905600
    966    969    989     1   111.6100477 551.451200
    966    972    973     1   112.3500484 533.878400
    966    972    976     1   112.3500484 533.878400
    969    966    972     1   111.0400475 552.288000
    972    973    982     1   111.0400475 552.288000
    972    976    979     1   111.0400475 552.288000
    973    972    976     1   112.3500484 533.878400
    973    982    986     1   111.0400475 529.694400
    976    979    985     1   111.0400475 529.694400
    979    985    987     1   123.2000528 564.003200
    979    985   2014     1   115.1800491 558.982400
    982    986    988     1   123.2000528 564.003200
    982    986   2039     1   115.1800491 558.982400
    985   2014   1994     1   120.6900519 530.531200
    986   2039   2019     1   120.6900519 530.531200
    987    985   2014     1   123.0500530 620.905600
    988    986   2039     1   123.0500530 620.905600
    991    994   1014     1   111.6100477 551.451200
    991    997    998     1   112.3500484 533.878400
    991    997   1001     1   112.3500484 533.878400
    994    991    997     1   111.0400475 552.288000
    997    998   1007     1   111.0400475 552.288000
    997   1001   1004     1   111.0400475 552.288000
    998    997   1001     1   112.3500484 533.878400
    998   1007   1011     1   111.0400475 529.694400
   1001   1004   1010     1   111.0400475 529.694400
   1004   1010   1012     1   123.2000528 564.003200
   1004   1010   2064     1   115.1800491 558.982400
   1007   1011   1013     1   123.2000528 564.003200
   1007   1011   2089     1   115.1800491 558.982400
   1010   2064   2044     1   120.6900519 530.531200
   1011   2089   2069     1   120.6900519 530.531200
   1012   1010   2064     1   123.0500530 620.905600
   1013   1011   2089     1   123.0500530 620.905600
   1016   1019   1039     1   111.6100477 551.451200
   1016   1022   1023     1   112.3500484 533.878400
   1016   1022   1026     1   112.3500484 533.878400
   1019   1016   1022     1   111.0400475 552.288000
   1022   1023   1032     1   111.0400475 552.288000
   1022   1026   1029     1   111.0400475 552.288000
   1023   1022   1026     1   112.3500484 533.878400
   1023   1032   1036     1   111.0400475 529.694400
   1026   1029   1035     1   111.0400475 529.694400
   1029   1035   1037     1   123.2000528 564.003200
   1029   1035   2114     1   115.1800491 558.982400
   1032   1036   1038     1   123.2000528 564.003200
   1032   1036   2139     1   115.1800491 558.982400
   1035   2114   2094     1   120.6900519 530.531200
   1036   2139   2119     1   120.6900519 530.531200
   1037   1035   2114     1   123.0500530 620.905600
   1038   1036   2139     1   123.0500530 620.905600
   1041   1044   1064     1   111.6100477 551.451200
   1041   1047   1048     1   112.3500484 533.878400
   1041   1047   1051     1   112.3500484 533.878400
   1044   1041   1047     1   111.0400475 552.288000
   1047   1048   1057     1   111.0400475 552.288000
   1047   1051   1054     1   111.0400475 552.288000
   1048   1047   1051     1   112.3500484 533.878400
   1048   1057   1061     1   111.0400475 529.694400
   1051   1054   1060     1   111.0400475 529.694400
   1054   1060   1062     1   123.2000528 564.003200
   1054   1060   2164     1   115.1800491 558.982400
   1057   1061   1063     1   123.2000528 564.003200
   1057   1061   2189     1   115.1800491 558.982400
   1060   2164   2144     1   120.6900519 530.531200
   1061   2189   2169     1   120.6900519 530.531200
   1062   1060   2164     1   123.0500530 620.905600
   1063   1061   2189     1   123.0500530 620.905600
   1066   1069   1089     1   111.6100477 551.451200
   1066   1072   1073     1   112.3500484 533.878400
   1066   1072   1076     1   112.3500484 533.878400
   1069   1066   1072     1   111.0400475 552.288000
   1072   1073   1082     1   111.0400475 552.288000
   1072   1076   1079     1   111.0400475 552.288000
   1073   1072   1076     1   112.3500484 533.878400
   1073   1082   1086     1   111.0400475 529.694400
   1076   1079   1085     1   111.0400475 529.694400
   1079   1085   1087     1   123.2000528 564.003200
   1079   1085   2214     1   115.1800491 558.982400
   1082   1086   1088     1   123.2000528 564.003200
   1082   1086   2239     1   115.1800491 558.982400
   1085   2214   2194     1   120.6900519 530.531200
   1086   2239   2219     1   120.6900519 530.531200
   1087   1085   2214     1   123.0500530 620.905600
   1088   1086   2239     1   123.0500530 620.905600
   1091   1094   1114     1   111.6100477 551.451200
   1091   1097   1098     1   112.3500484 533.878400
   1091   1097   1101     1   112.3500484 533.878400
   1094   1091   1097     1   111.0400475 552.288000
   1097   1098   1107     1   111.0400475 552.288000
   1097   1101   1104     1   111.0400475 552.288000
   1098   1097   1101     1   112.3500484 533.878400
   1098   1107   1111     1   111.0400475 529.694400
   1101   1104   1110     1   111.0400475 529.694400
   1104   1110   1112     1   123.2000528 564.003200
   1104   1110   2264     1   115.1800491 558.982400
   1107   1111   1113     1   123.2000528 564.003200
   1107   1111   2289     1   115.1800491 558.982400
   1110   2264   2244     1   120.6900519 530.531200
   1111   2289   2269     1   120.6900519 530.531200
   1112   1110   2264     1   123.0500530 620.905600
   1113   1111   2289     1   123.0500530 620.905600
   1116   1119   1139     1   111.6100477 551.451200
   1116   1122   1123     1   112.3500484 533.878400
   1116   1122   1126     1   112.3500484 533.878400
   1119   1116   1122     1   111.0400475 552.288000
   1122   1123   1132     1   111.0400475 552.288000
   1122   1126   1129     1   111.0400475 552.288000
   1123   1122   1126     1   112.3500484 533.878400
   1123   1132   1136     1   111.0400475 529.694400
   1126   1129   1135     1   111.0400475 529.694400
   1129   1135   1137     1   123.2000528 564.003200
   1129   1135   2314     1   115.1800491 558.982400
   1132   1136   1138     1   123.2000528 564.003200
   1132   1136   2339     1   115.1800491 558.982400
   1135   2314   2294     1   120.6900519 530.531200
   1136   2339   2319     1   120.6900519 530.531200
   1137   1135   2314     1   123.0500530 620.905600
   1138   1136   2339     1   123.0500530 620.905600
   1141   1144   1164     1   111.6100477 551.451200
   1141   1147   1148     1   112.3500484 533.878400
   1141   1147   1151     1   112.3500484 533.878400
   1144   1141   1147     1   111.0400475 552.288000
   1147   1148   1157     1   111.0400475 552.288000
   1147   1151   1154     1   111.0400475 552.288000
   1148   1147   1151     1   112.3500484 533.878400
   1148   1157   1161     1   111.0400475 529.694400
   1151   1154   1160     1   111.0400475 529.694400
   1154   1160   1162     1   123.2000528 564.003200
   1154   1160   2364     1   115.1800491 558.982400
   1157   1161   1163     1   123.2000528 564.003200
   1157   1161   2389     1   115.1800491 558.982400
   1160   2364   2344     1   120.6900519 530.531200
   1161   2389   2369     1   120.6900519 530.531200
   1162   1160   2364     1   123.0500530 620.905600
   1163   1161   2389     1   123.0500530 620.905600
   1166   1169   1189     1   111.6100477 551.451200
   1166   1172   1173     1   112.3500484 533.878400
   1166   1172   1176     1   112.3500484 533.878400
   1169   1166   1172     1   111.0400475 552.288000
   1172   1173   1182     1   111.0400475 552.288000
   1172   1176   1179     1   111.0400475 552.288000
   1173   1172   1176     1   112.3500484 533.878400
   1173   1182   1186     1   111.0400475 529.694400
   1176   1179   1185     1   111.0400475 529.694400
   1179   1185   1187     1   123.2000528 564.003200
   1179   1185   2414     1   115.1800491 558.982400
   1182   1186   1188     1   123.2000528 564.003200
   1182   1186   2439     1   115.1800491 558.982400
   1185   2414   2394     1   120.6900519 530.531200
   1186   2439   2419     1   120.6900519 530.531200
   1187   1185   2414     1   123.0500530 620.905600
   1188   1186   2439     1   123.0500530 620.905600
   1191   1194   1214     1   111.6100477 551.451200
   1191   1197   1198     1   112.3500484 533.878400
   1191   1197   1201     1   112.3500484 533.878400
   1194   1191   1197     1   111.0400475 552.288000
   1197   1198   1207     1   111.0400475 552.288000
   1197   1201   1204     1   111.0400475 552.288000
   1198   1197   1201     1   112.3500484 533.878400
   1198   1207   1211     1   111.0400475 529.694400
   1201   1204   1210     1   111.0400475 529.694400
   1204   1210   1212     1   123.2000528 564.003200
   1204   1210   2464     1   115.1800491 558.982400
   1207   1211   1213     1   123.2000528 564.003200
   1207   1211   2489     1   115.1800491 558.982400
   1210   2464   2444     1   120.6900519 530.531200
   1211   2489   2469     1   120.6900519 530.531200
   1212   1210   2464     1   123.0500530 620.905600
   1213   1211   2489     1   123.0500530 620.905600
   1216   1219   1239     1   111.6100477 551.451200
   1216   1222   1223     1   112.3500484 533.878400
   1216   1222   1226     1   112.3500484 533.878400
   1219   1216   1222     1   111.0400475 552.288000
   1222   1223   1232     1   111.0400475 552.288000
   1222   1226   1229     1   111.0400475 552.288000
   1223   1222   1226     1   112.3500484 533.878400
   1223   1232   1236     1   111.0400475 529.694400
   1226   1229   1235     1   111.0400475 529.694400
   1229   1235   1237     1   123.2000528 564.003200
   1229   1235   2514     1   115.1800491 558.982400
   1232   1236   1238     1   123.2000528 564.003200
   1232   1236   2539     1   115.1800491 558.982400
   1235   2514   2494     1   120.6900519 530.531200
   1236   2539   2519     1   120.6900519 530.531200
   1237   1235   2514     1   123.0500530 620.905600
   1238   1236   2539     1   123.0500530 620.905600
   1241   1244   1264     1   111.6100477 551.451200
   1241   1247   1248     1   112.3500484 533.878400
   1241   1247   1251     1   112.3500484 533.878400
   1244   1241   1247     1   111.0400475 552.288000
   1247   1248   1257     1   111.0400475 552.288000
   1247   1251   1254     1   111.0400475 552.288000
   1248   1247   1251     1   112.3500484 533.878400
   1248   1257   1261     1   111.0400475 529.694400
   1251   1254   1260     1   111.0400475 529.694400
   1254   1260   1262     1   123.2000528 564.003200
   1254   1260   2564     1   115.1800491 558.982400
   1257   1261   1263     1   123.2000528 564.003200
   1257   1261   2589     1   115.1800491 558.982400
   1260   2564   2544     1   120.6900519 530.531200
   1261   2589   2569     1   120.6900519 530.531200
   1262   1260   2564     1   123.0500530 620.905600
   1263   1261   2589     1   123.0500530 620.905600
   1266   1269   1289     1   111.6100477 551.451200
   1266   1272   1273     1   112.3500484 533.878400
   1266   1272   1276     1   112.3500484 533.878400
   1269   1266   1272     1   111.0400475 552.288000
   1272   1273   1282     1   111.0400475 552.288000
   1272   1276   1279     1   111.0400475 552.288000
   1273   1272   1276     1   112.3500484 533.878400
   1273   1282   1286     1   111.0400475 529.694400
   1276   1279   1285     1   111.0400475 529.694400
   1279   1285   1287     1   123.2000528 564.003200
   1279   1285   2614     1   115.1800491 558.982400
   1282   1286   1288     1   123.2000528 564.003200
   1282   1286   2639     1   115.1800491 558.982400
   1285   2614   2594     1   120.6900519 530.531200
   1286   2639   2619     1   120.6900519 530.531200
   1287   1285   2614     1   123.0500530 620.905600
   1288   1286   2639     1   123.0500530 620.905600
   1291   1294   1314     1   111.6100477 551.451200
   1291   1297   1298     1   112.3500484 533.878400
   1291   1297   1301     1   112.3500484 533.878400
   1294   1291   1297     1   111.0400475 552.288000
   1297   1298   1307     1   111.0400475 552.288000
   1297   1301   1304     1   111.0400475 552.288000
   1298   1297   1301     1   112.3500484 533.878400
   1298   1307   1311     1   111.0400475 529.694400
   1301   1304   1310     1   111.0400475 529.694400
   1304   1310   1312     1   123.2000528 564.003200
   1304   1310   2664     1   115.1800491 558.982400
   1307   1311   1313     1   123.2000528 564.003200
   1307   1311   2689     1   115.1800491 558.982400
   1310   2664   2644     1   120.6900519 530.531200
   1311   2689   2669     1   120.6900519 530.531200
   1312   1310   2664     1   123.0500530 620.905600
   1313   1311   2689     1   123.0500530 620.905600
   1316   1319   1339     1   111.6100477 551.451200
   1316   1322   1323     1   112.3500484 533.878400
   1316   1322   1326     1   112.3500484 533.878400
   1319   1316   1322     1   111.0400475 552.288000
   1322   1323   1332     1   111.0400475 552.288000
   1322   1326   1329     1   111.0400475 552.288000
   1323   1322   1326     1   112.3500484 533.878400
   1323   1332   1336     1   111.0400475 529.694400
   1326   1329   1335     1   111.0400475 529.694400
   1329   1335   1337     1   123.2000528 564.003200
   1329   1335   2714     1   115.1800491 558.982400
   1332   1336   1338     1   123.2000528 564.003200
   1332   1336   2739     1   115.1800491 558.982400
   1335   2714   2694     1   120.6900519 530.531200
   1336   2739   2719     1   120.6900519 530.531200
   1337   1335   2714     1   123.0500530 620.905600
   1338   1336   2739     1   123.0500530 620.905600
   1341   1344   1364     1   111.6100477 551.451200
   1341   1347   1348     1   112.3500484 533.878400
   1341   1347   1351     1   112.3500484 533.878400
   1344   1341   1347     1   111.0400475 552.288000
   1347   1348   1357     1   111.0400475 552.288000
   1347   1351   1354     1   111.0400475 552.288000
   1348   1347   1351     1   112.3500484 533.878400
   1348   1357   1361     1   111.0400475 529.694400
   1351   1354   1360     1   111.0400475 529.694400
   1354   1360   1362     1   123.2000528 564.003200
   1354   1360   2764     1   115.1800491 558.982400
   1357   1361   1363     1   123.2000528 564.003200
   1357   1361   2789     1   115.1800491 558.982400
   1360   2764   2744     1   120.6900519 530.531200
   1361   2789   2769     1   120.6900519 530.531200
   1362   1360   2764     1   123.0500530 620.905600
   1363   1361   2789     1   123.0500530 620.905600
   1366   1369   1389     1   111.6100477 551.451200
   1366   1372   1373     1   112.3500484 533.878400
   1366   1372   1376     1   112.3500484 533.878400
   1369   1366   1372     1   111.0400475 552.288000
   1372   1373   1382     1   111.0400475 552.288000
   1372   1376   1379     1   111.0400475 552.288000
   1373   1372   1376     1   112.3500484 533.878400
   1373   1382   1386     1   111.0400475 529.694400
   1376   1379   1385     1   111.0400475 529.694400
   1379   1385   1387     1   123.2000528 564.003200
   1379   1385   2814     1   115.1800491 558.982400
   1382   1386   1388     1   123.2000528 564.003200
   1382   1386   2839     1   115.1800491 558.982400
   1385   2814   2794     1   120.6900519 530.531200
   1386   2839   2819     1   120.6900519 530.531200
   1387   1385   2814     1   123.0500530 620.905600
   1388   1386   2839     1   123.0500530 620.905600
   1391   1394   1414     1   111.6100477 551.451200
   1391   1397   1398     1   112.3500484 533.878400
   1391   1397   1401     1   112.3500484 533.878400
   1394   1391   1397     1   111.0400475 552.288000
   1397   1398   1407     1   111.0400475 552.288000
   1397   1401   1404     1   111.0400475 552.288000
   1398   1397   1401     1   112.3500484 533.878400
   1398   1407   1411     1   111.0400475 529.694400
   1401   1404   1410     1   111.0400475 529.694400
   1404   1410   1412     1   123.2000528 564.003200
   1404   1410   2864     1   115.1800491 558.982400
   1407   1411   1413     1   123.2000528 564.003200
   1407   1411   2889     1   115.1800491 558.982400
   1410   2864   2844     1   120.6900519 530.531200
   1411   2889   2869     1   120.6900519 530.531200
   1412   1410   2864     1   123.0500530 620.905600
   1413   1411   2889     1   123.0500530 620.905600
   1416   1419   1439     1   111.6100477 551.451200
   1416   1422   1423     1   112.3500484 533.878400
   1416   1422   1426     1   112.3500484 533.878400
   1419   1416   1422     1   111.0400475 552.288000
   1422   1423   1432     1   111.0400475 552.288000
   1422   1426   1429     1   111.0400475 552.288000
   1423   1422   1426     1   112.3500484 533.878400
   1423   1432   1436     1   111.0400475 529.694400
   1426   1429   1435     1   111.0400475 529.694400
   1429   1435   1437     1   123.2000528 564.003200
   1429   1435   2914     1   115.1800491 558.982400
   1432   1436   1438     1   123.2000528 564.003200
   1432   1436   2939     1   115.1800491 558.982400
   1435   2914   2894     1   120.6900519 530.531200
   1436   2939   2919     1   120.6900519 530.531200
   1437   1435   2914     1   123.0500530 620.905600
   1438   1436   2939     1   123.0500530 620.905600
   1441   1444   1464     1   111.6100477 551.451200
   1441   1447   1448     1   112.3500484 533.878400
   1441   1447   1451     1   112.3500484 533.878400
   1444   1441   1447     1   111.0400475 552.288000
   1447   1448   1457     1   111.0400475 552.288000
   1447   1451   1454     1   111.0400475 552.288000
   1448   1447   1451     1   112.3500484 533.878400
   1448   1457   1461     1   111.0400475 529.694400
   1451   1454   1460     1   111.0400475 529.694400
   1454   1460   1462     1   123.2000528 564.003200
   1454   1460   2964     1   115.1800491 558.982400
   1457   1461   1463     1   123.2000528 564.003200
   1457   1461   2989     1   115.1800491 558.982400
   1460   2964   2944     1   120.6900519 530.531200
   1461   2989   2969     1   120.6900519 530.531200
   1462   1460   2964     1   123.0500530 620.905600
   1463   1461   2989     1   123.0500530 620.905600
   1466   1469   1489     1   111.6100477 551.451200
   1466   1472   1473     1   112.3500484 533.878400
   1466   1472   1476     1   112.3500484 533.878400
   1469   1466   1472     1   111.0400475 552.288000
   1472   1473   1482     1   111.0400475 552.288000
   1472   1476   1479     1   111.0400475 552.288000
   1473   1472   1476     1   112.3500484 533.878400
   1473   1482   1486     1   111.0400475 529.694400
   1476   1479   1485     1   111.0400475 529.694400
   1479   1485   1487     1   123.2000528 564.003200
   1479   1485   3014     1   115.1800491 558.982400
   1482   1486   1488     1   123.2000528 564.003200
   1482   1486   3039     1   115.1800491 558.982400
   1485   3014   2994     1   120.6900519 530.531200
   1486   3039   3019     1   120.6900519 530.531200
   1487   1485   3014     1   123.0500530 620.905600
   1488   1486   3039     1   123.0500530 620.905600
   1491   1494   1514     1   111.6100477 551.451200
   1491   1497   1498     1   112.3500484 533.878400
   1491   1497   1501     1   112.3500484 533.878400
   1494   1491   1497     1   111.0400475 552.288000
   1497   1498   1507     1   111.0400475 552.288000
   1497   1501   1504     1   111.0400475 552.288000
   1498   1497   1501     1   112.3500484 533.878400
   1498   1507   1511     1   111.0400475 529.694400
   1501   1504   1510     1   111.0400475 529.694400
   1504   1510   1512     1   123.2000528 564.003200
   1504   1510   3064     1   115.1800491 558.982400
   1507   1511   1513     1   123.2000528 564.003200
   1507   1511   3089     1   115.1800491 558.982400
   1510   3064   3044     1   120.6900519 530.531200
   1511   3089   3069     1   120.6900519 530.531200
   1512   1510   3064     1   123.0500530 620.905600
   1513   1511   3089     1   123.0500530 620.905600
   1516   1519   1539     1   111.6100477 551.451200
   1516   1522   1523     1   112.3500484 533.878400
   1516   1522   1526     1   112.3500484 533.878400
   1519   1516   1522     1   111.0400475 552.288000
   1522   1523   1532     1   111.0400475 552.288000
   1522   1526   1529     1   111.0400475 552.288000
   1523   1522   1526     1   112.3500484 533.878400
   1523   1532   1536     1   111.0400475 529.694400
   1526   1529   1535     1   111.0400475 529.694400
   1529   1535   1537     1   123.2000528 564.003200
   1529   1535   3114     1   115.1800491 558.982400
   1532   1536   1538     1   123.2000528 564.003200
   1532   1536   3139     1   115.1800491 558.982400
   1535   3114   3094     1   120.6900519 530.531200
   1536   3139   3119     1   120.6900519 530.531200
   1537   1535   3114     1   123.0500530 620.905600
   1538   1536   3139     1   123.0500530 620.905600
   1541   1544   1564     1   111.6100477 551.451200
   1541   1547   1548     1   112.3500484 533.878400
   1541   1547   1551     1   112.3500484 533.878400
   1544   1541   1547     1   111.0400475 552.288000
   1547   1548   1557     1   111.0400475 552.288000
   1547   1551   1554     1   111.0400475 552.288000
   1548   1547   1551     1   112.3500484 533.878400
   1548   1557   1561     1   111.0400475 529.694400
   1551   1554   1560     1   111.0400475 529.694400
   1554   1560   3141     1   115.1800491 558.982400
   1554   1560   1562     1   123.2000528 564.003200
   1557   1561   1563     1   123.2000528 564.003200
   1557   1561   3153     1   115.1800491 558.982400
   1560   3141   3143     1   120.6900519 530.531200
   1561   3153   3155     1   120.6900519 530.531200
   1562   1560   3141     1   123.0500530 620.905600
   1563   1561   3153     1   123.0500530 620.905600
   1566   1569   1589     1   111.6100477 551.451200
   1566   1572   1573     1   112.3500484 533.878400
   1566   1572   1576     1   112.3500484 533.878400
   1569   1566   1572     1   111.0400475 552.288000
   1572   1573   1582     1   111.0400475 552.288000
   1572   1576   1579     1   111.0400475 552.288000
   1573   1572   1576     1   112.3500484 533.878400
   1573   1582   1586     1   111.0400475 529.694400
   1576   1579   1585     1   111.0400475 529.694400
   1579   1585   3165     1   115.1800491 558.982400
   1579   1585   1587     1   123.2000528 564.003200
   1582   1586   1588     1   123.2000528 564.003200
   1582   1586   3177     1   115.1800491 558.982400
   1585   3165   3167     1   120.6900519 530.531200
   1586   3177   3179     1   120.6900519 530.531200
   1587   1585   3165     1   123.0500530 620.905600
   1588   1586   3177     1   123.0500530 620.905600
   1591   1594   1614     1   111.6100477 551.451200
   1591   1597   1598     1   112.3500484 533.878400
   1591   1597   1601     1   112.3500484 533.878400
   1594   1591   1597     1   111.0400475 552.288000
   1597   1598   1607     1   111.0400475 552.288000
   1597   1601   1604     1   111.0400475 552.288000
   1598   1597   1601     1   112.3500484 533.878400
   1598   1607   1611     1   111.0400475 529.694400
   1601   1604   1610     1   111.0400475 529.694400
   1604   1610   3189     1   115.1800491 558.982400
   1604   1610   1612     1   123.2000528 564.003200
   1607   1611   1613     1   123.2000528 564.003200
   1607   1611   3201     1   115.1800491 558.982400
   1610   3189   3191     1   120.6900519 530.531200
   1611   3201   3203     1   120.6900519 530.531200
   1612   1610   3189     1   123.0500530 620.905600
   1613   1611   3201     1   123.0500530 620.905600
   1616   1619   1639     1   111.6100477 551.451200
   1616   1622   1623     1   112.3500484 533.878400
   1616   1622   1626     1   112.3500484 533.878400
   1619   1616   1622     1   111.0400475 552.288000
   1622   1623   1632     1   111.0400475 552.288000
   1622   1626   1629     1   111.0400475 552.288000
   1623   1622   1626     1   112.3500484 533.878400
   1623   1632   1636     1   111.0400475 529.694400
   1626   1629   1635     1   111.0400475 529.694400
   1629   1635   3213     1   115.1800491 558.982400
   1629   1635   1637     1   123.2000528 564.003200
   1632   1636   1638     1   123.2000528 564.003200
   1632   1636   3225     1   115.1800491 558.982400
   1635   3213   3215     1   120.6900519 530.531200
   1636   3225   3227     1   120.6900519 530.531200
   1637   1635   3213     1   123.0500530 620.905600
   1638   1636   3225     1   123.0500530 620.905600
   1641   1644   1664     1   111.6100477 551.451200
   1641   1647   1648     1   112.3500484 533.878400
   1641   1647   1651     1   112.3500484 533.878400
   1644   1641   1647     1   111.0400475 552.288000
   1647   1648   1657     1   111.0400475 552.288000
   1647   1651   1654     1   111.0400475 552.288000
   1648   1647   1651     1   112.3500484 533.878400
   1648   1657   1661     1   111.0400475 529.694400
   1651   1654   1660     1   111.0400475 529.694400
   1654   1660   3237     1   115.1800491 558.982400
   1654   1660   1662     1   123.2000528 564.003200
   1657   1661   1663     1   123.2000528 564.003200
   1657   1661   3249     1   115.1800491 558.982400
   1660   3237   3239     1   120.6900519 530.531200
   1661   3249   3251     1   120.6900519 530.531200
   1662   1660   3237     1   123.0500530 620.905600
   1663   1661   3249     1   123.0500530 620.905600
   1666   1669   1689     1   111.6100477 551.451200
   1666   1672   1673     1   112.3500484 533.878400
   1666   1672   1676     1   112.3500484 533.878400
   1669   1666   1672     1   111.0400475 552.288000
   1672   1673   1682     1   111.0400475 552.288000
   1672   1676   1679     1   111.0400475 552.288000
   1673   1672   1676     1   112.3500484 533.878400
   1673   1682   1686     1   111.0400475 529.694400
   1676   1679   1685     1   111.0400475 529.694400
   1679   1685   3261     1   115.1800491 558.982400
   1679   1685   1687     1   123.2000528 564.003200
   1682   1686   1688     1   123.2000528 564.003200
   1682   1686   3273     1   115.1800491 558.982400
   1685   3261   3263     1   120.6900519 530.531200
   1686   3273   3275     1   120.6900519 530.531200
   1687   1685   3261     1   123.0500530 620.905600
   1688   1686   3273     1   123.0500530 620.905600
   1691   1694   1714     1   111.6100477 551.451200
   1691   1697   1698     1   112.3500484 533.878400
   1691   1697   1701     1   112.3500484 533.878400
   1694   1691   1697     1   111.0400475 552.288000
   1697   1698   1707     1   111.0400475 552.288000
   1697   1701   1704     1   111.0400475 552.288000
   1698   1697   1701     1   112.3500484 533.878400
   1698   1707   1711     1   111.0400475 529.694400
   1701   1704   1710     1   111.0400475 529.694400
   1704   1710   3285     1   115.1800491 558.982400
   1704   1710   1712     1   123.2000528 564.003200
   1707   1711   1713     1   123.2000528 564.003200
   1707   1711   3297     1   115.1800491 558.982400
   1710   3285   3287     1   120.6900519 530.531200
   1711   3297   3299     1   120.6900519 530.531200
   1712   1710   3285     1   123.0500530 620.905600
   1713   1711   3297     1   123.0500530 620.905600
   1716   1719   1739     1   111.6100477 551.451200
   1716   1722   1723     1   112.3500484 533.878400
   1716   1722   1726     1   112.3500484 533.878400
   1719   1716   1722     1   111.0400475 552.288000
   1722   1723   1732     1   111.0400475 552.288000
   1722   1726   1729     1   111.0400475 552.288000
   1723   1722   1726     1   112.3500484 533.878400
   1723   1732   1736     1   111.0400475 529.694400
   1726   1729   1735     1   111.0400475 529.694400
   1729   1735   3309     1   115.1800491 558.982400
   1729   1735   1737     1   123.2000528 564.003200
   1732   1736   1738     1   123.2000528 564.003200
   1732   1736   3321     1   115.1800491 558.982400
   1735   3309   3311     1   120.6900519 530.531200
   1736   3321   3323     1   120.6900519 530.531200
   1737   1735   3309     1   123.0500530 620.905600
   1738   1736   3321     1   123.0500530 620.905600
   1741   1744   1764     1   111.6100477 551.451200
   1741   1747   1748     1   112.3500484 533.878400
   1741   1747   1751     1   112.3500484 533.878400
   1744   1741   1747     1   111.0400475 552.288000
   1747   1748   1757     1   111.0400475 552.288000
   1747   1751   1754     1   111.0400475 552.288000
   1748   1747   1751     1   112.3500484 533.878400
   1748   1757   1761     1   111.0400475 529.694400
   1751   1754   1760     1   111.0400475 529.694400
   1754   1760   3333     1   115.1800491 558.982400
   1754   1760   1762     1   123.2000528 564.003200
   1757   1761   1763     1   123.2000528 564.003200
   1757   1761   3345     1   115.1800491 558.982400
   1760   3333   3335     1   120.6900519 530.531200
   1761   3345   3347     1   120.6900519 530.531200
   1762   1760   3333     1   123.0500530 620.905600
   1763   1761   3345     1   123.0500530 620.905600
   1766   1769   1789     1   111.6100477 551.451200
   1766   1772   1773     1   112.3500484 533.878400
   1766   1772   1776     1   112.3500484 533.878400
   1769   1766   1772     1   111.0400475 552.288000
   1772   1773   1782     1   111.0400475 552.288000
   1772   1776   1779     1   111.0400475 552.288000
   1773   1772   1776     1   112.3500484 533.878400
   1773   1782   1786     1   111.0400475 529.694400
   1776   1779   1785     1   111.0400475 529.694400
   1779   1785   3357     1   115.1800491 558.982400
   1779   1785   1787     1   123.2000528 564.003200
   1782   1786   1788     1   123.2000528 564.003200
   1782   1786   3369     1   115.1800491 558.982400
   1785   3357   3359     1   120.6900519 530.531200
   1786   3369   3371     1   120.6900519 530.531200
   1787   1785   3357     1   123.0500530 620.905600
   1788   1786   3369     1   123.0500530 620.905600
   1791   1794   1814     1   111.6100477 551.451200
   1791   1797   1798     1   112.3500484 533.878400
   1791   1797   1801     1   112.3500484 533.878400
   1794   1791   1797     1   111.0400475 552.288000
   1797   1798   1807     1   111.0400475 552.288000
   1797   1801   1804     1   111.0400475 552.288000
   1798   1797   1801     1   112.3500484 533.878400
   1798   1807   1811     1   111.0400475 529.694400
   1801   1804   1810     1   111.0400475 529.694400
   1804   1810   3381     1   115.1800491 558.982400
   1804   1810   1812     1   123.2000528 564.003200
   1807   1811   1813     1   123.2000528 564.003200
   1807   1811   3393     1   115.1800491 558.982400
   1810   3381   3383     1   120.6900519 530.531200
   1811   3393   3395     1   120.6900519 530.531200
   1812   1810   3381     1   123.0500530 620.905600
   1813   1811   3393     1   123.0500530 620.905600
   1816   1819   1839     1   111.6100477 551.451200
   1816   1822   1823     1   112.3500484 533.878400
   1816   1822   1826     1   112.3500484 533.878400
   1819   1816   1822     1   111.0400475 552.288000
   1822   1823   1832     1   111.0400475 552.288000
   1822   1826   1829     1   111.0400475 552.288000
   1823   1822   1826     1   112.3500484 533.878400
   1823   1832   1836     1   111.0400475 529.694400
   1826   1829   1835     1   111.0400475 529.694400
   1829   1835   3405     1   115.1800491 558.982400
   1829   1835   1837     1   123.2000528 564.003200
   1832   1836   1838     1   123.2000528 564.003200
   1832   1836   3417     1   115.1800491 558.982400
   1835   3405   3407     1   120.6900519 530.531200
   1836   3417   3419     1   120.6900519 530.531200
   1837   1835   3405     1   123.0500530 620.905600
   1838   1836   3417     1   123.0500530 620.905600
   1841   1844   1864     1   111.6100477 551.451200
   1841   1847   1848     1   112.3500484 533.878400
   1841   1847   1851     1   112.3500484 533.878400
   1844   1841   1847     1   111.0400475 552.288000
   1847   1848   1857     1   111.0400475 552.288000
   1847   1851   1854     1   111.0400475 552.288000
   1848   1847   1851     1   112.3500484 533.878400
   1848   1857   1861     1   111.0400475 529.694400
   1851   1854   1860     1   111.0400475 529.694400
   1854   1860   3429     1   115.1800491 558.982400
   1854   1860   1862     1   123.2000528 564.003200
   1857   1861   1863     1   123.2000528 564.003200
   1857   1861   3441     1   115.1800491 558.982400
   1860   3429   3431     1   120.6900519 530.531200
   1861   3441   3443     1   120.6900519 530.531200
   1862   1860   3429     1   123.0500530 620.905600
   1863   1861   3441     1   123.0500530 620.905600
   1866   1869   1889     1   111.6100477 551.451200
   1866   1872   1873     1   112.3500484 533.878400
   1866   1872   1876     1   112.3500484 533.878400
   1869   1866   1872     1   111.0400475 552.288000
   1872   1873   1882     1   111.0400475 552.288000
   1872   1876   1879     1   111.0400475 552.288000
   1873   1872   1876     1   112.3500484 533.878400
   1873   1882   1886     1   111.0400475 529.694400
   1876   1879   1885     1   111.0400475 529.694400
   1879   1885   3453     1   115.1800491 558.982400
   1879   1885   1887     1   123.2000528 564.003200
   1882   1886   1888     1   123.2000528 564.003200
   1882   1886   3465     1   115.1800491 558.982400
   1885   3453   3455     1   120.6900519 530.531200
   1886   3465   3467     1   120.6900519 530.531200
   1887   1885   3453     1   123.0500530 620.905600
   1888   1886   3465     1   123.0500530 620.905600
   1891   1894   1914     1   111.6100477 551.451200
   1891   1897   1898     1   112.3500484 533.878400
   1891   1897   1901     1   112.3500484 533.878400
   1894   1891   1897     1   111.0400475 552.288000
   1897   1898   1907     1   111.0400475 552.288000
   1897   1901   1904     1   111.0400475 552.288000
   1898   1897   1901     1   112.3500484 533.878400
   1898   1907   1911     1   111.0400475 529.694400
   1901   1904   1910     1   111.0400475 529.694400
   1904   1910   3477     1   115.1800491 558.982400
   1904   1910   1912     1   123.2000528 564.003200
   1907   1911   1913     1   123.2000528 564.003200
   1907   1911   3489     1   115.1800491 558.982400
   1910   3477   3479     1   120.6900519 530.531200
   1911   3489   3491     1   120.6900519 530.531200
   1912   1910   3477     1   123.0500530 620.905600
   1913   1911   3489     1   123.0500530 620.905600
   1916   1919   1939     1   111.6100477 551.451200
   1916   1922   1923     1   112.3500484 533.878400
   1916   1922   1926     1   112.3500484 533.878400
   1919   1916   1922     1   111.0400475 552.288000
   1922   1923   1932     1   111.0400475 552.288000
   1922   1926   1929     1   111.0400475 552.288000
   1923   1922   1926     1   112.3500484 533.878400
   1923   1932   1936     1   111.0400475 529.694400
   1926   1929   1935     1   111.0400475 529.694400
   1929   1935   3501     1   115.1800491 558.982400
   1929   1935   1937     1   123.2000528 564.003200
   1932   1936   1938     1   123.2000528 564.003200
   1932   1936   3513     1   115.1800491 558.982400
   1935   3501   3503     1   120.6900519 530.531200
   1936   3513   3515     1   120.6900519 530.531200
   1937   1935   3501     1   123.0500530 620.905600
   1938   1936   3513     1   123.0500530 620.905600
   1941   1944   1964     1   111.6100477 551.451200
   1941   1947   1948     1   112.3500484 533.878400
   1941   1947   1951     1   112.3500484 533.878400
   1944   1941   1947     1   111.0400475 552.288000
   1947   1948   1957     1   111.0400475 552.288000
   1947   1951   1954     1   111.0400475 552.288000
   1948   1947   1951     1   112.3500484 533.878400
   1948   1957   1961     1   111.0400475 529.694400
   1951   1954   1960     1   111.0400475 529.694400
   1954   1960   3525     1   115.1800491 558.982400
   1954   1960   1962     1   123.2000528 564.003200
   1957   1961   1963     1   123.2000528 564.003200
   1957   1961   3537     1   115.1800491 558.982400
   1960   3525   3527     1   120.6900519 530.531200
   1961   3537   3539     1   120.6900519 530.531200
   1962   1960   3525     1   123.0500530 620.905600
   1963   1961   3537     1   123.0500530 620.905600
   1966   1969   1989     1   111.6100477 551.451200
   1966   1972   1973     1   112.3500484 533.878400
   1966   1972   1976     1   112.3500484 533.878400
   1969   1966   1972     1   111.0400475 552.288000
   1972   1973   1982     1   111.0400475 552.288000
   1972   1976   1979     1   111.0400475 552.288000
   1973   1972   1976     1   112.3500484 533.878400
   1973   1982   1986     1   111.0400475 529.694400
   1976   1979   1985     1   111.0400475 529.694400
   1979   1985   3549     1   115.1800491 558.982400
   1979   1985   1987     1   123.2000528 564.003200
   1982   1986   1988     1   123.2000528 564.003200
   1982   1986   3561     1   115.1800491 558.982400
   1985   3549   3551     1   120.6900519 530.531200
   1986   3561   3563     1   120.6900519 530.531200
   1987   1985   3549     1   123.0500530 620.905600
   1988   1986   3561     1   123.0500530 620.905600
   1991   1994   2014     1   111.6100477 551.451200
   1991   1997   1998     1   112.3500484 533.878400
   1991   1997   2001     1   112.3500484 533.878400
   1994   1991   1997     1   111.0400475 552.288000
   1997   1998   2007     1   111.0400475 552.288000
   1997   2001   2004     1   111.0400475 552.288000
   1998   1997   2001     1   112.3500484 533.878400
   1998   2007   2011     1   111.0400475 529.694400
   2001   2004   2010     1   111.0400475 529.694400
   2004   2010   3573     1   115.1800491 558.982400
   2004   2010   2012     1   123.2000528 564.003200
   2007   2011   2013     1   123.2000528 564.003200
   2007   2011   3585     1   115.1800491 558.982400
   2010   3573   3575     1   120.6900519 530.531200
   2011   3585   3587     1   120.6900519 530.531200
   2012   2010   3573     1   123.0500530 620.905600
   2013   2011   3585     1   123.0500530 620.905600
   2016   2019   2039     1   111.6100477 551.451200
   2016   2022   2023     1   112.3500484 533.878400
   2016   2022   2026     1   112.3500484 533.878400
   2019   2016   2022     1   111.0400475 552.288000
   2022   2023   2032     1   111.0400475 552.288000
   2022   2026   2029     1   111.0400475 552.288000
   2023   2022   2026     1   112.3500484 533.878400
   2023   2032   2036     1   111.0400475 529.694400
   2026   2029   2035     1   111.0400475 529.694400
   2029   2035   3597     1   115.1800491 558.982400
   2029   2035   2037     1   123.2000528 564.003200
   2032   2036   2038     1   123.2000528 564.003200
   2032   2036   3609     1   115.1800491 558.982400
   2035   3597   3599     1   120.6900519 530.531200
   2036   3609   3611     1   120.6900519 530.531200
   2037   2035   3597     1   123.0500530 620.905600
   2038   2036   3609     1   123.0500530 620.905600
   2041   2044   2064     1   111.6100477 551.451200
   2041   2047   2048     1   112.3500484 533.878400
   2041   2047   2051     1   112.3500484 533.878400
   2044   2041   2047     1   111.0400475 552.288000
   2047   2048   2057     1   111.0400475 552.288000
   2047   2051   2054     1   111.0400475 552.288000
   2048   2047   2051     1   112.3500484 533.878400
   2048   2057   2061     1   111.0400475 529.694400
   2051   2054   2060     1   111.0400475 529.694400
   2054   2060   3621     1   115.1800491 558.982400
   2054   2060   2062     1   123.2000528 564.003200
   2057   2061   2063     1   123.2000528 564.003200
   2057   2061   3633     1   115.1800491 558.982400
   2060   3621   3623     1   120.6900519 530.531200
   2061   3633   3635     1   120.6900519 530.531200
   2062   2060   3621     1   123.0500530 620.905600
   2063   2061   3633     1   123.0500530 620.905600
   2066   2069   2089     1   111.6100477 551.451200
   2066   2072   2073     1   112.3500484 533.878400
   2066   2072   2076     1   112.3500484 533.878400
   2069   2066   2072     1   111.0400475 552.288000
   2072   2073   2082     1   111.0400475 552.288000
   2072   2076   2079     1   111.0400475 552.288000
   2073   2072   2076     1   112.3500484 533.878400
   2073   2082   2086     1   111.0400475 529.694400
   2076   2079   2085     1   111.0400475 529.694400
   2079   2085   3645     1   115.1800491 558.982400
   2079   2085   2087     1   123.2000528 564.003200
   2082   2086   2088     1   123.2000528 564.003200
   2082   2086   3657     1   115.1800491 558.982400
   2085   3645   3647     1   120.6900519 530.531200
   2086   3657   3659     1   120.6900519 530.531200
   2087   2085   3645     1   123.0500530 620.905600
   2088   2086   3657     1   123.0500530 620.905600
   2091   2094   2114     1   111.6100477 551.451200
   2091   2097   2098     1   112.3500484 533.878400
   2091   2097   2101     1   112.3500484 533.878400
   2094   2091   2097     1   111.0400475 552.288000
   2097   2098   2107     1   111.0400475 552.288000
   2097   2101   2104     1   111.0400475 552.288000
   2098   2097   2101     1   112.3500484 533.878400
   2098   2107   2111     1   111.0400475 529.694400
   2101   2104   2110     1   111.0400475 529.694400
   2104   2110   3669     1   115.1800491 558.982400
   2104   2110   2112     1   123.2000528 564.003200
   2107   2111   2113     1   123.2000528 564.003200
   2107   2111   3681     1   115.1800491 558.982400
   2110   3669   3671     1   120.6900519 530.531200
   2111   3681   3683     1   120.6900519 530.531200
   2112   2110   3669     1   123.0500530 620.905600
   2113   2111   3681     1   123.0500530 620.905600
   2116   2119   2139     1   111.6100477 551.451200
   2116   2122   2123     1   112.3500484 533.878400
   2116   2122   2126     1   112.3500484 533.878400
   2119   2116   2122     1   111.0400475 552.288000
   2122   2123   2132     1   111.0400475 552.288000
   2122   2126   2129     1   111.0400475 552.288000
   2123   2122   2126     1   112.3500484 533.878400
   2123   2132   2136     1   111.0400475 529.694400
   2126   2129   2135     1   111.0400475 529.694400
   2129   2135   3693     1   115.1800491 558.982400
   2129   2135   2137     1   123.2000528 564.003200
   2132   2136   2138     1   123.2000528 564.003200
   2132   2136   3705     1   115.1800491 558.982400
   2135   3693   3695     1   120.6900519 530.531200
   2136   3705   3707     1   120.6900519 530.531200
   2137   2135   3693     1   123.0500530 620.905600
   2138   2136   3705     1   123.0500530 620.905600
   2141   2144   2164     1   111.6100477 551.451200
   2141   2147   2148     1   112.3500484 533.878400
   2141   2147   2151     1   112.3500484 533.878400
   2144   2141   2147     1   111.0400475 552.288000
   2147   2148   2157     1   111.0400475 552.288000
   2147   2151   2154     1   111.0400475 552.288000
   2148   2147   2151     1   112.3500484 533.878400
   2148   2157   2161     1   111.0400475 529.694400
   2151   2154   2160     1   111.0400475 529.694400
   2154   2160   3717     1   115.1800491 558.982400
   2154   2160   2162     1   123.2000528 564.003200
   2157   2161   2163     1   123.2000528 564.003200
   2157   2161   3729     1   115.1800491 558.982400
   2160   3717   3719     1   120.6900519 530.531200
   2161   3729   3731     1   120.6900519 530.531200
   2162   2160   3717     1   123.0500530 620.905600
   2163   2161   3729     1   123.0500530 620.905600
   2166   2169   2189     1   111.6100477 551.451200
   2166   2172   2173     1   112.3500484 533.878400
   2166   2172   2176     1   112.3500484 533.878400
   2169   2166   2172     1   111.0400475 552.288000
   2172   2173   2182     1   111.0400475 552.288000
   2172   2176   2179     1   111.0400475 552.288000
   2173   2172   2176     1   112.3500484 533.878400
   2173   2182   2186     1   111.0400475 529.694400
   2176   2179   2185     1   111.0400475 529.694400
   2179   2185   3741     1   115.1800491 558.982400
   2179   2185   2187     1   123.2000528 564.003200
   2182   2186   2188     1   123.2000528 564.003200
   2182   2186   3753     1   115.1800491 558.982400
   2185   3741   3743     1   120.6900519 530.531200
   2186   3753   3755     1   120.6900519 530.531200
   2187   2185   3741     1   123.0500530 620.905600
   2188   2186   3753     1   123.0500530 620.905600
   2191   2194   2214     1   111.6100477 551.451200
   2191   2197   2198     1   112.3500484 533.878400
   2191   2197   2201     1   112.3500484 533.878400
   2194   2191   2197     1   111.0400475 552.288000
   2197   2198   2207     1   111.0400475 552.288000
   2197   2201   2204     1   111.0400475 552.288000
   2198   2197   2201     1   112.3500484 533.878400
   2198   2207   2211     1   111.0400475 529.694400
   2201   2204   2210     1   111.0400475 529.694400
   2204   2210   3765     1   115.1800491 558.982400
   2204   2210   2212     1   123.2000528 564.003200
   2207   2211   2213     1   123.2000528 564.003200
   2207   2211   3777     1   115.1800491 558.982400
   2210   3765   3767     1   120.6900519 530.531200
   2211   3777   3779     1   120.6900519 530.531200
   2212   2210   3765     1   123.0500530 620.905600
   2213   2211   3777     1   123.0500530 620.905600
   2216   2219   2239     1   111.6100477 551.451200
   2216   2222   2223     1   112.3500484 533.878400
   2216   2222   2226     1   112.3500484 533.878400
   2219   2216   2222     1   111.0400475 552.288000
   2222   2223   2232     1   111.0400475 552.288000
   2222   2226   2229     1   111.0400475 552.288000
   2223   2222   2226     1   112.3500484 533.878400
   2223   2232   2236     1   111.0400475 529.694400
   2226   2229   2235     1   111.0400475 529.694400
   2229   2235   3789     1   115.1800491 558.982400
   2229   2235   2237     1   123.2000528 564.003200
   2232   2236   2238     1   123.2000528 564.003200
   2232   2236   3801     1   115.1800491 558.982400
   2235   3789   3791     1   120.6900519 530.531200
   2236   3801   3803     1   120.6900519 530.531200
   2237   2235   3789     1   123.0500530 620.905600
   2238   2236   3801     1   123.0500530 620.905600
   2241   2244   2264     1   111.6100477 551.451200
   2241   2247   2248     1   112.3500484 533.878400
   2241   2247   2251     1   112.3500484 533.878400
   2244   2241   2247     1   111.0400475 552.288000
   2247   2248   2257     1   111.0400475 552.288000
   2247   2251   2254     1   111.0400475 552.288000
   2248   2247   2251     1   112.3500484 533.878400
   2248   2257   2261     1   111.0400475 529.694400
   2251   2254   2260     1   111.0400475 529.694400
   2254   2260   3813     1   115.1800491 558.982400
   2254   2260   2262     1   123.2000528 564.003200
   2257   2261   2263     1   123.2000528 564.003200
   2257   2261   3825     1   115.1800491 558.982400
   2260   3813   3815     1   120.6900519 530.531200
   2261   3825   3827     1   120.6900519 530.531200
   2262   2260   3813     1   123.0500530 620.905600
   2263   2261   3825     1   123.0500530 620.905600
   2266   2269   2289     1   111.6100477 551.451200
   2266   2272   2273     1   112.3500484 533.878400
   2266   2272   2276     1   112.3500484 533.878400
   2269   2266   2272     1   111.0400475 552.288000
   2272   2273   2282     1   111.0400475 552.288000
   2272   2276   2279     1   111.0400475 552.288000
   2273   2272   2276     1   112.3500484 533.878400
   2273   2282   2286     1   111.0400475 529.694400
   2276   2279   2285     1   111.0400475 529.694400
   2279   2285   3837     1   115.1800491 558.982400
   2279   2285   2287     1   123.2000528 564.003200
   2282   2286   2288     1   123.2000528 564.003200
   2282   2286   3849     1   115.1800491 558.982400
   2285   3837   3839     1   120.6900519 530.531200
   2286   3849   3851     1   120.6900519 530.531200
   2287   2285   3837     1   123.0500530 620.905600
   2288   2286   3849     1   123.0500530 620.905600
   2291   2294   2314     1   111.6100477 551.451200
   2291   2297   2298     1   112.3500484 533.878400
   2291   2297   2301     1   112.3500484 533.878400
   2294   2291   2297     1   111.0400475 552.288000
   2297   2298   2307     1   111.0400475 552.288000
   2297   2301   2304     1   111.0400475 552.288000
   2298   2297   2301     1   112.3500484 533.878400
   2298   2307   2311     1   111.0400475 529.694400
   2301   2304   2310     1   111.0400475 529.694400
   2304   2310   3861     1   115.1800491 558.982400
   2304   2310   2312     1   123.2000528 564.003200
   2307   2311   2313     1   123.2000528 564.003200
   2307   2311   3873     1   115.1800491 558.982400
   2310   3861   3863     1   120.6900519 530.531200
   2311   3873   3875     1   120.6900519 530.531200
   2312   2310   3861     1   123.0500530 620.905600
   2313   2311   3873     1   123.0500530 620.905600
   2316   2319   2339     1   111.6100477 551.451200
   2316   2322   2323     1   112.3500484 533.878400
   2316   2322   2326     1   112.3500484 533.878400
   2319   2316   2322     1   111.0400475 552.288000
   2322   2323   2332     1   111.0400475 552.288000
   2322   2326   2329     1   111.0400475 552.288000
   2323   2322   2326     1   112.3500484 533.878400
   2323   2332   2336     1   111.0400475 529.694400
   2326   2329   2335     1   111.0400475 529.694400
   2329   2335   3885     1   115.1800491 558.982400
   2329   2335   2337     1   123.2000528 564.003200
   2332   2336   2338     1   123.2000528 564.003200
   2332   2336   3897     1   115.1800491 558.982400
   2335   3885   3887     1   120.6900519 530.531200
   2336   3897   3899     1   120.6900519 530.531200
   2337   2335   3885     1   123.0500530 620.905600
   2338   2336   3897     1   123.0500530 620.905600
   2341   2344   2364     1   111.6100477 551.451200
   2341   2347   2348     1   112.3500484 533.878400
   2341   2347   2351     1   112.3500484 533.878400
   2344   2341   2347     1   111.0400475 552.288000
   2347   2348   2357     1   111.0400475 552.288000
   2347   2351   2354     1   111.0400475 552.288000
   2348   2347   2351     1   112.3500484 533.878400
   2348   2357   2361     1   111.0400475 529.694400
   2351   2354   2360     1   111.0400475 529.694400
   2354   2360   3909     1   115.1800491 558.982400
   2354   2360   2362     1   123.2000528 564.003200
   2357   2361   2363     1   123.2000528 564.003200
   2357   2361   3921     1   115.1800491 558.982400
   2360   3909   3911     1   120.6900519 530.531200
   2361   3921   3923     1   120.6900519 530.531200
   2362   2360   3909     1   123.0500530 620.905600
   2363   2361   3921     1   123.0500530 620.905600
   2366   2369   2389     1   111.6100477 551.451200
   2366   2372   2373     1   112.3500484 533.878400
   2366   2372   2376     1   112.3500484 533.878400
   2369   2366   2372     1   111.0400475 552.288000
   2372   2373   2382     1   111.0400475 552.288000
   2372   2376   2379     1   111.0400475 552.288000
   2373   2372   2376     1   112.3500484 533.878400
   2373   2382   2386     1   111.0400475 529.694400
   2376   2379   2385     1   111.0400475 529.694400
   2379   2385   3933     1   115.1800491 558.982400
   2379   2385   2387     1   123.2000528 564.003200
   2382   2386   2388     1   123.2000528 564.003200
   2382   2386   3945     1   115.1800491 558.982400
   2385   3933   3935     1   120.6900519 530.531200
   2386   3945   3947     1   120.6900519 530.531200
   2387   2385   3933     1   123.0500530 620.905600
   2388   2386   3945     1   123.0500530 620.905600
   2391   2394   2414     1   111.6100477 551.451200
   2391   2397   2398     1   112.3500484 533.878400
   2391   2397   2401     1   112.3500484 533.878400
   2394   2391   2397     1   111.0400475 552.288000
   2397   2398   2407     1   111.0400475 552.288000
   2397   2401   2404     1   111.0400475 552.288000
   2398   2397   2401     1   112.3500484 533.878400
   2398   2407   2411     1   111.0400475 529.694400
   2401   2404   2410     1   111.0400475 529.694400
   2404   2410   3957     1   115.1800491 558.982400
   2404   2410   2412     1   123.2000528 564.003200
   2407   2411   2413     1   123.2000528 564.003200
   2407   2411   3969     1   115.1800491 558.982400
   2410   3957   3959     1   120.6900519 530.531200
   2411   3969   3971     1   120.6900519 530.531200
   2412   2410   3957     1   123.0500530 620.905600
   2413   2411   3969     1   123.0500530 620.905600
   2416   2419   2439     1   111.6100477 551.451200
   2416   2422   2423     1   112.3500484 533.878400
   2416   2422   2426     1   112.3500484 533.878400
   2419   2416   2422     1   111.0400475 552.288000
   2422   2423   2432     1   111.0400475 552.288000
   2422   2426   2429     1   111.0400475 552.288000
   2423   2422   2426     1   112.3500484 533.878400
   2423   2432   2436     1   111.0400475 529.694400
   2426   2429   2435     1   111.0400475 529.694400
   2429   2435   3981     1   115.1800491 558.982400
   2429   2435   2437     1   123.2000528 564.003200
   2432   2436   2438     1   123.2000528 564.003200
   2432   2436   3993     1   115.1800491 558.982400
   2435   3981   3983     1   120.6900519 530.531200
   2436   3993   3995     1   120.6900519 530.531200
   2437   2435   3981     1   123.0500530 620.905600
   2438   2436   3993     1   123.0500530 620.905600
   2441   2444   2464     1   111.6100477 551.451200
   2441   2447   2448     1   112.3500484 533.878400
   2441   2447   2451     1   112.3500484 533.878400
   2444   2441   2447     1   111.0400475 552.288000
   2447   2448   2457     1   111.0400475 552.288000
   2447   2451   2454     1   111.0400475 552.288000
   2448   2447   2451     1   112.3500484 533.878400
   2448   2457   2461     1   111.0400475 529.694400
   2451   2454   2460     1   111.0400475 529.694400
   2454   2460   4005     1   115.1800491 558.982400
   2454   2460   2462     1   123.2000528 564.003200
   2457   2461   2463     1   123.2000528 564.003200
   2457   2461   4017     1   115.1800491 558.982400
   2460   4005   4007     1   120.6900519 530.531200
   2461   4017   4019     1   120.6900519 530.531200
   2462   2460   4005     1   123.0500530 620.905600
   2463   2461   4017     1   123.0500530 620.905600
   2466   2469   2489     1   111.6100477 551.451200
   2466   2472   2473     1   112.3500484 533.878400
   2466   2472   2476     1   112.3500484 533.878400
   2469   2466   2472     1   111.0400475 552.288000
   2472   2473   2482     1   111.0400475 552.288000
   2472   2476   2479     1   111.0400475 552.288000
   2473   2472   2476     1   112.3500484 533.878400
   2473   2482   2486     1   111.0400475 529.694400
   2476   2479   2485     1   111.0400475 529.694400
   2479   2485   4029     1   115.1800491 558.982400
   2479   2485   2487     1   123.2000528 564.003200
   2482   2486   2488     1   123.2000528 564.003200
   2482   2486   4041     1   115.1800491 558.982400
   2485   4029   4031     1   120.6900519 530.531200
   2486   4041   4043     1   120.6900519 530.531200
   2487   2485   4029     1   123.0500530 620.905600
   2488   2486   4041     1   123.0500530 620.905600
   2491   2494   2514     1   111.6100477 551.451200
   2491   2497   2498     1   112.3500484 533.878400
   2491   2497   2501     1   112.3500484 533.878400
   2494   2491   2497     1   111.0400475 552.288000
   2497   2498   2507     1   111.0400475 552.288000
   2497   2501   2504     1   111.0400475 552.288000
   2498   2497   2501     1   112.3500484 533.878400
   2498   2507   2511     1   111.0400475 529.694400
   2501   2504   2510     1   111.0400475 529.694400
   2504   2510   4053     1   115.1800491 558.982400
   2504   2510   2512     1   123.2000528 564.003200
   2507   2511   2513     1   123.2000528 564.003200
   2507   2511   4065     1   115.1800491 558.982400
   2510   4053   4055     1   120.6900519 530.531200
   2511   4065   4067     1   120.6900519 530.531200
   2512   2510   4053     1   123.0500530 620.905600
   2513   2511   4065     1   123.0500530 620.905600
   2516   2519   2539     1   111.6100477 551.451200
   2516   2522   2523     1   112.3500484 533.878400
   2516   2522   2526     1   112.3500484 533.878400
   2519   2516   2522     1   111.0400475 552.288000
   2522   2523   2532     1   111.0400475 552.288000
   2522   2526   2529     1   111.0400475 552.288000
   2523   2522   2526     1   112.3500484 533.878400
   2523   2532   2536     1   111.0400475 529.694400
   2526   2529   2535     1   111.0400475 529.694400
   2529   2535   4077     1   115.1800491 558.982400
   2529   2535   2537     1   123.2000528 564.003200
   2532   2536   2538     1   123.2000528 564.003200
   2532   2536   4089     1   115.1800491 558.982400
   2535   4077   4079     1   120.6900519 530.531200
   2536   4089   4091     1   120.6900519 530.531200
   2537   2535   4077     1   123.0500530 620.905600
   2538   2536   4089     1   123.0500530 620.905600
   2541   2544   2564     1   111.6100477 551.451200
   2541   2547   2548     1   112.3500484 533.878400
   2541   2547   2551     1   112.3500484 533.878400
   2544   2541   2547     1   111.0400475 552.288000
   2547   2548   2557     1   111.0400475 552.288000
   2547   2551   2554     1   111.0400475 552.288000
   2548   2547   2551     1   112.3500484 533.878400
   2548   2557   2561     1   111.0400475 529.694400
   2551   2554   2560     1   111.0400475 529.694400
   2554   2560   4101     1   115.1800491 558.982400
   2554   2560   2562     1   123.2000528 564.003200
   2557   2561   2563     1   123.2000528 564.003200
   2557   2561   4113     1   115.1800491 558.982400
   2560   4101   4103     1   120.6900519 530.531200
   2561   4113   4115     1   120.6900519 530.531200
   2562   2560   4101     1   123.0500530 620.905600
   2563   2561   4113     1   123.0500530 620.905600
   2566   2569   2589     1   111.6100477 551.451200
   2566   2572   2573     1   112.3500484 533.878400
   2566   2572   2576     1   112.3500484 533.878400
   2569   2566   2572     1   111.0400475 552.288000
   2572   2573   2582     1   111.0400475 552.288000
   2572   2576   2579     1   111.0400475 552.288000
   2573   2572   2576     1   112.3500484 533.878400
   2573   2582   2586     1   111.0400475 529.694400
   2576   2579   2585     1   111.0400475 529.694400
   2579   2585   4125     1   115.1800491 558.982400
   2579   2585   2587     1   123.2000528 564.003200
   2582   2586   2588     1   123.2000528 564.003200
   2582   2586   4137     1   115.1800491 558.982400
   2585   4125   4127     1   120.6900519 530.531200
   2586   4137   4139     1   120.6900519 530.531200
   2587   2585   4125     1   123.0500530 620.905600
   2588   2586   4137     1   123.0500530 620.905600
   2591   2594   2614     1   111.6100477 551.451200
   2591   2597   2598     1   112.3500484 533.878400
   2591   2597   2601     1   112.3500484 533.878400
   2594   2591   2597     1   111.0400475 552.288000
   2597   2598   2607     1   111.0400475 552.288000
   2597   2601   2604     1   111.0400475 552.288000
   2598   2597   2601     1   112.3500484 533.878400
   2598   2607   2611     1   111.0400475 529.694400
   2601   2604   2610     1   111.0400475 529.694400
   2604   2610   4149     1   115.1800491 558.982400
   2604   2610   2612     1   123.2000528 564.003200
   2607   2611   2613     1   123.2000528 564.003200
   2607   2611   4161     1   115.1800491 558.982400
   2610   4149   4151     1   120.6900519 530.531200
   2611   4161   4163     1   120.6900519 530.531200
   2612   2610   4149     1   123.0500530 620.905600
   2613   2611   4161     1   123.0500530 620.905600
   2616   2619   2639     1   111.6100477 551.451200
   2616   2622   2623     1   112.3500484 533.878400
   2616   2622   2626     1   112.3500484 533.878400
   2619   2616   2622     1   111.0400475 552.288000
   2622   2623   2632     1   111.0400475 552.288000
   2622   2626   2629     1   111.0400475 552.288000
   2623   2622   2626     1   112.3500484 533.878400
   2623   2632   2636     1   111.0400475 529.694400
   2626   2629   2635     1   111.0400475 529.694400
   2629   2635   4173     1   115.1800491 558.982400
   2629   2635   2637     1   123.2000528 564.003200
   2632   2636   2638     1   123.2000528 564.003200
   2632   2636   4185     1   115.1800491 558.982400
   2635   4173   4175     1   120.6900519 530.531200
   2636   4185   4187     1   120.6900519 530.531200
   2637   2635   4173     1   123.0500530 620.905600
   2638   2636   4185     1   123.0500530 620.905600
   2641   2644   2664     1   111.6100477 551.451200
   2641   2647   2648     1   112.3500484 533.878400
   2641   2647   2651     1   112.3500484 533.878400
   2644   2641   2647     1   111.0400475 552.288000
   2647   2648   2657     1   111.0400475 552.288000
   2647   2651   2654     1   111.0400475 552.288000
   2648   2647   2651     1   112.3500484 533.878400
   2648   2657   2661     1   111.0400475 529.694400
   2651   2654   2660     1   111.0400475 529.694400
   2654   2660   4197     1   115.1800491 558.982400
   2654   2660   2662     1   123.2000528 564.003200
   2657   2661   2663     1   123.2000528 564.003200
   2657   2661   4209     1   115.1800491 558.982400
   2660   4197   4199     1   120.6900519 530.531200
   2661   4209   4211     1   120.6900519 530.531200
   2662   2660   4197     1   123.0500530 620.905600
   2663   2661   4209     1   123.0500530 620.905600
   2666   2669   2689     1   111.6100477 551.451200
   2666   2672   2673     1   112.3500484 533.878400
   2666   2672   2676     1   112.3500484 533.878400
   2669   2666   2672     1   111.0400475 552.288000
   2672   2673   2682     1   111.0400475 552.288000
   2672   2676   2679     1   111.0400475 552.288000
   2673   2672   2676     1   112.3500484 533.878400
   2673   2682   2686     1   111.0400475 529.694400
   2676   2679   2685     1   111.0400475 529.694400
   2679   2685   4221     1   115.1800491 558.982400
   2679   2685   2687     1   123.2000528 564.003200
   2682   2686   2688     1   123.2000528 564.003200
   2682   2686   4233     1   115.1800491 558.982400
   2685   4221   4223     1   120.6900519 530.531200
   2686   4233   4235     1   120.6900519 530.531200
   2687   2685   4221     1   123.0500530 620.905600
   2688   2686   4233     1   123.0500530 620.905600
   2691   2694   2714     1   111.6100477 551.451200
   2691   2697   2698     1   112.3500484 533.878400
   2691   2697   2701     1   112.3500484 533.878400
   2694   2691   2697     1   111.0400475 552.288000
   2697   2698   2707     1   111.0400475 552.288000
   2697   2701   2704     1   111.0400475 552.288000
   2698   2697   2701     1   112.3500484 533.878400
   2698   2707   2711     1   111.0400475 529.694400
   2701   2704   2710     1   111.0400475 529.694400
   2704   2710   4245     1   115.1800491 558.982400
   2704   2710   2712     1   123.2000528 564.003200
   2707   2711   2713     1   123.2000528 564.003200
   2707   2711   4257     1   115.1800491 558.982400
   2710   4245   4247     1   120.6900519 530.531200
   2711   4257   4259     1   120.6900519 530.531200
   2712   2710   4245     1   123.0500530 620.905600
   2713   2711   4257     1   123.0500530 620.905600
   2716   2719   2739     1   111.6100477 551.451200
   2716   2722   2723     1   112.3500484 533.878400
   2716   2722   2726     1   112.3500484 533.878400
   2719   2716   2722     1   111.0400475 552.288000
   2722   2723   2732     1   111.0400475 552.288000
   2722   2726   2729     1   111.0400475 552.288000
   2723   2722   2726     1   112.3500484 533.878400
   2723   2732   2736     1   111.0400475 529.694400
   2726   2729   2735     1   111.0400475 529.694400
   2729   2735   4269     1   115.1800491 558.982400
   2729   2735   2737     1   123.2000528 564.003200
   2732   2736   2738     1   123.2000528 564.003200
   2732   2736   4281     1   115.1800491 558.982400
   2735   4269   4271     1   120.6900519 530.531200
   2736   4281   4283     1   120.6900519 530.531200
   2737   2735   4269     1   123.0500530 620.905600
   2738   2736   4281     1   123.0500530 620.905600
   2741   2744   2764     1   111.6100477 551.451200
   2741   2747   2748     1   112.3500484 533.878400
   2741   2747   2751     1   112.3500484 533.878400
   2744   2741   2747     1   111.0400475 552.288000
   2747   2748   2757     1   111.0400475 552.288000
   2747   2751   2754     1   111.0400475 552.288000
   2748   2747   2751     1   112.3500484 533.878400
   2748   2757   2761     1   111.0400475 529.694400
   2751   2754   2760     1   111.0400475 529.694400
   2754   2760   4293     1   115.1800491 558.982400
   2754   2760   2762     1   123.2000528 564.003200
   2757   2761   2763     1   123.2000528 564.003200
   2757   2761   4305     1   115.1800491 558.982400
   2760   4293   4295     1   120.6900519 530.531200
   2761   4305   4307     1   120.6900519 530.531200
   2762   2760   4293     1   123.0500530 620.905600
   2763   2761   4305     1   123.0500530 620.905600
   2766   2769   2789     1   111.6100477 551.451200
   2766   2772   2773     1   112.3500484 533.878400
   2766   2772   2776     1   112.3500484 533.878400
   2769   2766   2772     1   111.0400475 552.288000
   2772   2773   2782     1   111.0400475 552.288000
   2772   2776   2779     1   111.0400475 552.288000
   2773   2772   2776     1   112.3500484 533.878400
   2773   2782   2786     1   111.0400475 529.694400
   2776   2779   2785     1   111.0400475 529.694400
   2779   2785   4317     1   115.1800491 558.982400
   2779   2785   2787     1   123.2000528 564.003200
   2782   2786   2788     1   123.2000528 564.003200
   2782   2786   4329     1   115.1800491 558.982400
   2785   4317   4319     1   120.6900519 530.531200
   2786   4329   4331     1   120.6900519 530.531200
   2787   2785   4317     1   123.0500530 620.905600
   2788   2786   4329     1   123.0500530 620.905600
   2791   2794   2814     1   111.6100477 551.451200
   2791   2797   2798     1   112.3500484 533.878400
   2791   2797   2801     1   112.3500484 533.878400
   2794   2791   2797     1   111.0400475 552.288000
   2797   2798   2807     1   111.0400475 552.288000
   2797   2801   2804     1   111.0400475 552.288000
   2798   2797   2801     1   112.3500484 533.878400
   2798   2807   2811     1   111.0400475 529.694400
   2801   2804   2810     1   111.0400475 529.694400
   2804   2810   4341     1   115.1800491 558.982400
   2804   2810   2812     1   123.2000528 564.003200
   2807   2811   2813     1   123.2000528 564.003200
   2807   2811   4353     1   115.1800491 558.982400
   2810   4341   4343     1   120.6900519 530.531200
   2811   4353   4355     1   120.6900519 530.531200
   2812   2810   4341     1   123.0500530 620.905600
   2813   2811   4353     1   123.0500530 620.905600
   2816   2819   2839     1   111.6100477 551.451200
   2816   2822   2823     1   112.3500484 533.878400
   2816   2822   2826     1   112.3500484 533.878400
   2819   2816   2822     1   111.0400475 552.288000
   2822   2823   2832     1   111.0400475 552.288000
   2822   2826   2829     1   111.0400475 552.288000
   2823   2822   2826     1   112.3500484 533.878400
   2823   2832   2836     1   111.0400475 529.694400
   2826   2829   2835     1   111.0400475 529.694400
   2829   2835   4365     1   115.1800491 558.982400
   2829   2835   2837     1   123.2000528 564.003200
   2832   2836   2838     1   123.2000528 564.003200
   2832   2836   4377     1   115.1800491 558.982400
   2835   4365   4367     1   120.6900519 530.531200
   2836   4377   4379     1   120.6900519 530.531200
   2837   2835   4365     1   123.0500530 620.905600
   2838   2836   4377     1   123.0500530 620.905600
   2841   2844   2864     1   111.6100477 551.451200
   2841   2847   2848     1   112.3500484 533.878400
   2841   2847   2851     1   112.3500484 533.878400
   2844   2841   2847     1   111.0400475 552.288000
   2847   2848   2857     1   111.0400475 552.288000
   2847   2851   2854     1   111.0400475 552.288000
   2848   2847   2851     1   112.3500484 533.878400
   2848   2857   2861     1   111.0400475 529.694400
   2851   2854   2860     1   111.0400475 529.694400
   2854   2860   4389     1   115.1800491 558.982400
   2854   2860   2862     1   123.2000528 564.003200
   2857   2861   2863     1   123.2000528 564.003200
   2857   2861   4401     1   115.1800491 558.982400
   2860   4389   4391     1   120.6900519 530.531200
   2861   4401   4403     1   120.6900519 530.531200
   2862   2860   4389     1   123.0500530 620.905600
   2863   2861   4401     1   123.0500530 620.905600
   2866   2869   2889     1   111.6100477 551.451200
   2866   2872   2873     1   112.3500484 533.878400
   2866   2872   2876     1   112.3500484 533.878400
   2869   2866   2872     1   111.0400475 552.288000
   2872   2873   2882     1   111.0400475 552.288000
   2872   2876   2879     1   111.0400475 552.288000
   2873   2872   2876     1   112.3500484 533.878400
   2873   2882   2886     1   111.0400475 529.694400
   2876   2879   2885     1   111.0400475 529.694400
   2879   2885   4413     1   115.1800491 558.982400
   2879   2885   2887     1   123.2000528 564.003200
   2882   2886   2888     1   123.2000528 564.003200
   2882   2886   4425     1   115.1800491 558.982400
   2885   4413   4415     1   120.6900519 530.531200
   2886   4425   4427     1   120.6900519 530.531200
   2887   2885   4413     1   123.0500530 620.905600
   2888   2886   4425     1   123.0500530 620.905600
   2891   2894   2914     1   111.6100477 551.451200
   2891   2897   2898     1   112.3500484 533.878400
   2891   2897   2901     1   112.3500484 533.878400
   2894   2891   2897     1   111.0400475 552.288000
   2897   2898   2907     1   111.0400475 552.288000
   2897   2901   2904     1   111.0400475 552.288000
   2898   2897   2901     1   112.3500484 533.878400
   2898   2907   2911     1   111.0400475 529.694400
   2901   2904   2910     1   111.0400475 529.694400
   2904   2910   4437     1   115.1800491 558.982400
   2904   2910   2912     1   123.2000528 564.003200
   2907   2911   2913     1   123.2000528 564.003200
   2907   2911   4449     1   115.1800491 558.982400
   2910   4437   4439     1   120.6900519 530.531200
   2911   4449   4451     1   120.6900519 530.531200
   2912   2910   4437     1   123.0500530 620.905600
   2913   2911   4449     1   123.0500530 620.905600
   2916   2919   2939     1   111.6100477 551.451200
   2916   2922   2923     1   112.3500484 533.878400
   2916   2922   2926     1   112.3500484 533.878400
   2919   2916   2922     1   111.0400475 552.288000
   2922   2923   2932     1   111.0400475 552.288000
   2922   2926   2929     1   111.0400475 552.288000
   2923   2922   2926     1   112.3500484 533.878400
   2923   2932   2936     1   111.0400475 529.694400
   2926   2929   2935     1   111.0400475 529.694400
   2929   2935   4461     1   115.1800491 558.982400
   2929   2935   2937     1   123.2000528 564.003200
   2932   2936   2938     1   123.2000528 564.003200
   2932   2936   4473     1   115.1800491 558.982400
   2935   4461   4463     1   120.6900519 530.531200
   2936   4473   4475     1   120.6900519 530.531200
   2937   2935   4461     1   123.0500530 620.905600
   2938   2936   4473     1   123.0500530 620.905600
   2941   2944   2964     1   111.6100477 551.451200
   2941   2947   2948     1   112.3500484 533.878400
   2941   2947   2951     1   112.3500484 533.878400
   2944   2941   2947     1   111.0400475 552.288000
   2947   2948   2957     1   111.0400475 552.288000
   2947   2951   2954     1   111.0400475 552.288000
   2948   2947   2951     1   112.3500484 533.878400
   2948   2957   2961     1   111.0400475 529.694400
   2951   2954   2960     1   111.0400475 529.694400
   2954   2960   4485     1   115.1800491 558.982400
   2954   2960   2962     1   123.2000528 564.003200
   2957   2961   2963     1   123.2000528 564.003200
   2957   2961   4497     1   115.1800491 558.982400
   2960   4485   4487     1   120.6900519 530.531200
   2961   4497   4499     1   120.6900519 530.531200
   2962   2960   4485     1   123.0500530 620.905600
   2963   2961   4497     1   123.0500530 620.905600
   2966   2969   2989     1   111.6100477 551.451200
   2966   2972   2973     1   112.3500484 533.878400
   2966   2972   2976     1   112.3500484 533.878400
   2969   2966   2972     1   111.0400475 552.288000
   2972   2973   2982     1   111.0400475 552.288000
   2972   2976   2979     1   111.0400475 552.288000
   2973   2972   2976     1   112.3500484 533.878400
   2973   2982   2986     1   111.0400475 529.694400
   2976   2979   2985     1   111.0400475 529.694400
   2979   2985   4509     1   115.1800491 558.982400
   2979   2985   2987     1   123.2000528 564.003200
   2982   2986   2988     1   123.2000528 564.003200
   2982   2986   4521     1   115.1800491 558.982400
   2985   4509   4511     1   120.6900519 530.531200
   2986   4521   4523     1   120.6900519 530.531200
   2987   2985   4509     1   123.0500530 620.905600
   2988   2986   4521     1   123.0500530 620.905600
   2991   2994   3014     1   111.6100477 551.451200
   2991   2997   2998     1   112.3500484 533.878400
   2991   2997   3001     1   112.3500484 533.878400
   2994   2991   2997     1   111.0400475 552.288000
   2997   2998   3007     1   111.0400475 552.288000
   2997   3001   3004     1   111.0400475 552.288000
   2998   2997   3001     1   112.3500484 533.878400
   2998   3007   3011     1   111.0400475 529.694400
   3001   3004   3010     1   111.0400475 529.694400
   3004   3010   4533     1   115.1800491 558.982400
   3004   3010   3012     1   123.2000528 564.003200
   3007   3011   3013     1   123.2000528 564.003200
   3007   3011   4545     1   115.1800491 558.982400
   3010   4533   4535     1   120.6900519 530.531200
   3011   4545   4547     1   120.6900519 530.531200
   3012   3010   4533     1   123.0500530 620.905600
   3013   3011   4545     1   123.0500530 620.905600
   3016   3019   3039     1   111.6100477 551.451200
   3016   3022   3023     1   112.3500484 533.878400
   3016   3022   3026     1   112.3500484 533.878400
   3019   3016   3022     1   111.0400475 552.288000
   3022   3023   3032     1   111.0400475 552.288000
   3022   3026   3029     1   111.0400475 552.288000
   3023   3022   3026     1   112.3500484 533.878400
   3023   3032   3036     1   111.0400475 529.694400
   3026   3029   3035     1   111.0400475 529.694400
   3029   3035   4557     1   115.1800491 558.982400
   3029   3035   3037     1   123.2000528 564.003200
   3032   3036   3038     1   123.2000528 564.003200
   3032   3036   4569     1   115.1800491 558.982400
   3035   4557   4559     1   120.6900519 530.531200
   3036   4569   4571     1   120.6900519 530.531200
   3037   3035   4557     1   123.0500530 620.905600
   3038   3036   4569     1   123.0500530 620.905600
   3041   3044   3064     1   111.6100477 551.451200
   3041   3047   3048     1   112.3500484 533.878400
   3041   3047   3051     1   112.3500484 533.878400
   3044   3041   3047     1   111.0400475 552.288000
   3047   3048   3057     1   111.0400475 552.288000
   3047   3051   3054     1   111.0400475 552.288000
   3048   3047   3051     1   112.3500484 533.878400
   3048   3057   3061     1   111.0400475 529.694400
   3051   3054   3060     1   111.0400475 529.694400
   3054   3060   4581     1   115.1800491 558.982400
   3054   3060   3062     1   123.2000528 564.003200
   3057   3061   3063     1   123.2000528 564.003200
   3057   3061   4593     1   115.1800491 558.982400
   3060   4581   4583     1   120.6900519 530.531200
   3061   4593   4595     1   120.6900519 530.531200
   3062   3060   4581     1   123.0500530 620.905600
   3063   3061   4593     1   123.0500530 620.905600
   3066   3069   3089     1   111.6100477 551.451200
   3066   3072   3073     1   112.3500484 533.878400
   3066   3072   3076     1   112.3500484 533.878400
   3069   3066   3072     1   111.0400475 552.288000
   3072   3073   3082     1   111.0400475 552.288000
   3072   3076   3079     1   111.0400475 552.288000
   3073   3072   3076     1   112.3500484 533.878400
   3073   3082   3086     1   111.0400475 529.694400
   3076   3079   3085     1   111.0400475 529.694400
   3079   3085   4605     1   115.1800491 558.982400
   3079   3085   3087     1   123.2000528 564.003200
   3082   3086   3088     1   123.2000528 564.003200
   3082   3086   4617     1   115.1800491 558.982400
   3085   4605   4607     1   120.6900519 530.531200
   3086   4617   4619     1   120.6900519 530.531200
   3087   3085   4605     1   123.0500530 620.905600
   3088   3086   4617     1   123.0500530 620.905600
   3091   3094   3114     1   111.6100477 551.451200
   3091   3097   3098     1   112.3500484 533.878400
   3091   3097   3101     1   112.3500484 533.878400
   3094   3091   3097     1   111.0400475 552.288000
   3097   3098   3107     1   111.0400475 552.288000
   3097   3101   3104     1   111.0400475 552.288000
   3098   3097   3101     1   112.3500484 533.878400
   3098   3107   3111     1   111.0400475 529.694400
   3101   3104   3110     1   111.0400475 529.694400
   3104   3110   4629     1   115.1800491 558.982400
   3104   3110   3112     1   123.2000528 564.003200
   3107   3111   3113     1   123.2000528 564.003200
   3107   3111   4641     1   115.1800491 558.982400
   3110   4629   4631     1   120.6900519 530.531200
   3111   4641   4643     1   120.6900519 530.531200
   3112   3110   4629     1   123.0500530 620.905600
   3113   3111   4641     1   123.0500530 620.905600
   3116   3119   3139     1   111.6100477 551.451200
   3116   3122   3123     1   112.3500484 533.878400
   3116   3122   3126     1   112.3500484 533.878400
   3119   3116   3122     1   111.0400475 552.288000
   3122   3123   3132     1   111.0400475 552.288000
   3122   3126   3129     1   111.0400475 552.288000
   3123   3122   3126     1   112.3500484 533.878400
   3123   3132   3136     1   111.0400475 529.694400
   3126   3129   3135     1   111.0400475 529.694400
   3129   3135   4653     1   115.1800491 558.982400
   3129   3135   3137     1   123.2000528 564.003200
   3132   3136   4665     1   115.1800491 558.982400
   3132   3136   3138     1   123.2000528 564.003200
   3135   4653   4655     1   120.6900519 530.531200
   3136   4665   4667     1   120.6900519 530.531200
   3137   3135   4653     1   123.0500530 620.905600
   3138   3136   4665     1   123.0500530 620.905600
   3141   3143   3144     1   111.6100477 551.451200
   3143   3144   3149     1   114.2100488 537.225600
   3153   3155   3156     1   111.6100477 551.451200
   3155   3156   3161     1   114.2100488 537.225600
   3165   3167   3168     1   111.6100477 551.451200
   3167   3168   3173     1   114.2100488 537.225600
   3177   3179   3180     1   111.6100477 551.451200
   3179   3180   3185     1   114.2100488 537.225600
   3189   3191   3192     1   111.6100477 551.451200
   3191   3192   3197     1   114.2100488 537.225600
   3201   3203   3204     1   111.6100477 551.451200
   3203   3204   3209     1   114.2100488 537.225600
   3213   3215   3216     1   111.6100477 551.451200
   3215   3216   3221     1   114.2100488 537.225600
   3225   3227   3228     1   111.6100477 551.451200
   3227   3228   3233     1   114.2100488 537.225600
   3237   3239   3240     1   111.6100477 551.451200
   3239   3240   3245     1   114.2100488 537.225600
   3249   3251   3252     1   111.6100477 551.451200
   3251   3252   3257     1   114.2100488 537.225600
   3261   3263   3264     1   111.6100477 551.451200
   3263   3264   3269     1   114.2100488 537.225600
   3273   3275   3276     1   111.6100477 551.451200
   3275   3276   3281     1   114.2100488 537.225600
   3285   3287   3288     1   111.6100477 551.451200
   3287   3288   3293     1   114.2100488 537.225600
   3297   3299   3300     1   111.6100477 551.451200
   3299   3300   3305     1   114.2100488 537.225600
   3309   3311   3312     1   111.6100477 551.451200
   3311   3312   3317     1   114.2100488 537.225600
   3321   3323   3324     1   111.6100477 551.451200
   3323   3324   3329     1   114.2100488 537.225600
   3333   3335   3336     1   111.6100477 551.451200
   3335   3336   3341     1   114.2100488 537.225600
   3345   3347   3348     1   111.6100477 551.451200
   3347   3348   3353     1   114.2100488 537.225600
   3357   3359   3360     1   111.6100477 551.451200
   3359   3360   3365     1   114.2100488 537.225600
   3369   3371   3372     1   111.6100477 551.451200
   3371   3372   3377     1   114.2100488 537.225600
   3381   3383   3384     1   111.6100477 551.451200
   3383   3384   3389     1   114.2100488 537.225600
   3393   3395   3396     1   111.6100477 551.451200
   3395   3396   3401     1   114.2100488 537.225600
   3405   3407   3408     1   111.6100477 551.451200
   3407   3408   3413     1   114.2100488 537.225600
   3417   3419   3420     1   111.6100477 551.451200
   3419   3420   3425     1   114.2100488 537.225600
   3429   3431   3432     1   111.6100477 551.451200
   3431   3432   3437     1   114.2100488 537.225600
   3441   3443   3444     1   111.6100477 551.451200
   3443   3444   3449     1   114.2100488 537.225600
   3453   3455   3456     1   111.6100477 551.451200
   3455   3456   3461     1   114.2100488 537.225600
   3465   3467   3468     1   111.6100477 551.451200
   3467   3468   3473     1   114.2100488 537.225600
   3477   3479   3480     1   111.6100477 551.451200
   3479   3480   3485     1   114.2100488 537.225600
   3489   3491   3492     1   111.6100477 551.451200
   3491   3492   3497     1   114.2100488 537.225600
   3501   3503   3504     1   111.6100477 551.451200
   3503   3504   3509     1   114.2100488 537.225600
   3513   3515   3516     1   111.6100477 551.451200
   3515   3516   3521     1   114.2100488 537.225600
   3525   3527   3528     1   111.6100477 551.451200
   3527   3528   3533     1   114.2100488 537.225600
   3537   3539   3540     1   111.6100477 551.451200
   3539   3540   3545     1   114.2100488 537.225600
   3549   3551   3552     1   111.6100477 551.451200
   3551   3552   3557     1   114.2100488 537.225600
   3561   3563   3564     1   111.6100477 551.451200
   3563   3564   3569     1   114.2100488 537.225600
   3573   3575   3576     1   111.6100477 551.451200
   3575   3576   3581     1   114.2100488 537.225600
   3585   3587   3588     1   111.6100477 551.451200
   3587   3588   3593     1   114.2100488 537.225600
   3597   3599   3600     1   111.6100477 551.451200
   3599   3600   3605     1   114.2100488 537.225600
   3609   3611   3612     1   111.6100477 551.451200
   3611   3612   3617     1   114.2100488 537.225600
   3621   3623   3624     1   111.6100477 551.451200
   3623   3624   3629     1   114.2100488 537.225600
   3633   3635   3636     1   111.6100477 551.451200
   3635   3636   3641     1   114.2100488 537.225600
   3645   3647   3648     1   111.6100477 551.451200
   3647   3648   3653     1   114.2100488 537.225600
   3657   3659   3660     1   111.6100477 551.451200
   3659   3660   3665     1   114.2100488 537.225600
   3669   3671   3672     1   111.6100477 551.451200
   3671   3672   3677     1   114.2100488 537.225600
   3681   3683   3684     1   111.6100477 551.451200
   3683   3684   3689     1   114.2100488 537.225600
   3693   3695   3696     1   111.6100477 551.451200
   3695   3696   3701     1   114.2100488 537.225600
   3705   3707   3708     1   111.6100477 551.451200
   3707   3708   3713     1   114.2100488 537.225600
   3717   3719   3720     1   111.6100477 551.451200
   3719   3720   3725     1   114.2100488 537.225600
   3729   3731   3732     1   111.6100477 551.451200
   3731   3732   3737     1   114.2100488 537.225600
   3741   3743   3744     1   111.6100477 551.451200
   3743   3744   3749     1   114.2100488 537.225600
   3753   3755   3756     1   111.6100477 551.451200
   3755   3756   3761     1   114.2100488 537.225600
   3765   3767   3768     1   111.6100477 551.451200
   3767   3768   3773     1   114.2100488 537.225600
   3777   3779   3780     1   111.6100477 551.451200
   3779   3780   3785     1   114.2100488 537.225600
   3789   3791   3792     1   111.6100477 551.451200
   3791   3792   3797     1   114.2100488 537.225600
   3801   3803   3804     1   111.6100477 551.451200
   3803   3804   3809     1   114.2100488 537.225600
   3813   3815   3816     1   111.6100477 551.451200
   3815   3816   3821     1   114.2100488 537.225600
   3825   3827   3828     1   111.6100477 551.451200
   3827   3828   3833     1   114.2100488 537.225600
   3837   3839   3840     1   111.6100477 551.451200
   3839   3840   3845     1   114.2100488 537.225600
   3849   3851   3852     1   111.6100477 551.451200
   3851   3852   3857     1   114.2100488 537.225600
   3861   3863   3864     1   111.6100477 551.451200
   3863   3864   3869     1   114.2100488 537.225600
   3873   3875   3876     1   111.6100477 551.451200
   3875   3876   3881     1   114.2100488 537.225600
   3885   3887   3888     1   111.6100477 551.451200
   3887   3888   3893     1   114.2100488 537.225600
   3897   3899   3900     1   111.6100477 551.451200
   3899   3900   3905     1   114.2100488 537.225600
   3909   3911   3912     1   111.6100477 551.451200
   3911   3912   3917     1   114.2100488 537.225600
   3921   3923   3924     1   111.6100477 551.451200
   3923   3924   3929     1   114.2100488 537.225600
   3933   3935   3936     1   111.6100477 551.451200
   3935   3936   3941     1   114.2100488 537.225600
   3945   3947   3948     1   111.6100477 551.451200
   3947   3948   3953     1   114.2100488 537.225600
   3957   3959   3960     1   111.6100477 551.451200
   3959   3960   3965     1   114.2100488 537.225600
   3969   3971   3972     1   111.6100477 551.451200
   3971   3972   3977     1   114.2100488 537.225600
   3981   3983   3984     1   111.6100477 551.451200
   3983   3984   3989     1   114.2100488 537.225600
   3993   3995   3996     1   111.6100477 551.451200
   3995   3996   4001     1   114.2100488 537.225600
   4005   4007   4008     1   111.6100477 551.451200
   4007   4008   4013     1   114.2100488 537.225600
   4017   4019   4020     1   111.6100477 551.451200
   4019   4020   4025     1   114.2100488 537.225600
   4029   4031   4032     1   111.6100477 551.451200
   4031   4032   4037     1   114.2100488 537.225600
   4041   4043   4044     1   111.6100477 551.451200
   4043   4044   4049     1   114.2100488 537.225600
   4053   4055   4056     1   111.6100477 551.451200
   4055   4056   4061     1   114.2100488 537.225600
   4065   4067   4068     1   111.6100477 551.451200
   4067   4068   4073     1   114.2100488 537.225600
   4077   4079   4080     1   111.6100477 551.451200
   4079   4080   4085     1   114.2100488 537.225600
   4089   4091   4092     1   111.6100477 551.451200
   4091   4092   4097     1   114.2100488 537.225600
   4101   4103   4104     1   111.6100477 551.451200
   4103   4104   4109     1   114.2100488 537.225600
   4113   4115   4116     1   111.6100477 551.451200
   4115   4116   4121     1   114.2100488 537.225600
   4125   4127   4128     1   111.6100477 551.451200
   4127   4128   4133     1   114.2100488 537.225600
   4137   4139   4140     1   111.6100477 551.451200
   4139   4140   4145     1   114.2100488 537.225600
   4149   4151   4152     1   111.6100477 551.451200
   4151   4152   4157     1   114.2100488 537.225600
   4161   4163   4164     1   111.6100477 551.451200
   4163   4164   4169     1   114.2100488 537.225600
   4173   4175   4176     1   111.6100477 551.451200
   4175   4176   4181     1   114.2100488 537.225600
   4185   4187   4188     1   111.6100477 551.451200
   4187   4188   4193     1   114.2100488 537.225600
   4197   4199   4200     1   111.6100477 551.451200
   4199   4200   4205     1   114.2100488 537.225600
   4209   4211   4212     1   111.6100477 551.451200
   4211   4212   4217     1   114.2100488 537.225600
   4221   4223   4224     1   111.6100477 551.451200
   4223   4224   4229     1   114.2100488 537.225600
   4233   4235   4236     1   111.6100477 551.451200
   4235   4236   4241     1   114.2100488 537.225600
   4245   4247   4248     1   111.6100477 551.451200
   4247   4248   4253     1   114.2100488 537.225600
   4257   4259   4260     1   111.6100477 551.451200
   4259   4260   4265     1   114.2100488 537.225600
   4269   4271   4272     1   111.6100477 551.451200
   4271   4272   4277     1   114.2100488 537.225600
   4281   4283   4284     1   111.6100477 551.451200
   4283   4284   4289     1   114.2100488 537.225600
   4293   4295   4296     1   111.6100477 551.451200
   4295   4296   4301     1   114.2100488 537.225600
   4305   4307   4308     1   111.6100477 551.451200
   4307   4308   4313     1   114.2100488 537.225600
   4317   4319   4320     1   111.6100477 551.451200
   4319   4320   4325     1   114.2100488 537.225600
   4329   4331   4332     1   111.6100477 551.451200
   4331   4332   4337     1   114.2100488 537.225600
   4341   4343   4344     1   111.6100477 551.451200
   4343   4344   4349     1   114.2100488 537.225600
   4353   4355   4356     1   111.6100477 551.451200
   4355   4356   4361     1   114.2100488 537.225600
   4365   4367   4368     1   111.6100477 551.451200
   4367   4368   4373     1   114.2100488 537.225600
   4377   4379   4380     1   111.6100477 551.451200
   4379   4380   4385     1   114.2100488 537.225600
   4389   4391   4392     1   111.6100477 551.451200
   4391   4392   4397     1   114.2100488 537.225600
   4401   4403   4404     1   111.6100477 551.451200
   4403   4404   4409     1   114.2100488 537.225600
   4413   4415   4416     1   111.6100477 551.451200
   4415   4416   4421     1   114.2100488 537.225600
   4425   4427   4428     1   111.6100477 551.451200
   4427   4428   4433     1   114.2100488 537.225600
   4437   4439   4440     1   111.6100477 551.451200
   4439   4440   4445     1   114.2100488 537.225600
   4449   4451   4452     1   111.6100477 551.451200
   4451   4452   4457     1   114.2100488 537.225600
   4461   4463   4464     1   111.6100477 551.451200
   4463   4464   4469     1   114.2100488 537.225600
   4473   4475   4476     1   111.6100477 551.451200
   4475   4476   4481     1   114.2100488 537.225600
   4485   4487   4488     1   111.6100477 551.451200
   4487   4488   4493     1   114.2100488 537.225600
   4497   4499   4500     1   111.6100477 551.451200
   4499   4500   4505     1   114.2100488 537.225600
   4509   4511   4512     1   111.6100477 551.451200
   4511   4512   4517     1   114.2100488 537.225600
   4521   4523   4524     1   111.6100477 551.451200
   4523   4524   4529     1   114.2100488 537.225600
   4533   4535   4536     1   111.6100477 551.451200
   4535   4536   4541     1   114.2100488 537.225600
   4545   4547   4548     1   111.6100477 551.451200
   4547   4548   4553     1   114.2100488 537.225600
   4557   4559   4560     1   111.6100477 551.451200
   4559   4560   4565     1   114.2100488 537.225600
   4569   4571   4572     1   111.6100477 551.451200
   4571   4572   4577     1   114.2100488 537.225600
   4581   4583   4584     1   111.6100477 551.451200
   4583   4584   4589     1   114.2100488 537.225600
   4593   4595   4596     1   111.6100477 551.451200
   4595   4596   4601     1   114.2100488 537.225600
   4605   4607   4608     1   111.6100477 551.451200
   4607   4608   4613     1   114.2100488 537.225600
   4617   4619   4620     1   111.6100477 551.451200
   4619   4620   4625     1   114.2100488 537.225600
   4629   4631   4632     1   111.6100477 551.451200
   4631   4632   4637     1   114.2100488 537.225600
   4641   4643   4644     1   111.6100477 551.451200
   4643   4644   4649     1   114.2100488 537.225600
   4653   4655   4656     1   111.6100477 551.451200
   4655   4656   4661     1   114.2100488 537.225600
   4665   4667   4668     1   111.6100477 551.451200
   4667   4668   4673     1   114.2100488 537.225600
      1      4      5     1   109.5600471 388.275200
      1      4      6     1   109.5600471 388.275200
      2      1      4     1   109.5600471 388.275200
      2      1      8     1   109.8800469 414.216000
      2      1      3     1   108.4600466 328.025600
      3      1      4     1   109.5600471 388.275200
      3      1      8     1   109.8800469 414.216000
      5      4      7     1   109.8800469 414.216000
      5      4      6     1   108.4600466 328.025600
      6      4      7     1   109.8800469 414.216000
      7     15     16     1   109.8800469 414.216000
      7     15     17     1   109.8800469 414.216000
      7     18     19     1   109.8800469 414.216000
      7     18     20     1   109.8800469 414.216000
      8      9     10     1   109.8800469 414.216000
      8      9     11     1   109.8800469 414.216000
      8     12     13     1   109.8800469 414.216000
      8     12     14     1   109.8800469 414.216000
      9     30     31     1   109.8000471 387.438400
      9     30     32     1   109.8000471 387.438400
     10      9     30     1   109.5600471 388.275200
     10      9     11     1   108.4600466 328.025600
     11      9     30     1   109.5600471 388.275200
     12     27     28     1   109.8000471 387.438400
     12     27     29     1   109.8000471 387.438400
     13     12     27     1   109.5600471 388.275200
     13     12     14     1   108.4600466 328.025600
     14     12     27     1   109.5600471 388.275200
     15     21     22     1   109.8000471 387.438400
     15     21     23     1   109.8000471 387.438400
     16     15     21     1   109.5600471 388.275200
     16     15     17     1   108.4600466 328.025600
     17     15     21     1   109.5600471 388.275200
     18     24     25     1   109.8000471 387.438400
     18     24     26     1   109.8000471 387.438400
     19     18     24     1   109.5600471 388.275200
     19     18     20     1   108.4600466 328.025600
     20     18     24     1   109.5600471 388.275200
     22     21     35     1   108.7700466 392.459200
     22     21     23     1   107.5800459 329.699200
     23     21     35     1   108.7700466 392.459200
     25     24     36     1   108.7700466 392.459200
     25     24     26     1   107.5800459 329.699200
     26     24     36     1   108.7700466 392.459200
     28     27     33     1   108.7700466 392.459200
     28     27     29     1   107.5800459 329.699200
     29     27     33     1   108.7700466 392.459200
     31     30     34     1   108.7700466 392.459200
     31     30     32     1   107.5800459 329.699200
     32     30     34     1   108.7700466 392.459200
     33     64     65     1   117.5500507 404.174400
     34     89     90     1   117.5500507 404.174400
     35    114    115     1   117.5500507 404.174400
     36    139    140     1   117.5500507 404.174400
     41     44     45     1   109.5600471 388.275200
     41     44     46     1   109.5600471 388.275200
     42     41     44     1   109.5600471 388.275200
     42     41     47     1   109.8800469 414.216000
     42     41     43     1   108.4600466 328.025600
     43     41     44     1   109.5600471 388.275200
     43     41     47     1   109.8800469 414.216000
     44     64     65     1   117.6800502 383.254400
     45     44     64     1   108.8800464 416.726400
     45     44     46     1   108.4600466 328.025600
     46     44     64     1   108.8800464 416.726400
     47     48     49     1   109.8800469 414.216000
     47     48     50     1   109.8800469 414.216000
     47     51     52     1   109.8800469 414.216000
     47     51     53     1   109.8800469 414.216000
     48     57     58     1   109.8000471 387.438400
     48     57     59     1   109.8000471 387.438400
     49     48     57     1   109.5600471 388.275200
     49     48     50     1   108.4600466 328.025600
     50     48     57     1   109.5600471 388.275200
     51     54     55     1   109.8000471 387.438400
     51     54     56     1   109.8000471 387.438400
     52     51     54     1   109.5600471 388.275200
     52     51     53     1   108.4600466 328.025600
     53     51     54     1   109.5600471 388.275200
     55     54     60     1   108.7700466 392.459200
     55     54     56     1   107.5800459 329.699200
     56     54     60     1   108.7700466 392.459200
     58     57     61     1   108.7700466 392.459200
     58     57     59     1   107.5800459 329.699200
     59     57     61     1   108.7700466 392.459200
     60    164    165     1   117.5500507 404.174400
     61    189    190     1   117.5500507 404.174400
     66     69     70     1   109.5600471 388.275200
     66     69     71     1   109.5600471 388.275200
     67     66     69     1   109.5600471 388.275200
     67     66     72     1   109.8800469 414.216000
     67     66     68     1   108.4600466 328.025600
     68     66     69     1   109.5600471 388.275200
     68     66     72     1   109.8800469 414.216000
     69     89     90     1   117.6800502 383.254400
     70     69     89     1   108.8800464 416.726400
     70     69     71     1   108.4600466 328.025600
     71     69     89     1   108.8800464 416.726400
     72     73     74     1   109.8800469 414.216000
     72     73     75     1   109.8800469 414.216000
     72     76     77     1   109.8800469 414.216000
     72     76     78     1   109.8800469 414.216000
     73     82     83     1   109.8000471 387.438400
     73     82     84     1   109.8000471 387.438400
     74     73     82     1   109.5600471 388.275200
     74     73     75     1   108.4600466 328.025600
     75     73     82     1   109.5600471 388.275200
     76     79     80     1   109.8000471 387.438400
     76     79     81     1   109.8000471 387.438400
     77     76     79     1   109.5600471 388.275200
     77     76     78     1   108.4600466 328.025600
     78     76     79     1   109.5600471 388.275200
     80     79     85     1   108.7700466 392.459200
     80     79     81     1   107.5800459 329.699200
     81     79     85     1   108.7700466 392.459200
     83     82     86     1   108.7700466 392.459200
     83     82     84     1   107.5800459 329.699200
     84     82     86     1   108.7700466 392.459200
     85    214    215     1   117.5500507 404.174400
     86    239    240     1   117.5500507 404.174400
     91     94     95     1   109.5600471 388.275200
     91     94     96     1   109.5600471 388.275200
     92     91     94     1   109.5600471 388.275200
     92     91     97     1   109.8800469 414.216000
     92     91     93     1   108.4600466 328.025600
     93     91     94     1   109.5600471 388.275200
     93     91     97     1   109.8800469 414.216000
     94    114    115     1   117.6800502 383.254400
     95     94    114     1   108.8800464 416.726400
     95     94     96     1   108.4600466 328.025600
     96     94    114     1   108.8800464 416.726400
     97     98     99     1   109.8800469 414.216000
     97     98    100     1   109.8800469 414.216000
     97    101    102     1   109.8800469 414.216000
     97    101    103     1   109.8800469 414.216000
     98    107    108     1   109.8000471 387.438400
     98    107    109     1   109.8000471 387.438400
     99     98    107     1   109.5600471 388.275200
     99     98    100     1   108.4600466 328.025600
    100     98    107     1   109.5600471 388.275200
    101    104    105     1   109.8000471 387.438400
    101    104    106     1   109.8000471 387.438400
    102    101    104     1   109.5600471 388.275200
    102    101    103     1   108.4600466 328.025600
    103    101    104     1   109.5600471 388.275200
    105    104    110     1   108.7700466 392.459200
    105    104    106     1   107.5800459 329.699200
    106    104    110     1   108.7700466 392.459200
    108    107    111     1   108.7700466 392.459200
    108    107    109     1   107.5800459 329.699200
    109    107    111     1   108.7700466 392.459200
    110    264    265     1   117.5500507 404.174400
    111    289    290     1   117.5500507 404.174400
    116    119    120     1   109.5600471 388.275200
    116    119    121     1   109.5600471 388.275200
    117    116    119     1   109.5600471 388.275200
    117    116    122     1   109.8800469 414.216000
    117    116    118     1   108.4600466 328.025600
    118    116    119     1   109.5600471 388.275200
    118    116    122     1   109.8800469 414.216000
    119    139    140     1   117.6800502 383.254400
    120    119    139     1   108.8800464 416.726400
    120    119    121     1   108.4600466 328.025600
    121    119    139     1   108.8800464 416.726400
    122    123    124     1   109.8800469 414.216000
    122    123    125     1   109.8800469 414.216000
    122    126    127     1   109.8800469 414.216000
    122    126    128     1   109.8800469 414.216000
    123    132    133     1   109.8000471 387.438400
    123    132    134     1   109.8000471 387.438400
    124    123    132     1   109.5600471 388.275200
    124    123    125     1   108.4600466 328.025600
    125    123    132     1   109.5600471 388.275200
    126    129    130     1   109.8000471 387.438400
    126    129    131     1   109.8000471 387.438400
    127    126    129     1   109.5600471 388.275200
    127    126    128     1   108.4600466 328.025600
    128    126    129     1   109.5600471 388.275200
    130    129    135     1   108.7700466 392.459200
    130    129    131     1   107.5800459 329.699200
    131    129    135     1   108.7700466 392.459200
    133    132    136     1   108.7700466 392.459200
    133    132    134     1   107.5800459 329.699200
    134    132    136     1   108.7700466 392.459200
    135    314    315     1   117.5500507 404.174400
    136    339    340     1   117.5500507 404.174400
    141    144    145     1   109.5600471 388.275200
    141    144    146     1   109.5600471 388.275200
    142    141    144     1   109.5600471 388.275200
    142    141    147     1   109.8800469 414.216000
    142    141    143     1   108.4600466 328.025600
    143    141    144     1   109.5600471 388.275200
    143    141    147     1   109.8800469 414.216000
    144    164    165     1   117.6800502 383.254400
    145    144    164     1   108.8800464 416.726400
    145    144    146     1   108.4600466 328.025600
    146    144    164     1   108.8800464 416.726400
    147    148    149     1   109.8800469 414.216000
    147    148    150     1   109.8800469 414.216000
    147    151    152     1   109.8800469 414.216000
    147    151    153     1   109.8800469 414.216000
    148    157    158     1   109.8000471 387.438400
    148    157    159     1   109.8000471 387.438400
    149    148    157     1   109.5600471 388.275200
    149    148    150     1   108.4600466 328.025600
    150    148    157     1   109.5600471 388.275200
    151    154    155     1   109.8000471 387.438400
    151    154    156     1   109.8000471 387.438400
    152    151    154     1   109.5600471 388.275200
    152    151    153     1   108.4600466 328.025600
    153    151    154     1   109.5600471 388.275200
    155    154    160     1   108.7700466 392.459200
    155    154    156     1   107.5800459 329.699200
    156    154    160     1   108.7700466 392.459200
    158    157    161     1   108.7700466 392.459200
    158    157    159     1   107.5800459 329.699200
    159    157    161     1   108.7700466 392.459200
    160    364    365     1   117.5500507 404.174400
    161    389    390     1   117.5500507 404.174400
    166    169    170     1   109.5600471 388.275200
    166    169    171     1   109.5600471 388.275200
    167    166    169     1   109.5600471 388.275200
    167    166    172     1   109.8800469 414.216000
    167    166    168     1   108.4600466 328.025600
    168    166    169     1   109.5600471 388.275200
    168    166    172     1   109.8800469 414.216000
    169    189    190     1   117.6800502 383.254400
    170    169    189     1   108.8800464 416.726400
    170    169    171     1   108.4600466 328.025600
    171    169    189     1   108.8800464 416.726400
    172    173    174     1   109.8800469 414.216000
    172    173    175     1   109.8800469 414.216000
    172    176    177     1   109.8800469 414.216000
    172    176    178     1   109.8800469 414.216000
    173    182    183     1   109.8000471 387.438400
    173    182    184     1   109.8000471 387.438400
    174    173    182     1   109.5600471 388.275200
    174    173    175     1   108.4600466 328.025600
    175    173    182     1   109.5600471 388.275200
    176    179    180     1   109.8000471 387.438400
    176    179    181     1   109.8000471 387.438400
    177    176    179     1   109.5600471 388.275200
    177    176    178     1   108.4600466 328.025600
    178    176    179     1   109.5600471 388.275200
    180    179    185     1   108.7700466 392.459200
    180    179    181     1   107.5800459 329.699200
    181    179    185     1   108.7700466 392.459200
    183    182    186     1   108.7700466 392.459200
    183    182    184     1   107.5800459 329.699200
    184    182    186     1   108.7700466 392.459200
    185    414    415     1   117.5500507 404.174400
    186    439    440     1   117.5500507 404.174400
    191    194    195     1   109.5600471 388.275200
    191    194    196     1   109.5600471 388.275200
    192    191    194     1   109.5600471 388.275200
    192    191    197     1   109.8800469 414.216000
    192    191    193     1   108.4600466 328.025600
    193    191    194     1   109.5600471 388.275200
    193    191    197     1   109.8800469 414.216000
    194    214    215     1   117.6800502 383.254400
    195    194    214     1   108.8800464 416.726400
    195    194    196     1   108.4600466 328.025600
    196    194    214     1   108.8800464 416.726400
    197    198    199     1   109.8800469 414.216000
    197    198    200     1   109.8800469 414.216000
    197    201    202     1   109.8800469 414.216000
    197    201    203     1   109.8800469 414.216000
    198    207    208     1   109.8000471 387.438400
    198    207    209     1   109.8000471 387.438400
    199    198    207     1   109.5600471 388.275200
    199    198    200     1   108.4600466 328.025600
    200    198    207     1   109.5600471 388.275200
    201    204    205     1   109.8000471 387.438400
    201    204    206     1   109.8000471 387.438400
    202    201    204     1   109.5600471 388.275200
    202    201    203     1   108.4600466 328.025600
    203    201    204     1   109.5600471 388.275200
    205    204    210     1   108.7700466 392.459200
    205    204    206     1   107.5800459 329.699200
    206    204    210     1   108.7700466 392.459200
    208    207    211     1   108.7700466 392.459200
    208    207    209     1   107.5800459 329.699200
    209    207    211     1   108.7700466 392.459200
    210    464    465     1   117.5500507 404.174400
    211    489    490     1   117.5500507 404.174400
    216    219    220     1   109.5600471 388.275200
    216    219    221     1   109.5600471 388.275200
    217    216    219     1   109.5600471 388.275200
    217    216    222     1   109.8800469 414.216000
    217    216    218     1   108.4600466 328.025600
    218    216    219     1   109.5600471 388.275200
    218    216    222     1   109.8800469 414.216000
    219    239    240     1   117.6800502 383.254400
    220    219    239     1   108.8800464 416.726400
    220    219    221     1   108.4600466 328.025600
    221    219    239     1   108.8800464 416.726400
    222    223    224     1   109.8800469 414.216000
    222    223    225     1   109.8800469 414.216000
    222    226    227     1   109.8800469 414.216000
    222    226    228     1   109.8800469 414.216000
    223    232    233     1   109.8000471 387.438400
    223    232    234     1   109.8000471 387.438400
    224    223    232     1   109.5600471 388.275200
    224    223    225     1   108.4600466 328.025600
    225    223    232     1   109.5600471 388.275200
    226    229    230     1   109.8000471 387.438400
    226    229    231     1   109.8000471 387.438400
    227    226    229     1   109.5600471 388.275200
    227    226    228     1   108.4600466 328.025600
    228    226    229     1   109.5600471 388.275200
    230    229    235     1   108.7700466 392.459200
    230    229    231     1   107.5800459 329.699200
    231    229    235     1   108.7700466 392.459200
    233    232    236     1   108.7700466 392.459200
    233    232    234     1   107.5800459 329.699200
    234    232    236     1   108.7700466 392.459200
    235    514    515     1   117.5500507 404.174400
    236    539    540     1   117.5500507 404.174400
    241    244    245     1   109.5600471 388.275200
    241    244    246     1   109.5600471 388.275200
    242    241    244     1   109.5600471 388.275200
    242    241    247     1   109.8800469 414.216000
    242    241    243     1   108.4600466 328.025600
    243    241    244     1   109.5600471 388.275200
    243    241    247     1   109.8800469 414.216000
    244    264    265     1   117.6800502 383.254400
    245    244    264     1   108.8800464 416.726400
    245    244    246     1   108.4600466 328.025600
    246    244    264     1   108.8800464 416.726400
    247    248    249     1   109.8800469 414.216000
    247    248    250     1   109.8800469 414.216000
    247    251    252     1   109.8800469 414.216000
    247    251    253     1   109.8800469 414.216000
    248    257    258     1   109.8000471 387.438400
    248    257    259     1   109.8000471 387.438400
    249    248    257     1   109.5600471 388.275200
    249    248    250     1   108.4600466 328.025600
    250    248    257     1   109.5600471 388.275200
    251    254    255     1   109.8000471 387.438400
    251    254    256     1   109.8000471 387.438400
    252    251    254     1   109.5600471 388.275200
    252    251    253     1   108.4600466 328.025600
    253    251    254     1   109.5600471 388.275200
    255    254    260     1   108.7700466 392.459200
    255    254    256     1   107.5800459 329.699200
    256    254    260     1   108.7700466 392.459200
    258    257    261     1   108.7700466 392.459200
    258    257    259     1   107.5800459 329.699200
    259    257    261     1   108.7700466 392.459200
    260    564    565     1   117.5500507 404.174400
    261    589    590     1   117.5500507 404.174400
    266    269    270     1   109.5600471 388.275200
    266    269    271     1   109.5600471 388.275200
    267    266    269     1   109.5600471 388.275200
    267    266    272     1   109.8800469 414.216000
    267    266    268     1   108.4600466 328.025600
    268    266    269     1   109.5600471 388.275200
    268    266    272     1   109.8800469 414.216000
    269    289    290     1   117.6800502 383.254400
    270    269    289     1   108.8800464 416.726400
    270    269    271     1   108.4600466 328.025600
    271    269    289     1   108.8800464 416.726400
    272    273    274     1   109.8800469 414.216000
    272    273    275     1   109.8800469 414.216000
    272    276    277     1   109.8800469 414.216000
    272    276    278     1   109.8800469 414.216000
    273    282    283     1   109.8000471 387.438400
    273    282    284     1   109.8000471 387.438400
    274    273    282     1   109.5600471 388.275200
    274    273    275     1   108.4600466 328.025600
    275    273    282     1   109.5600471 388.275200
    276    279    280     1   109.8000471 387.438400
    276    279    281     1   109.8000471 387.438400
    277    276    279     1   109.5600471 388.275200
    277    276    278     1   108.4600466 328.025600
    278    276    279     1   109.5600471 388.275200
    280    279    285     1   108.7700466 392.459200
    280    279    281     1   107.5800459 329.699200
    281    279    285     1   108.7700466 392.459200
    283    282    286     1   108.7700466 392.459200
    283    282    284     1   107.5800459 329.699200
    284    282    286     1   108.7700466 392.459200
    285    614    615     1   117.5500507 404.174400
    286    639    640     1   117.5500507 404.174400
    291    294    295     1   109.5600471 388.275200
    291    294    296     1   109.5600471 388.275200
    292    291    294     1   109.5600471 388.275200
    292    291    297     1   109.8800469 414.216000
    292    291    293     1   108.4600466 328.025600
    293    291    294     1   109.5600471 388.275200
    293    291    297     1   109.8800469 414.216000
    294    314    315     1   117.6800502 383.254400
    295    294    314     1   108.8800464 416.726400
    295    294    296     1   108.4600466 328.025600
    296    294    314     1   108.8800464 416.726400
    297    298    299     1   109.8800469 414.216000
    297    298    300     1   109.8800469 414.216000
    297    301    302     1   109.8800469 414.216000
    297    301    303     1   109.8800469 414.216000
    298    307    308     1   109.8000471 387.438400
    298    307    309     1   109.8000471 387.438400
    299    298    307     1   109.5600471 388.275200
    299    298    300     1   108.4600466 328.025600
    300    298    307     1   109.5600471 388.275200
    301    304    305     1   109.8000471 387.438400
    301    304    306     1   109.8000471 387.438400
    302    301    304     1   109.5600471 388.275200
    302    301    303     1   108.4600466 328.025600
    303    301    304     1   109.5600471 388.275200
    305    304    310     1   108.7700466 392.459200
    305    304    306     1   107.5800459 329.699200
    306    304    310     1   108.7700466 392.459200
    308    307    311     1   108.7700466 392.459200
    308    307    309     1   107.5800459 329.699200
    309    307    311     1   108.7700466 392.459200
    310    664    665     1   117.5500507 404.174400
    311    689    690     1   117.5500507 404.174400
    316    319    320     1   109.5600471 388.275200
    316    319    321     1   109.5600471 388.275200
    317    316    319     1   109.5600471 388.275200
    317    316    322     1   109.8800469 414.216000
    317    316    318     1   108.4600466 328.025600
    318    316    319     1   109.5600471 388.275200
    318    316    322     1   109.8800469 414.216000
    319    339    340     1   117.6800502 383.254400
    320    319    339     1   108.8800464 416.726400
    320    319    321     1   108.4600466 328.025600
    321    319    339     1   108.8800464 416.726400
    322    323    324     1   109.8800469 414.216000
    322    323    325     1   109.8800469 414.216000
    322    326    327     1   109.8800469 414.216000
    322    326    328     1   109.8800469 414.216000
    323    332    333     1   109.8000471 387.438400
    323    332    334     1   109.8000471 387.438400
    324    323    332     1   109.5600471 388.275200
    324    323    325     1   108.4600466 328.025600
    325    323    332     1   109.5600471 388.275200
    326    329    330     1   109.8000471 387.438400
    326    329    331     1   109.8000471 387.438400
    327    326    329     1   109.5600471 388.275200
    327    326    328     1   108.4600466 328.025600
    328    326    329     1   109.5600471 388.275200
    330    329    335     1   108.7700466 392.459200
    330    329    331     1   107.5800459 329.699200
    331    329    335     1   108.7700466 392.459200
    333    332    336     1   108.7700466 392.459200
    333    332    334     1   107.5800459 329.699200
    334    332    336     1   108.7700466 392.459200
    335    714    715     1   117.5500507 404.174400
    336    739    740     1   117.5500507 404.174400
    341    344    345     1   109.5600471 388.275200
    341    344    346     1   109.5600471 388.275200
    342    341    344     1   109.5600471 388.275200
    342    341    347     1   109.8800469 414.216000
    342    341    343     1   108.4600466 328.025600
    343    341    344     1   109.5600471 388.275200
    343    341    347     1   109.8800469 414.216000
    344    364    365     1   117.6800502 383.254400
    345    344    364     1   108.8800464 416.726400
    345    344    346     1   108.4600466 328.025600
    346    344    364     1   108.8800464 416.726400
    347    348    349     1   109.8800469 414.216000
    347    348    350     1   109.8800469 414.216000
    347    351    352     1   109.8800469 414.216000
    347    351    353     1   109.8800469 414.216000
    348    357    358     1   109.8000471 387.438400
    348    357    359     1   109.8000471 387.438400
    349    348    357     1   109.5600471 388.275200
    349    348    350     1   108.4600466 328.025600
    350    348    357     1   109.5600471 388.275200
    351    354    355     1   109.8000471 387.438400
    351    354    356     1   109.8000471 387.438400
    352    351    354     1   109.5600471 388.275200
    352    351    353     1   108.4600466 328.025600
    353    351    354     1   109.5600471 388.275200
    355    354    360     1   108.7700466 392.459200
    355    354    356     1   107.5800459 329.699200
    356    354    360     1   108.7700466 392.459200
    358    357    361     1   108.7700466 392.459200
    358    357    359     1   107.5800459 329.699200
    359    357    361     1   108.7700466 392.459200
    360    764    765     1   117.5500507 404.174400
    361    789    790     1   117.5500507 404.174400
    366    369    370     1   109.5600471 388.275200
    366    369    371     1   109.5600471 388.275200
    367    366    369     1   109.5600471 388.275200
    367    366    372     1   109.8800469 414.216000
    367    366    368     1   108.4600466 328.025600
    368    366    369     1   109.5600471 388.275200
    368    366    372     1   109.8800469 414.216000
    369    389    390     1   117.6800502 383.254400
    370    369    389     1   108.8800464 416.726400
    370    369    371     1   108.4600466 328.025600
    371    369    389     1   108.8800464 416.726400
    372    373    374     1   109.8800469 414.216000
    372    373    375     1   109.8800469 414.216000
    372    376    377     1   109.8800469 414.216000
    372    376    378     1   109.8800469 414.216000
    373    382    383     1   109.8000471 387.438400
    373    382    384     1   109.8000471 387.438400
    374    373    382     1   109.5600471 388.275200
    374    373    375     1   108.4600466 328.025600
    375    373    382     1   109.5600471 388.275200
    376    379    380     1   109.8000471 387.438400
    376    379    381     1   109.8000471 387.438400
    377    376    379     1   109.5600471 388.275200
    377    376    378     1   108.4600466 328.025600
    378    376    379     1   109.5600471 388.275200
    380    379    385     1   108.7700466 392.459200
    380    379    381     1   107.5800459 329.699200
    381    379    385     1   108.7700466 392.459200
    383    382    386     1   108.7700466 392.459200
    383    382    384     1   107.5800459 329.699200
    384    382    386     1   108.7700466 392.459200
    385    814    815     1   117.5500507 404.174400
    386    839    840     1   117.5500507 404.174400
    391    394    395     1   109.5600471 388.275200
    391    394    396     1   109.5600471 388.275200
    392    391    394     1   109.5600471 388.275200
    392    391    397     1   109.8800469 414.216000
    392    391    393     1   108.4600466 328.025600
    393    391    394     1   109.5600471 388.275200
    393    391    397     1   109.8800469 414.216000
    394    414    415     1   117.6800502 383.254400
    395    394    414     1   108.8800464 416.726400
    395    394    396     1   108.4600466 328.025600
    396    394    414     1   108.8800464 416.726400
    397    398    399     1   109.8800469 414.216000
    397    398    400     1   109.8800469 414.216000
    397    401    402     1   109.8800469 414.216000
    397    401    403     1   109.8800469 414.216000
    398    407    408     1   109.8000471 387.438400
    398    407    409     1   109.8000471 387.438400
    399    398    407     1   109.5600471 388.275200
    399    398    400     1   108.4600466 328.025600
    400    398    407     1   109.5600471 388.275200
    401    404    405     1   109.8000471 387.438400
    401    404    406     1   109.8000471 387.438400
    402    401    404     1   109.5600471 388.275200
    402    401    403     1   108.4600466 328.025600
    403    401    404     1   109.5600471 388.275200
    405    404    410     1   108.7700466 392.459200
    405    404    406     1   107.5800459 329.699200
    406    404    410     1   108.7700466 392.459200
    408    407    411     1   108.7700466 392.459200
    408    407    409     1   107.5800459 329.699200
    409    407    411     1   108.7700466 392.459200
    410    864    865     1   117.5500507 404.174400
    411    889    890     1   117.5500507 404.174400
    416    419    420     1   109.5600471 388.275200
    416    419    421     1   109.5600471 388.275200
    417    416    419     1   109.5600471 388.275200
    417    416    422     1   109.8800469 414.216000
    417    416    418     1   108.4600466 328.025600
    418    416    419     1   109.5600471 388.275200
    418    416    422     1   109.8800469 414.216000
    419    439    440     1   117.6800502 383.254400
    420    419    439     1   108.8800464 416.726400
    420    419    421     1   108.4600466 328.025600
    421    419    439     1   108.8800464 416.726400
    422    423    424     1   109.8800469 414.216000
    422    423    425     1   109.8800469 414.216000
    422    426    427     1   109.8800469 414.216000
    422    426    428     1   109.8800469 414.216000
    423    432    433     1   109.8000471 387.438400
    423    432    434     1   109.8000471 387.438400
    424    423    432     1   109.5600471 388.275200
    424    423    425     1   108.4600466 328.025600
    425    423    432     1   109.5600471 388.275200
    426    429    430     1   109.8000471 387.438400
    426    429    431     1   109.8000471 387.438400
    427    426    429     1   109.5600471 388.275200
    427    426    428     1   108.4600466 328.025600
    428    426    429     1   109.5600471 388.275200
    430    429    435     1   108.7700466 392.459200
    430    429    431     1   107.5800459 329.699200
    431    429    435     1   108.7700466 392.459200
    433    432    436     1   108.7700466 392.459200
    433    432    434     1   107.5800459 329.699200
    434    432    436     1   108.7700466 392.459200
    435    914    915     1   117.5500507 404.174400
    436    939    940     1   117.5500507 404.174400
    441    444    445     1   109.5600471 388.275200
    441    444    446     1   109.5600471 388.275200
    442    441    444     1   109.5600471 388.275200
    442    441    447     1   109.8800469 414.216000
    442    441    443     1   108.4600466 328.025600
    443    441    444     1   109.5600471 388.275200
    443    441    447     1   109.8800469 414.216000
    444    464    465     1   117.6800502 383.254400
    445    444    464     1   108.8800464 416.726400
    445    444    446     1   108.4600466 328.025600
    446    444    464     1   108.8800464 416.726400
    447    448    449     1   109.8800469 414.216000
    447    448    450     1   109.8800469 414.216000
    447    451    452     1   109.8800469 414.216000
    447    451    453     1   109.8800469 414.216000
    448    457    458     1   109.8000471 387.438400
    448    457    459     1   109.8000471 387.438400
    449    448    457     1   109.5600471 388.275200
    449    448    450     1   108.4600466 328.025600
    450    448    457     1   109.5600471 388.275200
    451    454    455     1   109.8000471 387.438400
    451    454    456     1   109.8000471 387.438400
    452    451    454     1   109.5600471 388.275200
    452    451    453     1   108.4600466 328.025600
    453    451    454     1   109.5600471 388.275200
    455    454    460     1   108.7700466 392.459200
    455    454    456     1   107.5800459 329.699200
    456    454    460     1   108.7700466 392.459200
    458    457    461     1   108.7700466 392.459200
    458    457    459     1   107.5800459 329.699200
    459    457    461     1   108.7700466 392.459200
    460    964    965     1   117.5500507 404.174400
    461    989    990     1   117.5500507 404.174400
    466    469    470     1   109.5600471 388.275200
    466    469    471     1   109.5600471 388.275200
    467    466    469     1   109.5600471 388.275200
    467    466    472     1   109.8800469 414.216000
    467    466    468     1   108.4600466 328.025600
    468    466    469     1   109.5600471 388.275200
    468    466    472     1   109.8800469 414.216000
    469    489    490     1   117.6800502 383.254400
    470    469    489     1   108.8800464 416.726400
    470    469    471     1   108.4600466 328.025600
    471    469    489     1   108.8800464 416.726400
    472    473    474     1   109.8800469 414.216000
    472    473    475     1   109.8800469 414.216000
    472    476    477     1   109.8800469 414.216000
    472    476    478     1   109.8800469 414.216000
    473    482    483     1   109.8000471 387.438400
    473    482    484     1   109.8000471 387.438400
    474    473    482     1   109.5600471 388.275200
    474    473    475     1   108.4600466 328.025600
    475    473    482     1   109.5600471 388.275200
    476    479    480     1   109.8000471 387.438400
    476    479    481     1   109.8000471 387.438400
    477    476    479     1   109.5600471 388.275200
    477    476    478     1   108.4600466 328.025600
    478    476    479     1   109.5600471 388.275200
    480    479    485     1   108.7700466 392.459200
    480    479    481     1   107.5800459 329.699200
    481    479    485     1   108.7700466 392.459200
    483    482    486     1   108.7700466 392.459200
    483    482    484     1   107.5800459 329.699200
    484    482    486     1   108.7700466 392.459200
    485   1014   1015     1   117.5500507 404.174400
    486   1039   1040     1   117.5500507 404.174400
    491    494    495     1   109.5600471 388.275200
    491    494    496     1   109.5600471 388.275200
    492    491    494     1   109.5600471 388.275200
    492    491    497     1   109.8800469 414.216000
    492    491    493     1   108.4600466 328.025600
    493    491    494     1   109.5600471 388.275200
    493    491    497     1   109.8800469 414.216000
    494    514    515     1   117.6800502 383.254400
    495    494    514     1   108.8800464 416.726400
    495    494    496     1   108.4600466 328.025600
    496    494    514     1   108.8800464 416.726400
    497    498    499     1   109.8800469 414.216000
    497    498    500     1   109.8800469 414.216000
    497    501    502     1   109.8800469 414.216000
    497    501    503     1   109.8800469 414.216000
    498    507    508     1   109.8000471 387.438400
    498    507    509     1   109.8000471 387.438400
    499    498    507     1   109.5600471 388.275200
    499    498    500     1   108.4600466 328.025600
    500    498    507     1   109.5600471 388.275200
    501    504    505     1   109.8000471 387.438400
    501    504    506     1   109.8000471 387.438400
    502    501    504     1   109.5600471 388.275200
    502    501    503     1   108.4600466 328.025600
    503    501    504     1   109.5600471 388.275200
    505    504    510     1   108.7700466 392.459200
    505    504    506     1   107.5800459 329.699200
    506    504    510     1   108.7700466 392.459200
    508    507    511     1   108.7700466 392.459200
    508    507    509     1   107.5800459 329.699200
    509    507    511     1   108.7700466 392.459200
    510   1064   1065     1   117.5500507 404.174400
    511   1089   1090     1   117.5500507 404.174400
    516    519    520     1   109.5600471 388.275200
    516    519    521     1   109.5600471 388.275200
    517    516    519     1   109.5600471 388.275200
    517    516    522     1   109.8800469 414.216000
    517    516    518     1   108.4600466 328.025600
    518    516    519     1   109.5600471 388.275200
    518    516    522     1   109.8800469 414.216000
    519    539    540     1   117.6800502 383.254400
    520    519    539     1   108.8800464 416.726400
    520    519    521     1   108.4600466 328.025600
    521    519    539     1   108.8800464 416.726400
    522    523    524     1   109.8800469 414.216000
    522    523    525     1   109.8800469 414.216000
    522    526    527     1   109.8800469 414.216000
    522    526    528     1   109.8800469 414.216000
    523    532    533     1   109.8000471 387.438400
    523    532    534     1   109.8000471 387.438400
    524    523    532     1   109.5600471 388.275200
    524    523    525     1   108.4600466 328.025600
    525    523    532     1   109.5600471 388.275200
    526    529    530     1   109.8000471 387.438400
    526    529    531     1   109.8000471 387.438400
    527    526    529     1   109.5600471 388.275200
    527    526    528     1   108.4600466 328.025600
    528    526    529     1   109.5600471 388.275200
    530    529    535     1   108.7700466 392.459200
    530    529    531     1   107.5800459 329.699200
    531    529    535     1   108.7700466 392.459200
    533    532    536     1   108.7700466 392.459200
    533    532    534     1   107.5800459 329.699200
    534    532    536     1   108.7700466 392.459200
    535   1114   1115     1   117.5500507 404.174400
    536   1139   1140     1   117.5500507 404.174400
    541    544    545     1   109.5600471 388.275200
    541    544    546     1   109.5600471 388.275200
    542    541    544     1   109.5600471 388.275200
    542    541    547     1   109.8800469 414.216000
    542    541    543     1   108.4600466 328.025600
    543    541    544     1   109.5600471 388.275200
    543    541    547     1   109.8800469 414.216000
    544    564    565     1   117.6800502 383.254400
    545    544    564     1   108.8800464 416.726400
    545    544    546     1   108.4600466 328.025600
    546    544    564     1   108.8800464 416.726400
    547    548    549     1   109.8800469 414.216000
    547    548    550     1   109.8800469 414.216000
    547    551    552     1   109.8800469 414.216000
    547    551    553     1   109.8800469 414.216000
    548    557    558     1   109.8000471 387.438400
    548    557    559     1   109.8000471 387.438400
    549    548    557     1   109.5600471 388.275200
    549    548    550     1   108.4600466 328.025600
    550    548    557     1   109.5600471 388.275200
    551    554    555     1   109.8000471 387.438400
    551    554    556     1   109.8000471 387.438400
    552    551    554     1   109.5600471 388.275200
    552    551    553     1   108.4600466 328.025600
    553    551    554     1   109.5600471 388.275200
    555    554    560     1   108.7700466 392.459200
    555    554    556     1   107.5800459 329.699200
    556    554    560     1   108.7700466 392.459200
    558    557    561     1   108.7700466 392.459200
    558    557    559     1   107.5800459 329.699200
    559    557    561     1   108.7700466 392.459200
    560   1164   1165     1   117.5500507 404.174400
    561   1189   1190     1   117.5500507 404.174400
    566    569    570     1   109.5600471 388.275200
    566    569    571     1   109.5600471 388.275200
    567    566    569     1   109.5600471 388.275200
    567    566    572     1   109.8800469 414.216000
    567    566    568     1   108.4600466 328.025600
    568    566    569     1   109.5600471 388.275200
    568    566    572     1   109.8800469 414.216000
    569    589    590     1   117.6800502 383.254400
    570    569    589     1   108.8800464 416.726400
    570    569    571     1   108.4600466 328.025600
    571    569    589     1   108.8800464 416.726400
    572    573    574     1   109.8800469 414.216000
    572    573    575     1   109.8800469 414.216000
    572    576    577     1   109.8800469 414.216000
    572    576    578     1   109.8800469 414.216000
    573    582    583     1   109.8000471 387.438400
    573    582    584     1   109.8000471 387.438400
    574    573    582     1   109.5600471 388.275200
    574    573    575     1   108.4600466 328.025600
    575    573    582     1   109.5600471 388.275200
    576    579    580     1   109.8000471 387.438400
    576    579    581     1   109.8000471 387.438400
    577    576    579     1   109.5600471 388.275200
    577    576    578     1   108.4600466 328.025600
    578    576    579     1   109.5600471 388.275200
    580    579    585     1   108.7700466 392.459200
    580    579    581     1   107.5800459 329.699200
    581    579    585     1   108.7700466 392.459200
    583    582    586     1   108.7700466 392.459200
    583    582    584     1   107.5800459 329.699200
    584    582    586     1   108.7700466 392.459200
    585   1214   1215     1   117.5500507 404.174400
    586   1239   1240     1   117.5500507 404.174400
    591    594    595     1   109.5600471 388.275200
    591    594    596     1   109.5600471 388.275200
    592    591    594     1   109.5600471 388.275200
    592    591    597     1   109.8800469 414.216000
    592    591    593     1   108.4600466 328.025600
    593    591    594     1   109.5600471 388.275200
    593    591    597     1   109.8800469 414.216000
    594    614    615     1   117.6800502 383.254400
    595    594    614     1   108.8800464 416.726400
    595    594    596     1   108.4600466 328.025600
    596    594    614     1   108.8800464 416.726400
    597    598    599     1   109.8800469 414.216000
    597    598    600     1   109.8800469 414.216000
    597    601    602     1   109.8800469 414.216000
    597    601    603     1   109.8800469 414.216000
    598    607    608     1   109.8000471 387.438400
    598    607    609     1   109.8000471 387.438400
    599    598    607     1   109.5600471 388.275200
    599    598    600     1   108.4600466 328.025600
    600    598    607     1   109.5600471 388.275200
    601    604    605     1   109.8000471 387.438400
    601    604    606     1   109.8000471 387.438400
    602    601    604     1   109.5600471 388.275200
    602    601    603     1   108.4600466 328.025600
    603    601    604     1   109.5600471 388.275200
    605    604    610     1   108.7700466 392.459200
    605    604    606     1   107.5800459 329.699200
    606    604    610     1   108.7700466 392.459200
    608    607    611     1   108.7700466 392.459200
    608    607    609     1   107.5800459 329.699200
    609    607    611     1   108.7700466 392.459200
    610   1264   1265     1   117.5500507 404.174400
    611   1289   1290     1   117.5500507 404.174400
    616    619    620     1   109.5600471 388.275200
    616    619    621     1   109.5600471 388.275200
    617    616    619     1   109.5600471 388.275200
    617    616    622     1   109.8800469 414.216000
    617    616    618     1   108.4600466 328.025600
    618    616    619     1   109.5600471 388.275200
    618    616    622     1   109.8800469 414.216000
    619    639    640     1   117.6800502 383.254400
    620    619    639     1   108.8800464 416.726400
    620    619    621     1   108.4600466 328.025600
    621    619    639     1   108.8800464 416.726400
    622    623    624     1   109.8800469 414.216000
    622    623    625     1   109.8800469 414.216000
    622    626    627     1   109.8800469 414.216000
    622    626    628     1   109.8800469 414.216000
    623    632    633     1   109.8000471 387.438400
    623    632    634     1   109.8000471 387.438400
    624    623    632     1   109.5600471 388.275200
    624    623    625     1   108.4600466 328.025600
    625    623    632     1   109.5600471 388.275200
    626    629    630     1   109.8000471 387.438400
    626    629    631     1   109.8000471 387.438400
    627    626    629     1   109.5600471 388.275200
    627    626    628     1   108.4600466 328.025600
    628    626    629     1   109.5600471 388.275200
    630    629    635     1   108.7700466 392.459200
    630    629    631     1   107.5800459 329.699200
    631    629    635     1   108.7700466 392.459200
    633    632    636     1   108.7700466 392.459200
    633    632    634     1   107.5800459 329.699200
    634    632    636     1   108.7700466 392.459200
    635   1314   1315     1   117.5500507 404.174400
    636   1339   1340     1   117.5500507 404.174400
    641    644    645     1   109.5600471 388.275200
    641    644    646     1   109.5600471 388.275200
    642    641    644     1   109.5600471 388.275200
    642    641    647     1   109.8800469 414.216000
    642    641    643     1   108.4600466 328.025600
    643    641    644     1   109.5600471 388.275200
    643    641    647     1   109.8800469 414.216000
    644    664    665     1   117.6800502 383.254400
    645    644    664     1   108.8800464 416.726400
    645    644    646     1   108.4600466 328.025600
    646    644    664     1   108.8800464 416.726400
    647    648    649     1   109.8800469 414.216000
    647    648    650     1   109.8800469 414.216000
    647    651    652     1   109.8800469 414.216000
    647    651    653     1   109.8800469 414.216000
    648    657    658     1   109.8000471 387.438400
    648    657    659     1   109.8000471 387.438400
    649    648    657     1   109.5600471 388.275200
    649    648    650     1   108.4600466 328.025600
    650    648    657     1   109.5600471 388.275200
    651    654    655     1   109.8000471 387.438400
    651    654    656     1   109.8000471 387.438400
    652    651    654     1   109.5600471 388.275200
    652    651    653     1   108.4600466 328.025600
    653    651    654     1   109.5600471 388.275200
    655    654    660     1   108.7700466 392.459200
    655    654    656     1   107.5800459 329.699200
    656    654    660     1   108.7700466 392.459200
    658    657    661     1   108.7700466 392.459200
    658    657    659     1   107.5800459 329.699200
    659    657    661     1   108.7700466 392.459200
    660   1364   1365     1   117.5500507 404.174400
    661   1389   1390     1   117.5500507 404.174400
    666    669    670     1   109.5600471 388.275200
    666    669    671     1   109.5600471 388.275200
    667    666    669     1   109.5600471 388.275200
    667    666    672     1   109.8800469 414.216000
    667    666    668     1   108.4600466 328.025600
    668    666    669     1   109.5600471 388.275200
    668    666    672     1   109.8800469 414.216000
    669    689    690     1   117.6800502 383.254400
    670    669    689     1   108.8800464 416.726400
    670    669    671     1   108.4600466 328.025600
    671    669    689     1   108.8800464 416.726400
    672    673    674     1   109.8800469 414.216000
    672    673    675     1   109.8800469 414.216000
    672    676    677     1   109.8800469 414.216000
    672    676    678     1   109.8800469 414.216000
    673    682    683     1   109.8000471 387.438400
    673    682    684     1   109.8000471 387.438400
    674    673    682     1   109.5600471 388.275200
    674    673    675     1   108.4600466 328.025600
    675    673    682     1   109.5600471 388.275200
    676    679    680     1   109.8000471 387.438400
    676    679    681     1   109.8000471 387.438400
    677    676    679     1   109.5600471 388.275200
    677    676    678     1   108.4600466 328.025600
    678    676    679     1   109.5600471 388.275200
    680    679    685     1   108.7700466 392.459200
    680    679    681     1   107.5800459 329.699200
    681    679    685     1   108.7700466 392.459200
    683    682    686     1   108.7700466 392.459200
    683    682    684     1   107.5800459 329.699200
    684    682    686     1   108.7700466 392.459200
    685   1414   1415     1   117.5500507 404.174400
    686   1439   1440     1   117.5500507 404.174400
    691    694    695     1   109.5600471 388.275200
    691    694    696     1   109.5600471 388.275200
    692    691    694     1   109.5600471 388.275200
    692    691    697     1   109.8800469 414.216000
    692    691    693     1   108.4600466 328.025600
    693    691    694     1   109.5600471 388.275200
    693    691    697     1   109.8800469 414.216000
    694    714    715     1   117.6800502 383.254400
    695    694    714     1   108.8800464 416.726400
    695    694    696     1   108.4600466 328.025600
    696    694    714     1   108.8800464 416.726400
    697    698    699     1   109.8800469 414.216000
    697    698    700     1   109.8800469 414.216000
    697    701    702     1   109.8800469 414.216000
    697    701    703     1   109.8800469 414.216000
    698    707    708     1   109.8000471 387.438400
    698    707    709     1   109.8000471 387.438400
    699    698    707     1   109.5600471 388.275200
    699    698    700     1   108.4600466 328.025600
    700    698    707     1   109.5600471 388.275200
    701    704    705     1   109.8000471 387.438400
    701    704    706     1   109.8000471 387.438400
    702    701    704     1   109.5600471 388.275200
    702    701    703     1   108.4600466 328.025600
    703    701    704     1   109.5600471 388.275200
    705    704    710     1   108.7700466 392.459200
    705    704    706     1   107.5800459 329.699200
    706    704    710     1   108.7700466 392.459200
    708    707    711     1   108.7700466 392.459200
    708    707    709     1   107.5800459 329.699200
    709    707    711     1   108.7700466 392.459200
    710   1464   1465     1   117.5500507 404.174400
    711   1489   1490     1   117.5500507 404.174400
    716    719    720     1   109.5600471 388.275200
    716    719    721     1   109.5600471 388.275200
    717    716    719     1   109.5600471 388.275200
    717    716    722     1   109.8800469 414.216000
    717    716    718     1   108.4600466 328.025600
    718    716    719     1   109.5600471 388.275200
    718    716    722     1   109.8800469 414.216000
    719    739    740     1   117.6800502 383.254400
    720    719    739     1   108.8800464 416.726400
    720    719    721     1   108.4600466 328.025600
    721    719    739     1   108.8800464 416.726400
    722    723    724     1   109.8800469 414.216000
    722    723    725     1   109.8800469 414.216000
    722    726    727     1   109.8800469 414.216000
    722    726    728     1   109.8800469 414.216000
    723    732    733     1   109.8000471 387.438400
    723    732    734     1   109.8000471 387.438400
    724    723    732     1   109.5600471 388.275200
    724    723    725     1   108.4600466 328.025600
    725    723    732     1   109.5600471 388.275200
    726    729    730     1   109.8000471 387.438400
    726    729    731     1   109.8000471 387.438400
    727    726    729     1   109.5600471 388.275200
    727    726    728     1   108.4600466 328.025600
    728    726    729     1   109.5600471 388.275200
    730    729    735     1   108.7700466 392.459200
    730    729    731     1   107.5800459 329.699200
    731    729    735     1   108.7700466 392.459200
    733    732    736     1   108.7700466 392.459200
    733    732    734     1   107.5800459 329.699200
    734    732    736     1   108.7700466 392.459200
    735   1514   1515     1   117.5500507 404.174400
    736   1539   1540     1   117.5500507 404.174400
    741    744    745     1   109.5600471 388.275200
    741    744    746     1   109.5600471 388.275200
    742    741    744     1   109.5600471 388.275200
    742    741    747     1   109.8800469 414.216000
    742    741    743     1   108.4600466 328.025600
    743    741    744     1   109.5600471 388.275200
    743    741    747     1   109.8800469 414.216000
    744    764    765     1   117.6800502 383.254400
    745    744    764     1   108.8800464 416.726400
    745    744    746     1   108.4600466 328.025600
    746    744    764     1   108.8800464 416.726400
    747    748    749     1   109.8800469 414.216000
    747    748    750     1   109.8800469 414.216000
    747    751    752     1   109.8800469 414.216000
    747    751    753     1   109.8800469 414.216000
    748    757    758     1   109.8000471 387.438400
    748    757    759     1   109.8000471 387.438400
    749    748    757     1   109.5600471 388.275200
    749    748    750     1   108.4600466 328.025600
    750    748    757     1   109.5600471 388.275200
    751    754    755     1   109.8000471 387.438400
    751    754    756     1   109.8000471 387.438400
    752    751    754     1   109.5600471 388.275200
    752    751    753     1   108.4600466 328.025600
    753    751    754     1   109.5600471 388.275200
    755    754    760     1   108.7700466 392.459200
    755    754    756     1   107.5800459 329.699200
    756    754    760     1   108.7700466 392.459200
    758    757    761     1   108.7700466 392.459200
    758    757    759     1   107.5800459 329.699200
    759    757    761     1   108.7700466 392.459200
    760   1564   1565     1   117.5500507 404.174400
    761   1589   1590     1   117.5500507 404.174400
    766    769    770     1   109.5600471 388.275200
    766    769    771     1   109.5600471 388.275200
    767    766    769     1   109.5600471 388.275200
    767    766    772     1   109.8800469 414.216000
    767    766    768     1   108.4600466 328.025600
    768    766    769     1   109.5600471 388.275200
    768    766    772     1   109.8800469 414.216000
    769    789    790     1   117.6800502 383.254400
    770    769    789     1   108.8800464 416.726400
    770    769    771     1   108.4600466 328.025600
    771    769    789     1   108.8800464 416.726400
    772    773    774     1   109.8800469 414.216000
    772    773    775     1   109.8800469 414.216000
    772    776    777     1   109.8800469 414.216000
    772    776    778     1   109.8800469 414.216000
    773    782    783     1   109.8000471 387.438400
    773    782    784     1   109.8000471 387.438400
    774    773    782     1   109.5600471 388.275200
    774    773    775     1   108.4600466 328.025600
    775    773    782     1   109.5600471 388.275200
    776    779    780     1   109.8000471 387.438400
    776    779    781     1   109.8000471 387.438400
    777    776    779     1   109.5600471 388.275200
    777    776    778     1   108.4600466 328.025600
    778    776    779     1   109.5600471 388.275200
    780    779    785     1   108.7700466 392.459200
    780    779    781     1   107.5800459 329.699200
    781    779    785     1   108.7700466 392.459200
    783    782    786     1   108.7700466 392.459200
    783    782    784     1   107.5800459 329.699200
    784    782    786     1   108.7700466 392.459200
    785   1614   1615     1   117.5500507 404.174400
    786   1639   1640     1   117.5500507 404.174400
    791    794    795     1   109.5600471 388.275200
    791    794    796     1   109.5600471 388.275200
    792    791    794     1   109.5600471 388.275200
    792    791    797     1   109.8800469 414.216000
    792    791    793     1   108.4600466 328.025600
    793    791    794     1   109.5600471 388.275200
    793    791    797     1   109.8800469 414.216000
    794    814    815     1   117.6800502 383.254400
    795    794    814     1   108.8800464 416.726400
    795    794    796     1   108.4600466 328.025600
    796    794    814     1   108.8800464 416.726400
    797    798    799     1   109.8800469 414.216000
    797    798    800     1   109.8800469 414.216000
    797    801    802     1   109.8800469 414.216000
    797    801    803     1   109.8800469 414.216000
    798    807    808     1   109.8000471 387.438400
    798    807    809     1   109.8000471 387.438400
    799    798    807     1   109.5600471 388.275200
    799    798    800     1   108.4600466 328.025600
    800    798    807     1   109.5600471 388.275200
    801    804    805     1   109.8000471 387.438400
    801    804    806     1   109.8000471 387.438400
    802    801    804     1   109.5600471 388.275200
    802    801    803     1   108.4600466 328.025600
    803    801    804     1   109.5600471 388.275200
    805    804    810     1   108.7700466 392.459200
    805    804    806     1   107.5800459 329.699200
    806    804    810     1   108.7700466 392.459200
    808    807    811     1   108.7700466 392.459200
    808    807    809     1   107.5800459 329.699200
    809    807    811     1   108.7700466 392.459200
    810   1664   1665     1   117.5500507 404.174400
    811   1689   1690     1   117.5500507 404.174400
    816    819    820     1   109.5600471 388.275200
    816    819    821     1   109.5600471 388.275200
    817    816    819     1   109.5600471 388.275200
    817    816    822     1   109.8800469 414.216000
    817    816    818     1   108.4600466 328.025600
    818    816    819     1   109.5600471 388.275200
    818    816    822     1   109.8800469 414.216000
    819    839    840     1   117.6800502 383.254400
    820    819    839     1   108.8800464 416.726400
    820    819    821     1   108.4600466 328.025600
    821    819    839     1   108.8800464 416.726400
    822    823    824     1   109.8800469 414.216000
    822    823    825     1   109.8800469 414.216000
    822    826    827     1   109.8800469 414.216000
    822    826    828     1   109.8800469 414.216000
    823    832    833     1   109.8000471 387.438400
    823    832    834     1   109.8000471 387.438400
    824    823    832     1   109.5600471 388.275200
    824    823    825     1   108.4600466 328.025600
    825    823    832     1   109.5600471 388.275200
    826    829    830     1   109.8000471 387.438400
    826    829    831     1   109.8000471 387.438400
    827    826    829     1   109.5600471 388.275200
    827    826    828     1   108.4600466 328.025600
    828    826    829     1   109.5600471 388.275200
    830    829    835     1   108.7700466 392.459200
    830    829    831     1   107.5800459 329.699200
    831    829    835     1   108.7700466 392.459200
    833    832    836     1   108.7700466 392.459200
    833    832    834     1   107.5800459 329.699200
    834    832    836     1   108.7700466 392.459200
    835   1714   1715     1   117.5500507 404.174400
    836   1739   1740     1   117.5500507 404.174400
    841    844    845     1   109.5600471 388.275200
    841    844    846     1   109.5600471 388.275200
    842    841    844     1   109.5600471 388.275200
    842    841    847     1   109.8800469 414.216000
    842    841    843     1   108.4600466 328.025600
    843    841    844     1   109.5600471 388.275200
    843    841    847     1   109.8800469 414.216000
    844    864    865     1   117.6800502 383.254400
    845    844    864     1   108.8800464 416.726400
    845    844    846     1   108.4600466 328.025600
    846    844    864     1   108.8800464 416.726400
    847    848    849     1   109.8800469 414.216000
    847    848    850     1   109.8800469 414.216000
    847    851    852     1   109.8800469 414.216000
    847    851    853     1   109.8800469 414.216000
    848    857    858     1   109.8000471 387.438400
    848    857    859     1   109.8000471 387.438400
    849    848    857     1   109.5600471 388.275200
    849    848    850     1   108.4600466 328.025600
    850    848    857     1   109.5600471 388.275200
    851    854    855     1   109.8000471 387.438400
    851    854    856     1   109.8000471 387.438400
    852    851    854     1   109.5600471 388.275200
    852    851    853     1   108.4600466 328.025600
    853    851    854     1   109.5600471 388.275200
    855    854    860     1   108.7700466 392.459200
    855    854    856     1   107.5800459 329.699200
    856    854    860     1   108.7700466 392.459200
    858    857    861     1   108.7700466 392.459200
    858    857    859     1   107.5800459 329.699200
    859    857    861     1   108.7700466 392.459200
    860   1764   1765     1   117.5500507 404.174400
    861   1789   1790     1   117.5500507 404.174400
    866    869    870     1   109.5600471 388.275200
    866    869    871     1   109.5600471 388.275200
    867    866    869     1   109.5600471 388.275200
    867    866    872     1   109.8800469 414.216000
    867    866    868     1   108.4600466 328.025600
    868    866    869     1   109.5600471 388.275200
    868    866    872     1   109.8800469 414.216000
    869    889    890     1   117.6800502 383.254400
    870    869    889     1   108.8800464 416.726400
    870    869    871     1   108.4600466 328.025600
    871    869    889     1   108.8800464 416.726400
    872    873    874     1   109.8800469 414.216000
    872    873    875     1   109.8800469 414.216000
    872    876    877     1   109.8800469 414.216000
    872    876    878     1   109.8800469 414.216000
    873    882    883     1   109.8000471 387.438400
    873    882    884     1   109.8000471 387.438400
    874    873    882     1   109.5600471 388.275200
    874    873    875     1   108.4600466 328.025600
    875    873    882     1   109.5600471 388.275200
    876    879    880     1   109.8000471 387.438400
    876    879    881     1   109.8000471 387.438400
    877    876    879     1   109.5600471 388.275200
    877    876    878     1   108.4600466 328.025600
    878    876    879     1   109.5600471 388.275200
    880    879    885     1   108.7700466 392.459200
    880    879    881     1   107.5800459 329.699200
    881    879    885     1   108.7700466 392.459200
    883    882    886     1   108.7700466 392.459200
    883    882    884     1   107.5800459 329.699200
    884    882    886     1   108.7700466 392.459200
    885   1814   1815     1   117.5500507 404.174400
    886   1839   1840     1   117.5500507 404.174400
    891    894    895     1   109.5600471 388.275200
    891    894    896     1   109.5600471 388.275200
    892    891    894     1   109.5600471 388.275200
    892    891    897     1   109.8800469 414.216000
    892    891    893     1   108.4600466 328.025600
    893    891    894     1   109.5600471 388.275200
    893    891    897     1   109.8800469 414.216000
    894    914    915     1   117.6800502 383.254400
    895    894    914     1   108.8800464 416.726400
    895    894    896     1   108.4600466 328.025600
    896    894    914     1   108.8800464 416.726400
    897    898    899     1   109.8800469 414.216000
    897    898    900     1   109.8800469 414.216000
    897    901    902     1   109.8800469 414.216000
    897    901    903     1   109.8800469 414.216000
    898    907    908     1   109.8000471 387.438400
    898    907    909     1   109.8000471 387.438400
    899    898    907     1   109.5600471 388.275200
    899    898    900     1   108.4600466 328.025600
    900    898    907     1   109.5600471 388.275200
    901    904    905     1   109.8000471 387.438400
    901    904    906     1   109.8000471 387.438400
    902    901    904     1   109.5600471 388.275200
    902    901    903     1   108.4600466 328.025600
    903    901    904     1   109.5600471 388.275200
    905    904    910     1   108.7700466 392.459200
    905    904    906     1   107.5800459 329.699200
    906    904    910     1   108.7700466 392.459200
    908    907    911     1   108.7700466 392.459200
    908    907    909     1   107.5800459 329.699200
    909    907    911     1   108.7700466 392.459200
    910   1864   1865     1   117.5500507 404.174400
    911   1889   1890     1   117.5500507 404.174400
    916    919    920     1   109.5600471 388.275200
    916    919    921     1   109.5600471 388.275200
    917    916    919     1   109.5600471 388.275200
    917    916    922     1   109.8800469 414.216000
    917    916    918     1   108.4600466 328.025600
    918    916    919     1   109.5600471 388.275200
    918    916    922     1   109.8800469 414.216000
    919    939    940     1   117.6800502 383.254400
    920    919    939     1   108.8800464 416.726400
    920    919    921     1   108.4600466 328.025600
    921    919    939     1   108.8800464 416.726400
    922    923    924     1   109.8800469 414.216000
    922    923    925     1   109.8800469 414.216000
    922    926    927     1   109.8800469 414.216000
    922    926    928     1   109.8800469 414.216000
    923    932    933     1   109.8000471 387.438400
    923    932    934     1   109.8000471 387.438400
    924    923    932     1   109.5600471 388.275200
    924    923    925     1   108.4600466 328.025600
    925    923    932     1   109.5600471 388.275200
    926    929    930     1   109.8000471 387.438400
    926    929    931     1   109.8000471 387.438400
    927    926    929     1   109.5600471 388.275200
    927    926    928     1   108.4600466 328.025600
    928    926    929     1   109.5600471 388.275200
    930    929    935     1   108.7700466 392.459200
    930    929    931     1   107.5800459 329.699200
    931    929    935     1   108.7700466 392.459200
    933    932    936     1   108.7700466 392.459200
    933    932    934     1   107.5800459 329.699200
    934    932    936     1   108.7700466 392.459200
    935   1914   1915     1   117.5500507 404.174400
    936   1939   1940     1   117.5500507 404.174400
    941    944    945     1   109.5600471 388.275200
    941    944    946     1   109.5600471 388.275200
    942    941    944     1   109.5600471 388.275200
    942    941    947     1   109.8800469 414.216000
    942    941    943     1   108.4600466 328.025600
    943    941    944     1   109.5600471 388.275200
    943    941    947     1   109.8800469 414.216000
    944    964    965     1   117.6800502 383.254400
    945    944    964     1   108.8800464 416.726400
    945    944    946     1   108.4600466 328.025600
    946    944    964     1   108.8800464 416.726400
    947    948    949     1   109.8800469 414.216000
    947    948    950     1   109.8800469 414.216000
    947    951    952     1   109.8800469 414.216000
    947    951    953     1   109.8800469 414.216000
    948    957    958     1   109.8000471 387.438400
    948    957    959     1   109.8000471 387.438400
    949    948    957     1   109.5600471 388.275200
    949    948    950     1   108.4600466 328.025600
    950    948    957     1   109.5600471 388.275200
    951    954    955     1   109.8000471 387.438400
    951    954    956     1   109.8000471 387.438400
    952    951    954     1   109.5600471 388.275200
    952    951    953     1   108.4600466 328.025600
    953    951    954     1   109.5600471 388.275200
    955    954    960     1   108.7700466 392.459200
    955    954    956     1   107.5800459 329.699200
    956    954    960     1   108.7700466 392.459200
    958    957    961     1   108.7700466 392.459200
    958    957    959     1   107.5800459 329.699200
    959    957    961     1   108.7700466 392.459200
    960   1964   1965     1   117.5500507 404.174400
    961   1989   1990     1   117.5500507 404.174400
    966    969    970     1   109.5600471 388.275200
    966    969    971     1   109.5600471 388.275200
    967    966    969     1   109.5600471 388.275200
    967    966    972     1   109.8800469 414.216000
    967    966    968     1   108.4600466 328.025600
    968    966    969     1   109.5600471 388.275200
    968    966    972     1   109.8800469 414.216000
    969    989    990     1   117.6800502 383.254400
    970    969    989     1   108.8800464 416.726400
    970    969    971     1   108.4600466 328.025600
    971    969    989     1   108.8800464 416.726400
    972    973    974     1   109.8800469 414.216000
    972    973    975     1   109.8800469 414.216000
    972    976    977     1   109.8800469 414.216000
    972    976    978     1   109.8800469 414.216000
    973    982    983     1   109.8000471 387.438400
    973    982    984     1   109.8000471 387.438400
    974    973    982     1   109.5600471 388.275200
    974    973    975     1   108.4600466 328.025600
    975    973    982     1   109.5600471 388.275200
    976    979    980     1   109.8000471 387.438400
    976    979    981     1   109.8000471 387.438400
    977    976    979     1   109.5600471 388.275200
    977    976    978     1   108.4600466 328.025600
    978    976    979     1   109.5600471 388.275200
    980    979    985     1   108.7700466 392.459200
    980    979    981     1   107.5800459 329.699200
    981    979    985     1   108.7700466 392.459200
    983    982    986     1   108.7700466 392.459200
    983    982    984     1   107.5800459 329.699200
    984    982    986     1   108.7700466 392.459200
    985   2014   2015     1   117.5500507 404.174400
    986   2039   2040     1   117.5500507 404.174400
    991    994    995     1   109.5600471 388.275200
    991    994    996     1   109.5600471 388.275200
    992    991    994     1   109.5600471 388.275200
    992    991    997     1   109.8800469 414.216000
    992    991    993     1   108.4600466 328.025600
    993    991    994     1   109.5600471 388.275200
    993    991    997     1   109.8800469 414.216000
    994   1014   1015     1   117.6800502 383.254400
    995    994   1014     1   108.8800464 416.726400
    995    994    996     1   108.4600466 328.025600
    996    994   1014     1   108.8800464 416.726400
    997    998    999     1   109.8800469 414.216000
    997    998   1000     1   109.8800469 414.216000
    997   1001   1002     1   109.8800469 414.216000
    997   1001   1003     1   109.8800469 414.216000
    998   1007   1008     1   109.8000471 387.438400
    998   1007   1009     1   109.8000471 387.438400
    999    998   1007     1   109.5600471 388.275200
    999    998   1000     1   108.4600466 328.025600
   1000    998   1007     1   109.5600471 388.275200
   1001   1004   1005     1   109.8000471 387.438400
   1001   1004   1006     1   109.8000471 387.438400
   1002   1001   1004     1   109.5600471 388.275200
   1002   1001   1003     1   108.4600466 328.025600
   1003   1001   1004     1   109.5600471 388.275200
   1005   1004   1010     1   108.7700466 392.459200
   1005   1004   1006     1   107.5800459 329.699200
   1006   1004   1010     1   108.7700466 392.459200
   1008   1007   1011     1   108.7700466 392.459200
   1008   1007   1009     1   107.5800459 329.699200
   1009   1007   1011     1   108.7700466 392.459200
   1010   2064   2065     1   117.5500507 404.174400
   1011   2089   2090     1   117.5500507 404.174400
   1016   1019   1020     1   109.5600471 388.275200
   1016   1019   1021     1   109.5600471 388.275200
   1017   1016   1019     1   109.5600471 388.275200
   1017   1016   1022     1   109.8800469 414.216000
   1017   1016   1018     1   108.4600466 328.025600
   1018   1016   1019     1   109.5600471 388.275200
   1018   1016   1022     1   109.8800469 414.216000
   1019   1039   1040     1   117.6800502 383.254400
   1020   1019   1039     1   108.8800464 416.726400
   1020   1019   1021     1   108.4600466 328.025600
   1021   1019   1039     1   108.8800464 416.726400
   1022   1023   1024     1   109.8800469 414.216000
   1022   1023   1025     1   109.8800469 414.216000
   1022   1026   1027     1   109.8800469 414.216000
   1022   1026   1028     1   109.8800469 414.216000
   1023   1032   1033     1   109.8000471 387.438400
   1023   1032   1034     1   109.8000471 387.438400
   1024   1023   1032     1   109.5600471 388.275200
   1024   1023   1025     1   108.4600466 328.025600
   1025   1023   1032     1   109.5600471 388.275200
   1026   1029   1030     1   109.8000471 387.438400
   1026   1029   1031     1   109.8000471 387.438400
   1027   1026   1029     1   109.5600471 388.275200
   1027   1026   1028     1   108.4600466 328.025600
   1028   1026   1029     1   109.5600471 388.275200
   1030   1029   1035     1   108.7700466 392.459200
   1030   1029   1031     1   107.5800459 329.699200
   1031   1029   1035     1   108.7700466 392.459200
   1033   1032   1036     1   108.7700466 392.459200
   1033   1032   1034     1   107.5800459 329.699200
   1034   1032   1036     1   108.7700466 392.459200
   1035   2114   2115     1   117.5500507 404.174400
   1036   2139   2140     1   117.5500507 404.174400
   1041   1044   1045     1   109.5600471 388.275200
   1041   1044   1046     1   109.5600471 388.275200
   1042   1041   1044     1   109.5600471 388.275200
   1042   1041   1047     1   109.8800469 414.216000
   1042   1041   1043     1   108.4600466 328.025600
   1043   1041   1044     1   109.5600471 388.275200
   1043   1041   1047     1   109.8800469 414.216000
   1044   1064   1065     1   117.6800502 383.254400
   1045   1044   1064     1   108.8800464 416.726400
   1045   1044   1046     1   108.4600466 328.025600
   1046   1044   1064     1   108.8800464 416.726400
   1047   1048   1049     1   109.8800469 414.216000
   1047   1048   1050     1   109.8800469 414.216000
   1047   1051   1052     1   109.8800469 414.216000
   1047   1051   1053     1   109.8800469 414.216000
   1048   1057   1058     1   109.8000471 387.438400
   1048   1057   1059     1   109.8000471 387.438400
   1049   1048   1057     1   109.5600471 388.275200
   1049   1048   1050     1   108.4600466 328.025600
   1050   1048   1057     1   109.5600471 388.275200
   1051   1054   1055     1   109.8000471 387.438400
   1051   1054   1056     1   109.8000471 387.438400
   1052   1051   1054     1   109.5600471 388.275200
   1052   1051   1053     1   108.4600466 328.025600
   1053   1051   1054     1   109.5600471 388.275200
   1055   1054   1060     1   108.7700466 392.459200
   1055   1054   1056     1   107.5800459 329.699200
   1056   1054   1060     1   108.7700466 392.459200
   1058   1057   1061     1   108.7700466 392.459200
   1058   1057   1059     1   107.5800459 329.699200
   1059   1057   1061     1   108.7700466 392.459200
   1060   2164   2165     1   117.5500507 404.174400
   1061   2189   2190     1   117.5500507 404.174400
   1066   1069   1070     1   109.5600471 388.275200
   1066   1069   1071     1   109.5600471 388.275200
   1067   1066   1069     1   109.5600471 388.275200
   1067   1066   1072     1   109.8800469 414.216000
   1067   1066   1068     1   108.4600466 328.025600
   1068   1066   1069     1   109.5600471 388.275200
   1068   1066   1072     1   109.8800469 414.216000
   1069   1089   1090     1   117.6800502 383.254400
   1070   1069   1089     1   108.8800464 416.726400
   1070   1069   1071     1   108.4600466 328.025600
   1071   1069   1089     1   108.8800464 416.726400
   1072   1073   1074     1   109.8800469 414.216000
   1072   1073   1075     1   109.8800469 414.216000
   1072   1076   1077     1   109.8800469 414.216000
   1072   1076   1078     1   109.8800469 414.216000
   1073   1082   1083     1   109.8000471 387.438400
   1073   1082   1084     1   109.8000471 387.438400
   1074   1073   1082     1   109.5600471 388.275200
   1074   1073   1075     1   108.4600466 328.025600
   1075   1073   1082     1   109.5600471 388.275200
   1076   1079   1080     1   109.8000471 387.438400
   1076   1079   1081     1   109.8000471 387.438400
   1077   1076   1079     1   109.5600471 388.275200
   1077   1076   1078     1   108.4600466 328.025600
   1078   1076   1079     1   109.5600471 388.275200
   1080   1079   1085     1   108.7700466 392.459200
   1080   1079   1081     1   107.5800459 329.699200
   1081   1079   1085     1   108.7700466 392.459200
   1083   1082   1086     1   108.7700466 392.459200
   1083   1082   1084     1   107.5800459 329.699200
   1084   1082   1086     1   108.7700466 392.459200
   1085   2214   2215     1   117.5500507 404.174400
   1086   2239   2240     1   117.5500507 404.174400
   1091   1094   1095     1   109.5600471 388.275200
   1091   1094   1096     1   109.5600471 388.275200
   1092   1091   1094     1   109.5600471 388.275200
   1092   1091   1097     1   109.8800469 414.216000
   1092   1091   1093     1   108.4600466 328.025600
   1093   1091   1094     1   109.5600471 388.275200
   1093   1091   1097     1   109.8800469 414.216000
   1094   1114   1115     1   117.6800502 383.254400
   1095   1094   1114     1   108.8800464 416.726400
   1095   1094   1096     1   108.4600466 328.025600
   1096   1094   1114     1   108.8800464 416.726400
   1097   1098   1099     1   109.8800469 414.216000
   1097   1098   1100     1   109.8800469 414.216000
   1097   1101   1102     1   109.8800469 414.216000
   1097   1101   1103     1   109.8800469 414.216000
   1098   1107   1108     1   109.8000471 387.438400
   1098   1107   1109     1   109.8000471 387.438400
   1099   1098   1107     1   109.5600471 388.275200
   1099   1098   1100     1   108.4600466 328.025600
   1100   1098   1107     1   109.5600471 388.275200
   1101   1104   1105     1   109.8000471 387.438400
   1101   1104   1106     1   109.8000471 387.438400
   1102   1101   1104     1   109.5600471 388.275200
   1102   1101   1103     1   108.4600466 328.025600
   1103   1101   1104     1   109.5600471 388.275200
   1105   1104   1110     1   108.7700466 392.459200
   1105   1104   1106     1   107.5800459 329.699200
   1106   1104   1110     1   108.7700466 392.459200
   1108   1107   1111     1   108.7700466 392.459200
   1108   1107   1109     1   107.5800459 329.699200
   1109   1107   1111     1   108.7700466 392.459200
   1110   2264   2265     1   117.5500507 404.174400
   1111   2289   2290     1   117.5500507 404.174400
   1116   1119   1120     1   109.5600471 388.275200
   1116   1119   1121     1   109.5600471 388.275200
   1117   1116   1119     1   109.5600471 388.275200
   1117   1116   1122     1   109.8800469 414.216000
   1117   1116   1118     1   108.4600466 328.025600
   1118   1116   1119     1   109.5600471 388.275200
   1118   1116   1122     1   109.8800469 414.216000
   1119   1139   1140     1   117.6800502 383.254400
   1120   1119   1139     1   108.8800464 416.726400
   1120   1119   1121     1   108.4600466 328.025600
   1121   1119   1139     1   108.8800464 416.726400
   1122   1123   1124     1   109.8800469 414.216000
   1122   1123   1125     1   109.8800469 414.216000
   1122   1126   1127     1   109.8800469 414.216000
   1122   1126   1128     1   109.8800469 414.216000
   1123   1132   1133     1   109.8000471 387.438400
   1123   1132   1134     1   109.8000471 387.438400
   1124   1123   1132     1   109.5600471 388.275200
   1124   1123   1125     1   108.4600466 328.025600
   1125   1123   1132     1   109.5600471 388.275200
   1126   1129   1130     1   109.8000471 387.438400
   1126   1129   1131     1   109.8000471 387.438400
   1127   1126   1129     1   109.5600471 388.275200
   1127   1126   1128     1   108.4600466 328.025600
   1128   1126   1129     1   109.5600471 388.275200
   1130   1129   1135     1   108.7700466 392.459200
   1130   1129   1131     1   107.5800459 329.699200
   1131   1129   1135     1   108.7700466 392.459200
   1133   1132   1136     1   108.7700466 392.459200
   1133   1132   1134     1   107.5800459 329.699200
   1134   1132   1136     1   108.7700466 392.459200
   1135   2314   2315     1   117.5500507 404.174400
   1136   2339   2340     1   117.5500507 404.174400
   1141   1144   1145     1   109.5600471 388.275200
   1141   1144   1146     1   109.5600471 388.275200
   1142   1141   1144     1   109.5600471 388.275200
   1142   1141   1147     1   109.8800469 414.216000
   1142   1141   1143     1   108.4600466 328.025600
   1143   1141   1144     1   109.5600471 388.275200
   1143   1141   1147     1   109.8800469 414.216000
   1144   1164   1165     1   117.6800502 383.254400
   1145   1144   1164     1   108.8800464 416.726400
   1145   1144   1146     1   108.4600466 328.025600
   1146   1144   1164     1   108.8800464 416.726400
   1147   1148   1149     1   109.8800469 414.216000
   1147   1148   1150     1   109.8800469 414.216000
   1147   1151   1152     1   109.8800469 414.216000
   1147   1151   1153     1   109.8800469 414.216000
   1148   1157   1158     1   109.8000471 387.438400
   1148   1157   1159     1   109.8000471 387.438400
   1149   1148   1157     1   109.5600471 388.275200
   1149   1148   1150     1   108.4600466 328.025600
   1150   1148   1157     1   109.5600471 388.275200
   1151   1154   1155     1   109.8000471 387.438400
   1151   1154   1156     1   109.8000471 387.438400
   1152   1151   1154     1   109.5600471 388.275200
   1152   1151   1153     1   108.4600466 328.025600
   1153   1151   1154     1   109.5600471 388.275200
   1155   1154   1160     1   108.7700466 392.459200
   1155   1154   1156     1   107.5800459 329.699200
   1156   1154   1160     1   108.7700466 392.459200
   1158   1157   1161     1   108.7700466 392.459200
   1158   1157   1159     1   107.5800459 329.699200
   1159   1157   1161     1   108.7700466 392.459200
   1160   2364   2365     1   117.5500507 404.174400
   1161   2389   2390     1   117.5500507 404.174400
   1166   1169   1170     1   109.5600471 388.275200
   1166   1169   1171     1   109.5600471 388.275200
   1167   1166   1169     1   109.5600471 388.275200
   1167   1166   1172     1   109.8800469 414.216000
   1167   1166   1168     1   108.4600466 328.025600
   1168   1166   1169     1   109.5600471 388.275200
   1168   1166   1172     1   109.8800469 414.216000
   1169   1189   1190     1   117.6800502 383.254400
   1170   1169   1189     1   108.8800464 416.726400
   1170   1169   1171     1   108.4600466 328.025600
   1171   1169   1189     1   108.8800464 416.726400
   1172   1173   1174     1   109.8800469 414.216000
   1172   1173   1175     1   109.8800469 414.216000
   1172   1176   1177     1   109.8800469 414.216000
   1172   1176   1178     1   109.8800469 414.216000
   1173   1182   1183     1   109.8000471 387.438400
   1173   1182   1184     1   109.8000471 387.438400
   1174   1173   1182     1   109.5600471 388.275200
   1174   1173   1175     1   108.4600466 328.025600
   1175   1173   1182     1   109.5600471 388.275200
   1176   1179   1180     1   109.8000471 387.438400
   1176   1179   1181     1   109.8000471 387.438400
   1177   1176   1179     1   109.5600471 388.275200
   1177   1176   1178     1   108.4600466 328.025600
   1178   1176   1179     1   109.5600471 388.275200
   1180   1179   1185     1   108.7700466 392.459200
   1180   1179   1181     1   107.5800459 329.699200
   1181   1179   1185     1   108.7700466 392.459200
   1183   1182   1186     1   108.7700466 392.459200
   1183   1182   1184     1   107.5800459 329.699200
   1184   1182   1186     1   108.7700466 392.459200
   1185   2414   2415     1   117.5500507 404.174400
   1186   2439   2440     1   117.5500507 404.174400
   1191   1194   1195     1   109.5600471 388.275200
   1191   1194   1196     1   109.5600471 388.275200
   1192   1191   1194     1   109.5600471 388.275200
   1192   1191   1197     1   109.8800469 414.216000
   1192   1191   1193     1   108.4600466 328.025600
   1193   1191   1194     1   109.5600471 388.275200
   1193   1191   1197     1   109.8800469 414.216000
   1194   1214   1215     1   117.6800502 383.254400
   1195   1194   1214     1   108.8800464 416.726400
   1195   1194   1196     1   108.4600466 328.025600
   1196   1194   1214     1   108.8800464 416.726400
   1197   1198   1199     1   109.8800469 414.216000
   1197   1198   1200     1   109.8800469 414.216000
   1197   1201   1202     1   109.8800469 414.216000
   1197   1201   1203     1   109.8800469 414.216000
   1198   1207   1208     1   109.8000471 387.438400
   1198   1207   1209     1   109.8000471 387.438400
   1199   1198   1207     1   109.5600471 388.275200
   1199   1198   1200     1   108.4600466 328.025600
   1200   1198   1207     1   109.5600471 388.275200
   1201   1204   1205     1   109.8000471 387.438400
   1201   1204   1206     1   109.8000471 387.438400
   1202   1201   1204     1   109.5600471 388.275200
   1202   1201   1203     1   108.4600466 328.025600
   1203   1201   1204     1   109.5600471 388.275200
   1205   1204   1210     1   108.7700466 392.459200
   1205   1204   1206     1   107.5800459 329.699200
   1206   1204   1210     1   108.7700466 392.459200
   1208   1207   1211     1   108.7700466 392.459200
   1208   1207   1209     1   107.5800459 329.699200
   1209   1207   1211     1   108.7700466 392.459200
   1210   2464   2465     1   117.5500507 404.174400
   1211   2489   2490     1   117.5500507 404.174400
   1216   1219   1220     1   109.5600471 388.275200
   1216   1219   1221     1   109.5600471 388.275200
   1217   1216   1219     1   109.5600471 388.275200
   1217   1216   1222     1   109.8800469 414.216000
   1217   1216   1218     1   108.4600466 328.025600
   1218   1216   1219     1   109.5600471 388.275200
   1218   1216   1222     1   109.8800469 414.216000
   1219   1239   1240     1   117.6800502 383.254400
   1220   1219   1239     1   108.8800464 416.726400
   1220   1219   1221     1   108.4600466 328.025600
   1221   1219   1239     1   108.8800464 416.726400
   1222   1223   1224     1   109.8800469 414.216000
   1222   1223   1225     1   109.8800469 414.216000
   1222   1226   1227     1   109.8800469 414.216000
   1222   1226   1228     1   109.8800469 414.216000
   1223   1232   1233     1   109.8000471 387.438400
   1223   1232   1234     1   109.8000471 387.438400
   1224   1223   1232     1   109.5600471 388.275200
   1224   1223   1225     1   108.4600466 328.025600
   1225   1223   1232     1   109.5600471 388.275200
   1226   1229   1230     1   109.8000471 387.438400
   1226   1229   1231     1   109.8000471 387.438400
   1227   1226   1229     1   109.5600471 388.275200
   1227   1226   1228     1   108.4600466 328.025600
   1228   1226   1229     1   109.5600471 388.275200
   1230   1229   1235     1   108.7700466 392.459200
   1230   1229   1231     1   107.5800459 329.699200
   1231   1229   1235     1   108.7700466 392.459200
   1233   1232   1236     1   108.7700466 392.459200
   1233   1232   1234     1   107.5800459 329.699200
   1234   1232   1236     1   108.7700466 392.459200
   1235   2514   2515     1   117.5500507 404.174400
   1236   2539   2540     1   117.5500507 404.174400
   1241   1244   1245     1   109.5600471 388.275200
   1241   1244   1246     1   109.5600471 388.275200
   1242   1241   1244     1   109.5600471 388.275200
   1242   1241   1247     1   109.8800469 414.216000
   1242   1241   1243     1   108.4600466 328.025600
   1243   1241   1244     1   109.5600471 388.275200
   1243   1241   1247     1   109.8800469 414.216000
   1244   1264   1265     1   117.6800502 383.254400
   1245   1244   1264     1   108.8800464 416.726400
   1245   1244   1246     1   108.4600466 328.025600
   1246   1244   1264     1   108.8800464 416.726400
   1247   1248   1249     1   109.8800469 414.216000
   1247   1248   1250     1   109.8800469 414.216000
   1247   1251   1252     1   109.8800469 414.216000
   1247   1251   1253     1   109.8800469 414.216000
   1248   1257   1258     1   109.8000471 387.438400
   1248   1257   1259     1   109.8000471 387.438400
   1249   1248   1257     1   109.5600471 388.275200
   1249   1248   1250     1   108.4600466 328.025600
   1250   1248   1257     1   109.5600471 388.275200
   1251   1254   1255     1   109.8000471 387.438400
   1251   1254   1256     1   109.8000471 387.438400
   1252   1251   1254     1   109.5600471 388.275200
   1252   1251   1253     1   108.4600466 328.025600
   1253   1251   1254     1   109.5600471 388.275200
   1255   1254   1260     1   108.7700466 392.459200
   1255   1254   1256     1   107.5800459 329.699200
   1256   1254   1260     1   108.7700466 392.459200
   1258   1257   1261     1   108.7700466 392.459200
   1258   1257   1259     1   107.5800459 329.699200
   1259   1257   1261     1   108.7700466 392.459200
   1260   2564   2565     1   117.5500507 404.174400
   1261   2589   2590     1   117.5500507 404.174400
   1266   1269   1270     1   109.5600471 388.275200
   1266   1269   1271     1   109.5600471 388.275200
   1267   1266   1269     1   109.5600471 388.275200
   1267   1266   1272     1   109.8800469 414.216000
   1267   1266   1268     1   108.4600466 328.025600
   1268   1266   1269     1   109.5600471 388.275200
   1268   1266   1272     1   109.8800469 414.216000
   1269   1289   1290     1   117.6800502 383.254400
   1270   1269   1289     1   108.8800464 416.726400
   1270   1269   1271     1   108.4600466 328.025600
   1271   1269   1289     1   108.8800464 416.726400
   1272   1273   1274     1   109.8800469 414.216000
   1272   1273   1275     1   109.8800469 414.216000
   1272   1276   1277     1   109.8800469 414.216000
   1272   1276   1278     1   109.8800469 414.216000
   1273   1282   1283     1   109.8000471 387.438400
   1273   1282   1284     1   109.8000471 387.438400
   1274   1273   1282     1   109.5600471 388.275200
   1274   1273   1275     1   108.4600466 328.025600
   1275   1273   1282     1   109.5600471 388.275200
   1276   1279   1280     1   109.8000471 387.438400
   1276   1279   1281     1   109.8000471 387.438400
   1277   1276   1279     1   109.5600471 388.275200
   1277   1276   1278     1   108.4600466 328.025600
   1278   1276   1279     1   109.5600471 388.275200
   1280   1279   1285     1   108.7700466 392.459200
   1280   1279   1281     1   107.5800459 329.699200
   1281   1279   1285     1   108.7700466 392.459200
   1283   1282   1286     1   108.7700466 392.459200
   1283   1282   1284     1   107.5800459 329.699200
   1284   1282   1286     1   108.7700466 392.459200
   1285   2614   2615     1   117.5500507 404.174400
   1286   2639   2640     1   117.5500507 404.174400
   1291   1294   1295     1   109.5600471 388.275200
   1291   1294   1296     1   109.5600471 388.275200
   1292   1291   1294     1   109.5600471 388.275200
   1292   1291   1297     1   109.8800469 414.216000
   1292   1291   1293     1   108.4600466 328.025600
   1293   1291   1294     1   109.5600471 388.275200
   1293   1291   1297     1   109.8800469 414.216000
   1294   1314   1315     1   117.6800502 383.254400
   1295   1294   1314     1   108.8800464 416.726400
   1295   1294   1296     1   108.4600466 328.025600
   1296   1294   1314     1   108.8800464 416.726400
   1297   1298   1299     1   109.8800469 414.216000
   1297   1298   1300     1   109.8800469 414.216000
   1297   1301   1302     1   109.8800469 414.216000
   1297   1301   1303     1   109.8800469 414.216000
   1298   1307   1308     1   109.8000471 387.438400
   1298   1307   1309     1   109.8000471 387.438400
   1299   1298   1307     1   109.5600471 388.275200
   1299   1298   1300     1   108.4600466 328.025600
   1300   1298   1307     1   109.5600471 388.275200
   1301   1304   1305     1   109.8000471 387.438400
   1301   1304   1306     1   109.8000471 387.438400
   1302   1301   1304     1   109.5600471 388.275200
   1302   1301   1303     1   108.4600466 328.025600
   1303   1301   1304     1   109.5600471 388.275200
   1305   1304   1310     1   108.7700466 392.459200
   1305   1304   1306     1   107.5800459 329.699200
   1306   1304   1310     1   108.7700466 392.459200
   1308   1307   1311     1   108.7700466 392.459200
   1308   1307   1309     1   107.5800459 329.699200
   1309   1307   1311     1   108.7700466 392.459200
   1310   2664   2665     1   117.5500507 404.174400
   1311   2689   2690     1   117.5500507 404.174400
   1316   1319   1320     1   109.5600471 388.275200
   1316   1319   1321     1   109.5600471 388.275200
   1317   1316   1319     1   109.5600471 388.275200
   1317   1316   1322     1   109.8800469 414.216000
   1317   1316   1318     1   108.4600466 328.025600
   1318   1316   1319     1   109.5600471 388.275200
   1318   1316   1322     1   109.8800469 414.216000
   1319   1339   1340     1   117.6800502 383.254400
   1320   1319   1339     1   108.8800464 416.726400
   1320   1319   1321     1   108.4600466 328.025600
   1321   1319   1339     1   108.8800464 416.726400
   1322   1323   1324     1   109.8800469 414.216000
   1322   1323   1325     1   109.8800469 414.216000
   1322   1326   1327     1   109.8800469 414.216000
   1322   1326   1328     1   109.8800469 414.216000
   1323   1332   1333     1   109.8000471 387.438400
   1323   1332   1334     1   109.8000471 387.438400
   1324   1323   1332     1   109.5600471 388.275200
   1324   1323   1325     1   108.4600466 328.025600
   1325   1323   1332     1   109.5600471 388.275200
   1326   1329   1330     1   109.8000471 387.438400
   1326   1329   1331     1   109.8000471 387.438400
   1327   1326   1329     1   109.5600471 388.275200
   1327   1326   1328     1   108.4600466 328.025600
   1328   1326   1329     1   109.5600471 388.275200
   1330   1329   1335     1   108.7700466 392.459200
   1330   1329   1331     1   107.5800459 329.699200
   1331   1329   1335     1   108.7700466 392.459200
   1333   1332   1336     1   108.7700466 392.459200
   1333   1332   1334     1   107.5800459 329.699200
   1334   1332   1336     1   108.7700466 392.459200
   1335   2714   2715     1   117.5500507 404.174400
   1336   2739   2740     1   117.5500507 404.174400
   1341   1344   1345     1   109.5600471 388.275200
   1341   1344   1346     1   109.5600471 388.275200
   1342   1341   1344     1   109.5600471 388.275200
   1342   1341   1347     1   109.8800469 414.216000
   1342   1341   1343     1   108.4600466 328.025600
   1343   1341   1344     1   109.5600471 388.275200
   1343   1341   1347     1   109.8800469 414.216000
   1344   1364   1365     1   117.6800502 383.254400
   1345   1344   1364     1   108.8800464 416.726400
   1345   1344   1346     1   108.4600466 328.025600
   1346   1344   1364     1   108.8800464 416.726400
   1347   1348   1349     1   109.8800469 414.216000
   1347   1348   1350     1   109.8800469 414.216000
   1347   1351   1352     1   109.8800469 414.216000
   1347   1351   1353     1   109.8800469 414.216000
   1348   1357   1358     1   109.8000471 387.438400
   1348   1357   1359     1   109.8000471 387.438400
   1349   1348   1357     1   109.5600471 388.275200
   1349   1348   1350     1   108.4600466 328.025600
   1350   1348   1357     1   109.5600471 388.275200
   1351   1354   1355     1   109.8000471 387.438400
   1351   1354   1356     1   109.8000471 387.438400
   1352   1351   1354     1   109.5600471 388.275200
   1352   1351   1353     1   108.4600466 328.025600
   1353   1351   1354     1   109.5600471 388.275200
   1355   1354   1360     1   108.7700466 392.459200
   1355   1354   1356     1   107.5800459 329.699200
   1356   1354   1360     1   108.7700466 392.459200
   1358   1357   1361     1   108.7700466 392.459200
   1358   1357   1359     1   107.5800459 329.699200
   1359   1357   1361     1   108.7700466 392.459200
   1360   2764   2765     1   117.5500507 404.174400
   1361   2789   2790     1   117.5500507 404.174400
   1366   1369   1370     1   109.5600471 388.275200
   1366   1369   1371     1   109.5600471 388.275200
   1367   1366   1369     1   109.5600471 388.275200
   1367   1366   1372     1   109.8800469 414.216000
   1367   1366   1368     1   108.4600466 328.025600
   1368   1366   1369     1   109.5600471 388.275200
   1368   1366   1372     1   109.8800469 414.216000
   1369   1389   1390     1   117.6800502 383.254400
   1370   1369   1389     1   108.8800464 416.726400
   1370   1369   1371     1   108.4600466 328.025600
   1371   1369   1389     1   108.8800464 416.726400
   1372   1373   1374     1   109.8800469 414.216000
   1372   1373   1375     1   109.8800469 414.216000
   1372   1376   1377     1   109.8800469 414.216000
   1372   1376   1378     1   109.8800469 414.216000
   1373   1382   1383     1   109.8000471 387.438400
   1373   1382   1384     1   109.8000471 387.438400
   1374   1373   1382     1   109.5600471 388.275200
   1374   1373   1375     1   108.4600466 328.025600
   1375   1373   1382     1   109.5600471 388.275200
   1376   1379   1380     1   109.8000471 387.438400
   1376   1379   1381     1   109.8000471 387.438400
   1377   1376   1379     1   109.5600471 388.275200
   1377   1376   1378     1   108.4600466 328.025600
   1378   1376   1379     1   109.5600471 388.275200
   1380   1379   1385     1   108.7700466 392.459200
   1380   1379   1381     1   107.5800459 329.699200
   1381   1379   1385     1   108.7700466 392.459200
   1383   1382   1386     1   108.7700466 392.459200
   1383   1382   1384     1   107.5800459 329.699200
   1384   1382   1386     1   108.7700466 392.459200
   1385   2814   2815     1   117.5500507 404.174400
   1386   2839   2840     1   117.5500507 404.174400
   1391   1394   1395     1   109.5600471 388.275200
   1391   1394   1396     1   109.5600471 388.275200
   1392   1391   1394     1   109.5600471 388.275200
   1392   1391   1397     1   109.8800469 414.216000
   1392   1391   1393     1   108.4600466 328.025600
   1393   1391   1394     1   109.5600471 388.275200
   1393   1391   1397     1   109.8800469 414.216000
   1394   1414   1415     1   117.6800502 383.254400
   1395   1394   1414     1   108.8800464 416.726400
   1395   1394   1396     1   108.4600466 328.025600
   1396   1394   1414     1   108.8800464 416.726400
   1397   1398   1399     1   109.8800469 414.216000
   1397   1398   1400     1   109.8800469 414.216000
   1397   1401   1402     1   109.8800469 414.216000
   1397   1401   1403     1   109.8800469 414.216000
   1398   1407   1408     1   109.8000471 387.438400
   1398   1407   1409     1   109.8000471 387.438400
   1399   1398   1407     1   109.5600471 388.275200
   1399   1398   1400     1   108.4600466 328.025600
   1400   1398   1407     1   109.5600471 388.275200
   1401   1404   1405     1   109.8000471 387.438400
   1401   1404   1406     1   109.8000471 387.438400
   1402   1401   1404     1   109.5600471 388.275200
   1402   1401   1403     1   108.4600466 328.025600
   1403   1401   1404     1   109.5600471 388.275200
   1405   1404   1410     1   108.7700466 392.459200
   1405   1404   1406     1   107.5800459 329.699200
   1406   1404   1410     1   108.7700466 392.459200
   1408   1407   1411     1   108.7700466 392.459200
   1408   1407   1409     1   107.5800459 329.699200
   1409   1407   1411     1   108.7700466 392.459200
   1410   2864   2865     1   117.5500507 404.174400
   1411   2889   2890     1   117.5500507 404.174400
   1416   1419   1420     1   109.5600471 388.275200
   1416   1419   1421     1   109.5600471 388.275200
   1417   1416   1419     1   109.5600471 388.275200
   1417   1416   1422     1   109.8800469 414.216000
   1417   1416   1418     1   108.4600466 328.025600
   1418   1416   1419     1   109.5600471 388.275200
   1418   1416   1422     1   109.8800469 414.216000
   1419   1439   1440     1   117.6800502 383.254400
   1420   1419   1439     1   108.8800464 416.726400
   1420   1419   1421     1   108.4600466 328.025600
   1421   1419   1439     1   108.8800464 416.726400
   1422   1423   1424     1   109.8800469 414.216000
   1422   1423   1425     1   109.8800469 414.216000
   1422   1426   1427     1   109.8800469 414.216000
   1422   1426   1428     1   109.8800469 414.216000
   1423   1432   1433     1   109.8000471 387.438400
   1423   1432   1434     1   109.8000471 387.438400
   1424   1423   1432     1   109.5600471 388.275200
   1424   1423   1425     1   108.4600466 328.025600
   1425   1423   1432     1   109.5600471 388.275200
   1426   1429   1430     1   109.8000471 387.438400
   1426   1429   1431     1   109.8000471 387.438400
   1427   1426   1429     1   109.5600471 388.275200
   1427   1426   1428     1   108.4600466 328.025600
   1428   1426   1429     1   109.5600471 388.275200
   1430   1429   1435     1   108.7700466 392.459200
   1430   1429   1431     1   107.5800459 329.699200
   1431   1429   1435     1   108.7700466 392.459200
   1433   1432   1436     1   108.7700466 392.459200
   1433   1432   1434     1   107.5800459 329.699200
   1434   1432   1436     1   108.7700466 392.459200
   1435   2914   2915     1   117.5500507 404.174400
   1436   2939   2940     1   117.5500507 404.174400
   1441   1444   1445     1   109.5600471 388.275200
   1441   1444   1446     1   109.5600471 388.275200
   1442   1441   1444     1   109.5600471 388.275200
   1442   1441   1447     1   109.8800469 414.216000
   1442   1441   1443     1   108.4600466 328.025600
   1443   1441   1444     1   109.5600471 388.275200
   1443   1441   1447     1   109.8800469 414.216000
   1444   1464   1465     1   117.6800502 383.254400
   1445   1444   1464     1   108.8800464 416.726400
   1445   1444   1446     1   108.4600466 328.025600
   1446   1444   1464     1   108.8800464 416.726400
   1447   1448   1449     1   109.8800469 414.216000
   1447   1448   1450     1   109.8800469 414.216000
   1447   1451   1452     1   109.8800469 414.216000
   1447   1451   1453     1   109.8800469 414.216000
   1448   1457   1458     1   109.8000471 387.438400
   1448   1457   1459     1   109.8000471 387.438400
   1449   1448   1457     1   109.5600471 388.275200
   1449   1448   1450     1   108.4600466 328.025600
   1450   1448   1457     1   109.5600471 388.275200
   1451   1454   1455     1   109.8000471 387.438400
   1451   1454   1456     1   109.8000471 387.438400
   1452   1451   1454     1   109.5600471 388.275200
   1452   1451   1453     1   108.4600466 328.025600
   1453   1451   1454     1   109.5600471 388.275200
   1455   1454   1460     1   108.7700466 392.459200
   1455   1454   1456     1   107.5800459 329.699200
   1456   1454   1460     1   108.7700466 392.459200
   1458   1457   1461     1   108.7700466 392.459200
   1458   1457   1459     1   107.5800459 329.699200
   1459   1457   1461     1   108.7700466 392.459200
   1460   2964   2965     1   117.5500507 404.174400
   1461   2989   2990     1   117.5500507 404.174400
   1466   1469   1470     1   109.5600471 388.275200
   1466   1469   1471     1   109.5600471 388.275200
   1467   1466   1469     1   109.5600471 388.275200
   1467   1466   1472     1   109.8800469 414.216000
   1467   1466   1468     1   108.4600466 328.025600
   1468   1466   1469     1   109.5600471 388.275200
   1468   1466   1472     1   109.8800469 414.216000
   1469   1489   1490     1   117.6800502 383.254400
   1470   1469   1489     1   108.8800464 416.726400
   1470   1469   1471     1   108.4600466 328.025600
   1471   1469   1489     1   108.8800464 416.726400
   1472   1473   1474     1   109.8800469 414.216000
   1472   1473   1475     1   109.8800469 414.216000
   1472   1476   1477     1   109.8800469 414.216000
   1472   1476   1478     1   109.8800469 414.216000
   1473   1482   1483     1   109.8000471 387.438400
   1473   1482   1484     1   109.8000471 387.438400
   1474   1473   1482     1   109.5600471 388.275200
   1474   1473   1475     1   108.4600466 328.025600
   1475   1473   1482     1   109.5600471 388.275200
   1476   1479   1480     1   109.8000471 387.438400
   1476   1479   1481     1   109.8000471 387.438400
   1477   1476   1479     1   109.5600471 388.275200
   1477   1476   1478     1   108.4600466 328.025600
   1478   1476   1479     1   109.5600471 388.275200
   1480   1479   1485     1   108.7700466 392.459200
   1480   1479   1481     1   107.5800459 329.699200
   1481   1479   1485     1   108.7700466 392.459200
   1483   1482   1486     1   108.7700466 392.459200
   1483   1482   1484     1   107.5800459 329.699200
   1484   1482   1486     1   108.7700466 392.459200
   1485   3014   3015     1   117.5500507 404.174400
   1486   3039   3040     1   117.5500507 404.174400
   1491   1494   1495     1   109.5600471 388.275200
   1491   1494   1496     1   109.5600471 388.275200
   1492   1491   1494     1   109.5600471 388.275200
   1492   1491   1497     1   109.8800469 414.216000
   1492   1491   1493     1   108.4600466 328.025600
   1493   1491   1494     1   109.5600471 388.275200
   1493   1491   1497     1   109.8800469 414.216000
   1494   1514   1515     1   117.6800502 383.254400
   1495   1494   1514     1   108.8800464 416.726400
   1495   1494   1496     1   108.4600466 328.025600
   1496   1494   1514     1   108.8800464 416.726400
   1497   1498   1499     1   109.8800469 414.216000
   1497   1498   1500     1   109.8800469 414.216000
   1497   1501   1502     1   109.8800469 414.216000
   1497   1501   1503     1   109.8800469 414.216000
   1498   1507   1508     1   109.8000471 387.438400
   1498   1507   1509     1   109.8000471 387.438400
   1499   1498   1507     1   109.5600471 388.275200
   1499   1498   1500     1   108.4600466 328.025600
   1500   1498   1507     1   109.5600471 388.275200
   1501   1504   1505     1   109.8000471 387.438400
   1501   1504   1506     1   109.8000471 387.438400
   1502   1501   1504     1   109.5600471 388.275200
   1502   1501   1503     1   108.4600466 328.025600
   1503   1501   1504     1   109.5600471 388.275200
   1505   1504   1510     1   108.7700466 392.459200
   1505   1504   1506     1   107.5800459 329.699200
   1506   1504   1510     1   108.7700466 392.459200
   1508   1507   1511     1   108.7700466 392.459200
   1508   1507   1509     1   107.5800459 329.699200
   1509   1507   1511     1   108.7700466 392.459200
   1510   3064   3065     1   117.5500507 404.174400
   1511   3089   3090     1   117.5500507 404.174400
   1516   1519   1520     1   109.5600471 388.275200
   1516   1519   1521     1   109.5600471 388.275200
   1517   1516   1519     1   109.5600471 388.275200
   1517   1516   1522     1   109.8800469 414.216000
   1517   1516   1518     1   108.4600466 328.025600
   1518   1516   1519     1   109.5600471 388.275200
   1518   1516   1522     1   109.8800469 414.216000
   1519   1539   1540     1   117.6800502 383.254400
   1520   1519   1539     1   108.8800464 416.726400
   1520   1519   1521     1   108.4600466 328.025600
   1521   1519   1539     1   108.8800464 416.726400
   1522   1523   1524     1   109.8800469 414.216000
   1522   1523   1525     1   109.8800469 414.216000
   1522   1526   1527     1   109.8800469 414.216000
   1522   1526   1528     1   109.8800469 414.216000
   1523   1532   1533     1   109.8000471 387.438400
   1523   1532   1534     1   109.8000471 387.438400
   1524   1523   1532     1   109.5600471 388.275200
   1524   1523   1525     1   108.4600466 328.025600
   1525   1523   1532     1   109.5600471 388.275200
   1526   1529   1530     1   109.8000471 387.438400
   1526   1529   1531     1   109.8000471 387.438400
   1527   1526   1529     1   109.5600471 388.275200
   1527   1526   1528     1   108.4600466 328.025600
   1528   1526   1529     1   109.5600471 388.275200
   1530   1529   1535     1   108.7700466 392.459200
   1530   1529   1531     1   107.5800459 329.699200
   1531   1529   1535     1   108.7700466 392.459200
   1533   1532   1536     1   108.7700466 392.459200
   1533   1532   1534     1   107.5800459 329.699200
   1534   1532   1536     1   108.7700466 392.459200
   1535   3114   3115     1   117.5500507 404.174400
   1536   3139   3140     1   117.5500507 404.174400
   1541   1544   1545     1   109.5600471 388.275200
   1541   1544   1546     1   109.5600471 388.275200
   1542   1541   1544     1   109.5600471 388.275200
   1542   1541   1547     1   109.8800469 414.216000
   1542   1541   1543     1   108.4600466 328.025600
   1543   1541   1544     1   109.5600471 388.275200
   1543   1541   1547     1   109.8800469 414.216000
   1544   1564   1565     1   117.6800502 383.254400
   1545   1544   1564     1   108.8800464 416.726400
   1545   1544   1546     1   108.4600466 328.025600
   1546   1544   1564     1   108.8800464 416.726400
   1547   1548   1549     1   109.8800469 414.216000
   1547   1548   1550     1   109.8800469 414.216000
   1547   1551   1552     1   109.8800469 414.216000
   1547   1551   1553     1   109.8800469 414.216000
   1548   1557   1558     1   109.8000471 387.438400
   1548   1557   1559     1   109.8000471 387.438400
   1549   1548   1557     1   109.5600471 388.275200
   1549   1548   1550     1   108.4600466 328.025600
   1550   1548   1557     1   109.5600471 388.275200
   1551   1554   1555     1   109.8000471 387.438400
   1551   1554   1556     1   109.8000471 387.438400
   1552   1551   1554     1   109.5600471 388.275200
   1552   1551   1553     1   108.4600466 328.025600
   1553   1551   1554     1   109.5600471 388.275200
   1555   1554   1560     1   108.7700466 392.459200
   1555   1554   1556     1   107.5800459 329.699200
   1556   1554   1560     1   108.7700466 392.459200
   1558   1557   1561     1   108.7700466 392.459200
   1558   1557   1559     1   107.5800459 329.699200
   1559   1557   1561     1   108.7700466 392.459200
   1560   3141   3142     1   117.5500507 404.174400
   1561   3153   3154     1   117.5500507 404.174400
   1566   1569   1570     1   109.5600471 388.275200
   1566   1569   1571     1   109.5600471 388.275200
   1567   1566   1569     1   109.5600471 388.275200
   1567   1566   1572     1   109.8800469 414.216000
   1567   1566   1568     1   108.4600466 328.025600
   1568   1566   1569     1   109.5600471 388.275200
   1568   1566   1572     1   109.8800469 414.216000
   1569   1589   1590     1   117.6800502 383.254400
   1570   1569   1589     1   108.8800464 416.726400
   1570   1569   1571     1   108.4600466 328.025600
   1571   1569   1589     1   108.8800464 416.726400
   1572   1573   1574     1   109.8800469 414.216000
   1572   1573   1575     1   109.8800469 414.216000
   1572   1576   1577     1   109.8800469 414.216000
   1572   1576   1578     1   109.8800469 414.216000
   1573   1582   1583     1   109.8000471 387.438400
   1573   1582   1584     1   109.8000471 387.438400
   1574   1573   1582     1   109.5600471 388.275200
   1574   1573   1575     1   108.4600466 328.025600
   1575   1573   1582     1   109.5600471 388.275200
   1576   1579   1580     1   109.8000471 387.438400
   1576   1579   1581     1   109.8000471 387.438400
   1577   1576   1579     1   109.5600471 388.275200
   1577   1576   1578     1   108.4600466 328.025600
   1578   1576   1579     1   109.5600471 388.275200
   1580   1579   1585     1   108.7700466 392.459200
   1580   1579   1581     1   107.5800459 329.699200
   1581   1579   1585     1   108.7700466 392.459200
   1583   1582   1586     1   108.7700466 392.459200
   1583   1582   1584     1   107.5800459 329.699200
   1584   1582   1586     1   108.7700466 392.459200
   1585   3165   3166     1   117.5500507 404.174400
   1586   3177   3178     1   117.5500507 404.174400
   1591   1594   1595     1   109.5600471 388.275200
   1591   1594   1596     1   109.5600471 388.275200
   1592   1591   1594     1   109.5600471 388.275200
   1592   1591   1597     1   109.8800469 414.216000
   1592   1591   1593     1   108.4600466 328.025600
   1593   1591   1594     1   109.5600471 388.275200
   1593   1591   1597     1   109.8800469 414.216000
   1594   1614   1615     1   117.6800502 383.254400
   1595   1594   1614     1   108.8800464 416.726400
   1595   1594   1596     1   108.4600466 328.025600
   1596   1594   1614     1   108.8800464 416.726400
   1597   1598   1599     1   109.8800469 414.216000
   1597   1598   1600     1   109.8800469 414.216000
   1597   1601   1602     1   109.8800469 414.216000
   1597   1601   1603     1   109.8800469 414.216000
   1598   1607   1608     1   109.8000471 387.438400
   1598   1607   1609     1   109.8000471 387.438400
   1599   1598   1607     1   109.5600471 388.275200
   1599   1598   1600     1   108.4600466 328.025600
   1600   1598   1607     1   109.5600471 388.275200
   1601   1604   1605     1   109.8000471 387.438400
   1601   1604   1606     1   109.8000471 387.438400
   1602   1601   1604     1   109.5600471 388.275200
   1602   1601   1603     1   108.4600466 328.025600
   1603   1601   1604     1   109.5600471 388.275200
   1605   1604   1610     1   108.7700466 392.459200
   1605   1604   1606     1   107.5800459 329.699200
   1606   1604   1610     1   108.7700466 392.459200
   1608   1607   1611     1   108.7700466 392.459200
   1608   1607   1609     1   107.5800459 329.699200
   1609   1607   1611     1   108.7700466 392.459200
   1610   3189   3190     1   117.5500507 404.174400
   1611   3201   3202     1   117.5500507 404.174400
   1616   1619   1620     1   109.5600471 388.275200
   1616   1619   1621     1   109.5600471 388.275200
   1617   1616   1619     1   109.5600471 388.275200
   1617   1616   1622     1   109.8800469 414.216000
   1617   1616   1618     1   108.4600466 328.025600
   1618   1616   1619     1   109.5600471 388.275200
   1618   1616   1622     1   109.8800469 414.216000
   1619   1639   1640     1   117.6800502 383.254400
   1620   1619   1639     1   108.8800464 416.726400
   1620   1619   1621     1   108.4600466 328.025600
   1621   1619   1639     1   108.8800464 416.726400
   1622   1623   1624     1   109.8800469 414.216000
   1622   1623   1625     1   109.8800469 414.216000
   1622   1626   1627     1   109.8800469 414.216000
   1622   1626   1628     1   109.8800469 414.216000
   1623   1632   1633     1   109.8000471 387.438400
   1623   1632   1634     1   109.8000471 387.438400
   1624   1623   1632     1   109.5600471 388.275200
   1624   1623   1625     1   108.4600466 328.025600
   1625   1623   1632     1   109.5600471 388.275200
   1626   1629   1630     1   109.8000471 387.438400
   1626   1629   1631     1   109.8000471 387.438400
   1627   1626   1629     1   109.5600471 388.275200
   1627   1626   1628     1   108.4600466 328.025600
   1628   1626   1629     1   109.5600471 388.275200
   1630   1629   1635     1   108.7700466 392.459200
   1630   1629   1631     1   107.5800459 329.699200
   1631   1629   1635     1   108.7700466 392.459200
   1633   1632   1636     1   108.7700466 392.459200
   1633   1632   1634     1   107.5800459 329.699200
   1634   1632   1636     1   108.7700466 392.459200
   1635   3213   3214     1   117.5500507 404.174400
   1636   3225   3226     1   117.5500507 404.174400
   1641   1644   1645     1   109.5600471 388.275200
   1641   1644   1646     1   109.5600471 388.275200
   1642   1641   1644     1   109.5600471 388.275200
   1642   1641   1647     1   109.8800469 414.216000
   1642   1641   1643     1   108.4600466 328.025600
   1643   1641   1644     1   109.5600471 388.275200
   1643   1641   1647     1   109.8800469 414.216000
   1644   1664   1665     1   117.6800502 383.254400
   1645   1644   1664     1   108.8800464 416.726400
   1645   1644   1646     1   108.4600466 328.025600
   1646   1644   1664     1   108.8800464 416.726400
   1647   1648   1649     1   109.8800469 414.216000
   1647   1648   1650     1   109.8800469 414.216000
   1647   1651   1652     1   109.8800469 414.216000
   1647   1651   1653     1   109.8800469 414.216000
   1648   1657   1658     1   109.8000471 387.438400
   1648   1657   1659     1   109.8000471 387.438400
   1649   1648   1657     1   109.5600471 388.275200
   1649   1648   1650     1   108.4600466 328.025600
   1650   1648   1657     1   109.5600471 388.275200
   1651   1654   1655     1   109.8000471 387.438400
   1651   1654   1656     1   109.8000471 387.438400
   1652   1651   1654     1   109.5600471 388.275200
   1652   1651   1653     1   108.4600466 328.025600
   1653   1651   1654     1   109.5600471 388.275200
   1655   1654   1660     1   108.7700466 392.459200
   1655   1654   1656     1   107.5800459 329.699200
   1656   1654   1660     1   108.7700466 392.459200
   1658   1657   1661     1   108.7700466 392.459200
   1658   1657   1659     1   107.5800459 329.699200
   1659   1657   1661     1   108.7700466 392.459200
   1660   3237   3238     1   117.5500507 404.174400
   1661   3249   3250     1   117.5500507 404.174400
   1666   1669   1670     1   109.5600471 388.275200
   1666   1669   1671     1   109.5600471 388.275200
   1667   1666   1669     1   109.5600471 388.275200
   1667   1666   1672     1   109.8800469 414.216000
   1667   1666   1668     1   108.4600466 328.025600
   1668   1666   1669     1   109.5600471 388.275200
   1668   1666   1672     1   109.8800469 414.216000
   1669   1689   1690     1   117.6800502 383.254400
   1670   1669   1689     1   108.8800464 416.726400
   1670   1669   1671     1   108.4600466 328.025600
   1671   1669   1689     1   108.8800464 416.726400
   1672   1673   1674     1   109.8800469 414.216000
   1672   1673   1675     1   109.8800469 414.216000
   1672   1676   1677     1   109.8800469 414.216000
   1672   1676   1678     1   109.8800469 414.216000
   1673   1682   1683     1   109.8000471 387.438400
   1673   1682   1684     1   109.8000471 387.438400
   1674   1673   1682     1   109.5600471 388.275200
   1674   1673   1675     1   108.4600466 328.025600
   1675   1673   1682     1   109.5600471 388.275200
   1676   1679   1680     1   109.8000471 387.438400
   1676   1679   1681     1   109.8000471 387.438400
   1677   1676   1679     1   109.5600471 388.275200
   1677   1676   1678     1   108.4600466 328.025600
   1678   1676   1679     1   109.5600471 388.275200
   1680   1679   1685     1   108.7700466 392.459200
   1680   1679   1681     1   107.5800459 329.699200
   1681   1679   1685     1   108.7700466 392.459200
   1683   1682   1686     1   108.7700466 392.459200
   1683   1682   1684     1   107.5800459 329.699200
   1684   1682   1686     1   108.7700466 392.459200
   1685   3261   3262     1   117.5500507 404.174400
   1686   3273   3274     1   117.5500507 404.174400
   1691   1694   1695     1   109.5600471 388.275200
   1691   1694   1696     1   109.5600471 388.275200
   1692   1691   1694     1   109.5600471 388.275200
   1692   1691   1697     1   109.8800469 414.216000
   1692   1691   1693     1   108.4600466 328.025600
   1693   1691   1694     1   109.5600471 388.275200
   1693   1691   1697     1   109.8800469 414.216000
   1694   1714   1715     1   117.6800502 383.254400
   1695   1694   1714     1   108.8800464 416.726400
   1695   1694   1696     1   108.4600466 328.025600
   1696   1694   1714     1   108.8800464 416.726400
   1697   1698   1699     1   109.8800469 414.216000
   1697   1698   1700     1   109.8800469 414.216000
   1697   1701   1702     1   109.8800469 414.216000
   1697   1701   1703     1   109.8800469 414.216000
   1698   1707   1708     1   109.8000471 387.438400
   1698   1707   1709     1   109.8000471 387.438400
   1699   1698   1707     1   109.5600471 388.275200
   1699   1698   1700     1   108.4600466 328.025600
   1700   1698   1707     1   109.5600471 388.275200
   1701   1704   1705     1   109.8000471 387.438400
   1701   1704   1706     1   109.8000471 387.438400
   1702   1701   1704     1   109.5600471 388.275200
   1702   1701   1703     1   108.4600466 328.025600
   1703   1701   1704     1   109.5600471 388.275200
   1705   1704   1710     1   108.7700466 392.459200
   1705   1704   1706     1   107.5800459 329.699200
   1706   1704   1710     1   108.7700466 392.459200
   1708   1707   1711     1   108.7700466 392.459200
   1708   1707   1709     1   107.5800459 329.699200
   1709   1707   1711     1   108.7700466 392.459200
   1710   3285   3286     1   117.5500507 404.174400
   1711   3297   3298     1   117.5500507 404.174400
   1716   1719   1720     1   109.5600471 388.275200
   1716   1719   1721     1   109.5600471 388.275200
   1717   1716   1719     1   109.5600471 388.275200
   1717   1716   1722     1   109.8800469 414.216000
   1717   1716   1718     1   108.4600466 328.025600
   1718   1716   1719     1   109.5600471 388.275200
   1718   1716   1722     1   109.8800469 414.216000
   1719   1739   1740     1   117.6800502 383.254400
   1720   1719   1739     1   108.8800464 416.726400
   1720   1719   1721     1   108.4600466 328.025600
   1721   1719   1739     1   108.8800464 416.726400
   1722   1723   1724     1   109.8800469 414.216000
   1722   1723   1725     1   109.8800469 414.216000
   1722   1726   1727     1   109.8800469 414.216000
   1722   1726   1728     1   109.8800469 414.216000
   1723   1732   1733     1   109.8000471 387.438400
   1723   1732   1734     1   109.8000471 387.438400
   1724   1723   1732     1   109.5600471 388.275200
   1724   1723   1725     1   108.4600466 328.025600
   1725   1723   1732     1   109.5600471 388.275200
   1726   1729   1730     1   109.8000471 387.438400
   1726   1729   1731     1   109.8000471 387.438400
   1727   1726   1729     1   109.5600471 388.275200
   1727   1726   1728     1   108.4600466 328.025600
   1728   1726   1729     1   109.5600471 388.275200
   1730   1729   1735     1   108.7700466 392.459200
   1730   1729   1731     1   107.5800459 329.699200
   1731   1729   1735     1   108.7700466 392.459200
   1733   1732   1736     1   108.7700466 392.459200
   1733   1732   1734     1   107.5800459 329.699200
   1734   1732   1736     1   108.7700466 392.459200
   1735   3309   3310     1   117.5500507 404.174400
   1736   3321   3322     1   117.5500507 404.174400
   1741   1744   1745     1   109.5600471 388.275200
   1741   1744   1746     1   109.5600471 388.275200
   1742   1741   1744     1   109.5600471 388.275200
   1742   1741   1747     1   109.8800469 414.216000
   1742   1741   1743     1   108.4600466 328.025600
   1743   1741   1744     1   109.5600471 388.275200
   1743   1741   1747     1   109.8800469 414.216000
   1744   1764   1765     1   117.6800502 383.254400
   1745   1744   1764     1   108.8800464 416.726400
   1745   1744   1746     1   108.4600466 328.025600
   1746   1744   1764     1   108.8800464 416.726400
   1747   1748   1749     1   109.8800469 414.216000
   1747   1748   1750     1   109.8800469 414.216000
   1747   1751   1752     1   109.8800469 414.216000
   1747   1751   1753     1   109.8800469 414.216000
   1748   1757   1758     1   109.8000471 387.438400
   1748   1757   1759     1   109.8000471 387.438400
   1749   1748   1757     1   109.5600471 388.275200
   1749   1748   1750     1   108.4600466 328.025600
   1750   1748   1757     1   109.5600471 388.275200
   1751   1754   1755     1   109.8000471 387.438400
   1751   1754   1756     1   109.8000471 387.438400
   1752   1751   1754     1   109.5600471 388.275200
   1752   1751   1753     1   108.4600466 328.025600
   1753   1751   1754     1   109.5600471 388.275200
   1755   1754   1760     1   108.7700466 392.459200
   1755   1754   1756     1   107.5800459 329.699200
   1756   1754   1760     1   108.7700466 392.459200
   1758   1757   1761     1   108.7700466 392.459200
   1758   1757   1759     1   107.5800459 329.699200
   1759   1757   1761     1   108.7700466 392.459200
   1760   3333   3334     1   117.5500507 404.174400
   1761   3345   3346     1   117.5500507 404.174400
   1766   1769   1770     1   109.5600471 388.275200
   1766   1769   1771     1   109.5600471 388.275200
   1767   1766   1769     1   109.5600471 388.275200
   1767   1766   1772     1   109.8800469 414.216000
   1767   1766   1768     1   108.4600466 328.025600
   1768   1766   1769     1   109.5600471 388.275200
   1768   1766   1772     1   109.8800469 414.216000
   1769   1789   1790     1   117.6800502 383.254400
   1770   1769   1789     1   108.8800464 416.726400
   1770   1769   1771     1   108.4600466 328.025600
   1771   1769   1789     1   108.8800464 416.726400
   1772   1773   1774     1   109.8800469 414.216000
   1772   1773   1775     1   109.8800469 414.216000
   1772   1776   1777     1   109.8800469 414.216000
   1772   1776   1778     1   109.8800469 414.216000
   1773   1782   1783     1   109.8000471 387.438400
   1773   1782   1784     1   109.8000471 387.438400
   1774   1773   1782     1   109.5600471 388.275200
   1774   1773   1775     1   108.4600466 328.025600
   1775   1773   1782     1   109.5600471 388.275200
   1776   1779   1780     1   109.8000471 387.438400
   1776   1779   1781     1   109.8000471 387.438400
   1777   1776   1779     1   109.5600471 388.275200
   1777   1776   1778     1   108.4600466 328.025600
   1778   1776   1779     1   109.5600471 388.275200
   1780   1779   1785     1   108.7700466 392.459200
   1780   1779   1781     1   107.5800459 329.699200
   1781   1779   1785     1   108.7700466 392.459200
   1783   1782   1786     1   108.7700466 392.459200
   1783   1782   1784     1   107.5800459 329.699200
   1784   1782   1786     1   108.7700466 392.459200
   1785   3357   3358     1   117.5500507 404.174400
   1786   3369   3370     1   117.5500507 404.174400
   1791   1794   1795     1   109.5600471 388.275200
   1791   1794   1796     1   109.5600471 388.275200
   1792   1791   1794     1   109.5600471 388.275200
   1792   1791   1797     1   109.8800469 414.216000
   1792   1791   1793     1   108.4600466 328.025600
   1793   1791   1794     1   109.5600471 388.275200
   1793   1791   1797     1   109.8800469 414.216000
   1794   1814   1815     1   117.6800502 383.254400
   1795   1794   1814     1   108.8800464 416.726400
   1795   1794   1796     1   108.4600466 328.025600
   1796   1794   1814     1   108.8800464 416.726400
   1797   1798   1799     1   109.8800469 414.216000
   1797   1798   1800     1   109.8800469 414.216000
   1797   1801   1802     1   109.8800469 414.216000
   1797   1801   1803     1   109.8800469 414.216000
   1798   1807   1808     1   109.8000471 387.438400
   1798   1807   1809     1   109.8000471 387.438400
   1799   1798   1807     1   109.5600471 388.275200
   1799   1798   1800     1   108.4600466 328.025600
   1800   1798   1807     1   109.5600471 388.275200
   1801   1804   1805     1   109.8000471 387.438400
   1801   1804   1806     1   109.8000471 387.438400
   1802   1801   1804     1   109.5600471 388.275200
   1802   1801   1803     1   108.4600466 328.025600
   1803   1801   1804     1   109.5600471 388.275200
   1805   1804   1810     1   108.7700466 392.459200
   1805   1804   1806     1   107.5800459 329.699200
   1806   1804   1810     1   108.7700466 392.459200
   1808   1807   1811     1   108.7700466 392.459200
   1808   1807   1809     1   107.5800459 329.699200
   1809   1807   1811     1   108.7700466 392.459200
   1810   3381   3382     1   117.5500507 404.174400
   1811   3393   3394     1   117.5500507 404.174400
   1816   1819   1820     1   109.5600471 388.275200
   1816   1819   1821     1   109.5600471 388.275200
   1817   1816   1819     1   109.5600471 388.275200
   1817   1816   1822     1   109.8800469 414.216000
   1817   1816   1818     1   108.4600466 328.025600
   1818   1816   1819     1   109.5600471 388.275200
   1818   1816   1822     1   109.8800469 414.216000
   1819   1839   1840     1   117.6800502 383.254400
   1820   1819   1839     1   108.8800464 416.726400
   1820   1819   1821     1   108.4600466 328.025600
   1821   1819   1839     1   108.8800464 416.726400
   1822   1823   1824     1   109.8800469 414.216000
   1822   1823   1825     1   109.8800469 414.216000
   1822   1826   1827     1   109.8800469 414.216000
   1822   1826   1828     1   109.8800469 414.216000
   1823   1832   1833     1   109.8000471 387.438400
   1823   1832   1834     1   109.8000471 387.438400
   1824   1823   1832     1   109.5600471 388.275200
   1824   1823   1825     1   108.4600466 328.025600
   1825   1823   1832     1   109.5600471 388.275200
   1826   1829   1830     1   109.8000471 387.438400
   1826   1829   1831     1   109.8000471 387.438400
   1827   1826   1829     1   109.5600471 388.275200
   1827   1826   1828     1   108.4600466 328.025600
   1828   1826   1829     1   109.5600471 388.275200
   1830   1829   1835     1   108.7700466 392.459200
   1830   1829   1831     1   107.5800459 329.699200
   1831   1829   1835     1   108.7700466 392.459200
   1833   1832   1836     1   108.7700466 392.459200
   1833   1832   1834     1   107.5800459 329.699200
   1834   1832   1836     1   108.7700466 392.459200
   1835   3405   3406     1   117.5500507 404.174400
   1836   3417   3418     1   117.5500507 404.174400
   1841   1844   1845     1   109.5600471 388.275200
   1841   1844   1846     1   109.5600471 388.275200
   1842   1841   1844     1   109.5600471 388.275200
   1842   1841   1847     1   109.8800469 414.216000
   1842   1841   1843     1   108.4600466 328.025600
   1843   1841   1844     1   109.5600471 388.275200
   1843   1841   1847     1   109.8800469 414.216000
   1844   1864   1865     1   117.6800502 383.254400
   1845   1844   1864     1   108.8800464 416.726400
   1845   1844   1846     1   108.4600466 328.025600
   1846   1844   1864     1   108.8800464 416.726400
   1847   1848   1849     1   109.8800469 414.216000
   1847   1848   1850     1   109.8800469 414.216000
   1847   1851   1852     1   109.8800469 414.216000
   1847   1851   1853     1   109.8800469 414.216000
   1848   1857   1858     1   109.8000471 387.438400
   1848   1857   1859     1   109.8000471 387.438400
   1849   1848   1857     1   109.5600471 388.275200
   1849   1848   1850     1   108.4600466 328.025600
   1850   1848   1857     1   109.5600471 388.275200
   1851   1854   1855     1   109.8000471 387.438400
   1851   1854   1856     1   109.8000471 387.438400
   1852   1851   1854     1   109.5600471 388.275200
   1852   1851   1853     1   108.4600466 328.025600
   1853   1851   1854     1   109.5600471 388.275200
   1855   1854   1860     1   108.7700466 392.459200
   1855   1854   1856     1   107.5800459 329.699200
   1856   1854   1860     1   108.7700466 392.459200
   1858   1857   1861     1   108.7700466 392.459200
   1858   1857   1859     1   107.5800459 329.699200
   1859   1857   1861     1   108.7700466 392.459200
   1860   3429   3430     1   117.5500507 404.174400
   1861   3441   3442     1   117.5500507 404.174400
   1866   1869   1870     1   109.5600471 388.275200
   1866   1869   1871     1   109.5600471 388.275200
   1867   1866   1869     1   109.5600471 388.275200
   1867   1866   1872     1   109.8800469 414.216000
   1867   1866   1868     1   108.4600466 328.025600
   1868   1866   1869     1   109.5600471 388.275200
   1868   1866   1872     1   109.8800469 414.216000
   1869   1889   1890     1   117.6800502 383.254400
   1870   1869   1889     1   108.8800464 416.726400
   1870   1869   1871     1   108.4600466 328.025600
   1871   1869   1889     1   108.8800464 416.726400
   1872   1873   1874     1   109.8800469 414.216000
   1872   1873   1875     1   109.8800469 414.216000
   1872   1876   1877     1   109.8800469 414.216000
   1872   1876   1878     1   109.8800469 414.216000
   1873   1882   1883     1   109.8000471 387.438400
   1873   1882   1884     1   109.8000471 387.438400
   1874   1873   1882     1   109.5600471 388.275200
   1874   1873   1875     1   108.4600466 328.025600
   1875   1873   1882     1   109.5600471 388.275200
   1876   1879   1880     1   109.8000471 387.438400
   1876   1879   1881     1   109.8000471 387.438400
   1877   1876   1879     1   109.5600471 388.275200
   1877   1876   1878     1   108.4600466 328.025600
   1878   1876   1879     1   109.5600471 388.275200
   1880   1879   1885     1   108.7700466 392.459200
   1880   1879   1881     1   107.5800459 329.699200
   1881   1879   1885     1   108.7700466 392.459200
   1883   1882   1886     1   108.7700466 392.459200
   1883   1882   1884     1   107.5800459 329.699200
   1884   1882   1886     1   108.7700466 392.459200
   1885   3453   3454     1   117.5500507 404.174400
   1886   3465   3466     1   117.5500507 404.174400
   1891   1894   1895     1   109.5600471 388.275200
   1891   1894   1896     1   109.5600471 388.275200
   1892   1891   1894     1   109.5600471 388.275200
   1892   1891   1897     1   109.8800469 414.216000
   1892   1891   1893     1   108.4600466 328.025600
   1893   1891   1894     1   109.5600471 388.275200
   1893   1891   1897     1   109.8800469 414.216000
   1894   1914   1915     1   117.6800502 383.254400
   1895   1894   1914     1   108.8800464 416.726400
   1895   1894   1896     1   108.4600466 328.025600
   1896   1894   1914     1   108.8800464 416.726400
   1897   1898   1899     1   109.8800469 414.216000
   1897   1898   1900     1   109.8800469 414.216000
   1897   1901   1902     1   109.8800469 414.216000
   1897   1901   1903     1   109.8800469 414.216000
   1898   1907   1908     1   109.8000471 387.438400
   1898   1907   1909     1   109.8000471 387.438400
   1899   1898   1907     1   109.5600471 388.275200
   1899   1898   1900     1   108.4600466 328.025600
   1900   1898   1907     1   109.5600471 388.275200
   1901   1904   1905     1   109.8000471 387.438400
   1901   1904   1906     1   109.8000471 387.438400
   1902   1901   1904     1   109.5600471 388.275200
   1902   1901   1903     1   108.4600466 328.025600
   1903   1901   1904     1   109.5600471 388.275200
   1905   1904   1910     1   108.7700466 392.459200
   1905   1904   1906     1   107.5800459 329.699200
   1906   1904   1910     1   108.7700466 392.459200
   1908   1907   1911     1   108.7700466 392.459200
   1908   1907   1909     1   107.5800459 329.699200
   1909   1907   1911     1   108.7700466 392.459200
   1910   3477   3478     1   117.5500507 404.174400
   1911   3489   3490     1   117.5500507 404.174400
   1916   1919   1920     1   109.5600471 388.275200
   1916   1919   1921     1   109.5600471 388.275200
   1917   1916   1919     1   109.5600471 388.275200
   1917   1916   1922     1   109.8800469 414.216000
   1917   1916   1918     1   108.4600466 328.025600
   1918   1916   1919     1   109.5600471 388.275200
   1918   1916   1922     1   109.8800469 414.216000
   1919   1939   1940     1   117.6800502 383.254400
   1920   1919   1939     1   108.8800464 416.726400
   1920   1919   1921     1   108.4600466 328.025600
   1921   1919   1939     1   108.8800464 416.726400
   1922   1923   1924     1   109.8800469 414.216000
   1922   1923   1925     1   109.8800469 414.216000
   1922   1926   1927     1   109.8800469 414.216000
   1922   1926   1928     1   109.8800469 414.216000
   1923   1932   1933     1   109.8000471 387.438400
   1923   1932   1934     1   109.8000471 387.438400
   1924   1923   1932     1   109.5600471 388.275200
   1924   1923   1925     1   108.4600466 328.025600
   1925   1923   1932     1   109.5600471 388.275200
   1926   1929   1930     1   109.8000471 387.438400
   1926   1929   1931     1   109.8000471 387.438400
   1927   1926   1929     1   109.5600471 388.275200
   1927   1926   1928     1   108.4600466 328.025600
   1928   1926   1929     1   109.5600471 388.275200
   1930   1929   1935     1   108.7700466 392.459200
   1930   1929   1931     1   107.5800459 329.699200
   1931   1929   1935     1   108.7700466 392.459200
   1933   1932   1936     1   108.7700466 392.459200
   1933   1932   1934     1   107.5800459 329.699200
   1934   1932   1936     1   108.7700466 392.459200
   1935   3501   3502     1   117.5500507 404.174400
   1936   3513   3514     1   117.5500507 404.174400
   1941   1944   1945     1   109.5600471 388.275200
   1941   1944   1946     1   109.5600471 388.275200
   1942   1941   1944     1   109.5600471 388.275200
   1942   1941   1947     1   109.8800469 414.216000
   1942   1941   1943     1   108.4600466 328.025600
   1943   1941   1944     1   109.5600471 388.275200
   1943   1941   1947     1   109.8800469 414.216000
   1944   1964   1965     1   117.6800502 383.254400
   1945   1944   1964     1   108.8800464 416.726400
   1945   1944   1946     1   108.4600466 328.025600
   1946   1944   1964     1   108.8800464 416.726400
   1947   1948   1949     1   109.8800469 414.216000
   1947   1948   1950     1   109.8800469 414.216000
   1947   1951   1952     1   109.8800469 414.216000
   1947   1951   1953     1   109.8800469 414.216000
   1948   1957   1958     1   109.8000471 387.438400
   1948   1957   1959     1   109.8000471 387.438400
   1949   1948   1957     1   109.5600471 388.275200
   1949   1948   1950     1   108.4600466 328.025600
   1950   1948   1957     1   109.5600471 388.275200
   1951   1954   1955     1   109.8000471 387.438400
   1951   1954   1956     1   109.8000471 387.438400
   1952   1951   1954     1   109.5600471 388.275200
   1952   1951   1953     1   108.4600466 328.025600
   1953   1951   1954     1   109.5600471 388.275200
   1955   1954   1960     1   108.7700466 392.459200
   1955   1954   1956     1   107.5800459 329.699200
   1956   1954   1960     1   108.7700466 392.459200
   1958   1957   1961     1   108.7700466 392.459200
   1958   1957   1959     1   107.5800459 329.699200
   1959   1957   1961     1   108.7700466 392.459200
   1960   3525   3526     1   117.5500507 404.174400
   1961   3537   3538     1   117.5500507 404.174400
   1966   1969   1970     1   109.5600471 388.275200
   1966   1969   1971     1   109.5600471 388.275200
   1967   1966   1969     1   109.5600471 388.275200
   1967   1966   1972     1   109.8800469 414.216000
   1967   1966   1968     1   108.4600466 328.025600
   1968   1966   1969     1   109.5600471 388.275200
   1968   1966   1972     1   109.8800469 414.216000
   1969   1989   1990     1   117.6800502 383.254400
   1970   1969   1989     1   108.8800464 416.726400
   1970   1969   1971     1   108.4600466 328.025600
   1971   1969   1989     1   108.8800464 416.726400
   1972   1973   1974     1   109.8800469 414.216000
   1972   1973   1975     1   109.8800469 414.216000
   1972   1976   1977     1   109.8800469 414.216000
   1972   1976   1978     1   109.8800469 414.216000
   1973   1982   1983     1   109.8000471 387.438400
   1973   1982   1984     1   109.8000471 387.438400
   1974   1973   1982     1   109.5600471 388.275200
   1974   1973   1975     1   108.4600466 328.025600
   1975   1973   1982     1   109.5600471 388.275200
   1976   1979   1980     1   109.8000471 387.438400
   1976   1979   1981     1   109.8000471 387.438400
   1977   1976   1979     1   109.5600471 388.275200
   1977   1976   1978     1   108.4600466 328.025600
   1978   1976   1979     1   109.5600471 388.275200
   1980   1979   1985     1   108.7700466 392.459200
   1980   1979   1981     1   107.5800459 329.699200
   1981   1979   1985     1   108.7700466 392.459200
   1983   1982   1986     1   108.7700466 392.459200
   1983   1982   1984     1   107.5800459 329.699200
   1984   1982   1986     1   108.7700466 392.459200
   1985   3549   3550     1   117.5500507 404.174400
   1986   3561   3562     1   117.5500507 404.174400
   1991   1994   1995     1   109.5600471 388.275200
   1991   1994   1996     1   109.5600471 388.275200
   1992   1991   1994     1   109.5600471 388.275200
   1992   1991   1997     1   109.8800469 414.216000
   1992   1991   1993     1   108.4600466 328.025600
   1993   1991   1994     1   109.5600471 388.275200
   1993   1991   1997     1   109.8800469 414.216000
   1994   2014   2015     1   117.6800502 383.254400
   1995   1994   2014     1   108.8800464 416.726400
   1995   1994   1996     1   108.4600466 328.025600
   1996   1994   2014     1   108.8800464 416.726400
   1997   1998   1999     1   109.8800469 414.216000
   1997   1998   2000     1   109.8800469 414.216000
   1997   2001   2002     1   109.8800469 414.216000
   1997   2001   2003     1   109.8800469 414.216000
   1998   2007   2008     1   109.8000471 387.438400
   1998   2007   2009     1   109.8000471 387.438400
   1999   1998   2007     1   109.5600471 388.275200
   1999   1998   2000     1   108.4600466 328.025600
   2000   1998   2007     1   109.5600471 388.275200
   2001   2004   2005     1   109.8000471 387.438400
   2001   2004   2006     1   109.8000471 387.438400
   2002   2001   2004     1   109.5600471 388.275200
   2002   2001   2003     1   108.4600466 328.025600
   2003   2001   2004     1   109.5600471 388.275200
   2005   2004   2010     1   108.7700466 392.459200
   2005   2004   2006     1   107.5800459 329.699200
   2006   2004   2010     1   108.7700466 392.459200
   2008   2007   2011     1   108.7700466 392.459200
   2008   2007   2009     1   107.5800459 329.699200
   2009   2007   2011     1   108.7700466 392.459200
   2010   3573   3574     1   117.5500507 404.174400
   2011   3585   3586     1   117.5500507 404.174400
   2016   2019   2020     1   109.5600471 388.275200
   2016   2019   2021     1   109.5600471 388.275200
   2017   2016   2019     1   109.5600471 388.275200
   2017   2016   2022     1   109.8800469 414.216000
   2017   2016   2018     1   108.4600466 328.025600
   2018   2016   2019     1   109.5600471 388.275200
   2018   2016   2022     1   109.8800469 414.216000
   2019   2039   2040     1   117.6800502 383.254400
   2020   2019   2039     1   108.8800464 416.726400
   2020   2019   2021     1   108.4600466 328.025600
   2021   2019   2039     1   108.8800464 416.726400
   2022   2023   2024     1   109.8800469 414.216000
   2022   2023   2025     1   109.8800469 414.216000
   2022   2026   2027     1   109.8800469 414.216000
   2022   2026   2028     1   109.8800469 414.216000
   2023   2032   2033     1   109.8000471 387.438400
   2023   2032   2034     1   109.8000471 387.438400
   2024   2023   2032     1   109.5600471 388.275200
   2024   2023   2025     1   108.4600466 328.025600
   2025   2023   2032     1   109.5600471 388.275200
   2026   2029   2030     1   109.8000471 387.438400
   2026   2029   2031     1   109.8000471 387.438400
   2027   2026   2029     1   109.5600471 388.275200
   2027   2026   2028     1   108.4600466 328.025600
   2028   2026   2029     1   109.5600471 388.275200
   2030   2029   2035     1   108.7700466 392.459200
   2030   2029   2031     1   107.5800459 329.699200
   2031   2029   2035     1   108.7700466 392.459200
   2033   2032   2036     1   108.7700466 392.459200
   2033   2032   2034     1   107.5800459 329.699200
   2034   2032   2036     1   108.7700466 392.459200
   2035   3597   3598     1   117.5500507 404.174400
   2036   3609   3610     1   117.5500507 404.174400
   2041   2044   2045     1   109.5600471 388.275200
   2041   2044   2046     1   109.5600471 388.275200
   2042   2041   2044     1   109.5600471 388.275200
   2042   2041   2047     1   109.8800469 414.216000
   2042   2041   2043     1   108.4600466 328.025600
   2043   2041   2044     1   109.5600471 388.275200
   2043   2041   2047     1   109.8800469 414.216000
   2044   2064   2065     1   117.6800502 383.254400
   2045   2044   2064     1   108.8800464 416.726400
   2045   2044   2046     1   108.4600466 328.025600
   2046   2044   2064     1   108.8800464 416.726400
   2047   2048   2049     1   109.8800469 414.216000
   2047   2048   2050     1   109.8800469 414.216000
   2047   2051   2052     1   109.8800469 414.216000
   2047   2051   2053     1   109.8800469 414.216000
   2048   2057   2058     1   109.8000471 387.438400
   2048   2057   2059     1   109.8000471 387.438400
   2049   2048   2057     1   109.5600471 388.275200
   2049   2048   2050     1   108.4600466 328.025600
   2050   2048   2057     1   109.5600471 388.275200
   2051   2054   2055     1   109.8000471 387.438400
   2051   2054   2056     1   109.8000471 387.438400
   2052   2051   2054     1   109.5600471 388.275200
   2052   2051   2053     1   108.4600466 328.025600
   2053   2051   2054     1   109.5600471 388.275200
   2055   2054   2060     1   108.7700466 392.459200
   2055   2054   2056     1   107.5800459 329.699200
   2056   2054   2060     1   108.7700466 392.459200
   2058   2057   2061     1   108.7700466 392.459200
   2058   2057   2059     1   107.5800459 329.699200
   2059   2057   2061     1   108.7700466 392.459200
   2060   3621   3622     1   117.5500507 404.174400
   2061   3633   3634     1   117.5500507 404.174400
   2066   2069   2070     1   109.5600471 388.275200
   2066   2069   2071     1   109.5600471 388.275200
   2067   2066   2069     1   109.5600471 388.275200
   2067   2066   2072     1   109.8800469 414.216000
   2067   2066   2068     1   108.4600466 328.025600
   2068   2066   2069     1   109.5600471 388.275200
   2068   2066   2072     1   109.8800469 414.216000
   2069   2089   2090     1   117.6800502 383.254400
   2070   2069   2089     1   108.8800464 416.726400
   2070   2069   2071     1   108.4600466 328.025600
   2071   2069   2089     1   108.8800464 416.726400
   2072   2073   2074     1   109.8800469 414.216000
   2072   2073   2075     1   109.8800469 414.216000
   2072   2076   2077     1   109.8800469 414.216000
   2072   2076   2078     1   109.8800469 414.216000
   2073   2082   2083     1   109.8000471 387.438400
   2073   2082   2084     1   109.8000471 387.438400
   2074   2073   2082     1   109.5600471 388.275200
   2074   2073   2075     1   108.4600466 328.025600
   2075   2073   2082     1   109.5600471 388.275200
   2076   2079   2080     1   109.8000471 387.438400
   2076   2079   2081     1   109.8000471 387.438400
   2077   2076   2079     1   109.5600471 388.275200
   2077   2076   2078     1   108.4600466 328.025600
   2078   2076   2079     1   109.5600471 388.275200
   2080   2079   2085     1   108.7700466 392.459200
   2080   2079   2081     1   107.5800459 329.699200
   2081   2079   2085     1   108.7700466 392.459200
   2083   2082   2086     1   108.7700466 392.459200
   2083   2082   2084     1   107.5800459 329.699200
   2084   2082   2086     1   108.7700466 392.459200
   2085   3645   3646     1   117.5500507 404.174400
   2086   3657   3658     1   117.5500507 404.174400
   2091   2094   2095     1   109.5600471 388.275200
   2091   2094   2096     1   109.5600471 388.275200
   2092   2091   2094     1   109.5600471 388.275200
   2092   2091   2097     1   109.8800469 414.216000
   2092   2091   2093     1   108.4600466 328.025600
   2093   2091   2094     1   109.5600471 388.275200
   2093   2091   2097     1   109.8800469 414.216000
   2094   2114   2115     1   117.6800502 383.254400
   2095   2094   2114     1   108.8800464 416.726400
   2095   2094   2096     1   108.4600466 328.025600
   2096   2094   2114     1   108.8800464 416.726400
   2097   2098   2099     1   109.8800469 414.216000
   2097   2098   2100     1   109.8800469 414.216000
   2097   2101   2102     1   109.8800469 414.216000
   2097   2101   2103     1   109.8800469 414.216000
   2098   2107   2108     1   109.8000471 387.438400
   2098   2107   2109     1   109.8000471 387.438400
   2099   2098   2107     1   109.5600471 388.275200
   2099   2098   2100     1   108.4600466 328.025600
   2100   2098   2107     1   109.5600471 388.275200
   2101   2104   2105     1   109.8000471 387.438400
   2101   2104   2106     1   109.8000471 387.438400
   2102   2101   2104     1   109.5600471 388.275200
   2102   2101   2103     1   108.4600466 328.025600
   2103   2101   2104     1   109.5600471 388.275200
   2105   2104   2110     1   108.7700466 392.459200
   2105   2104   2106     1   107.5800459 329.699200
   2106   2104   2110     1   108.7700466 392.459200
   2108   2107   2111     1   108.7700466 392.459200
   2108   2107   2109     1   107.5800459 329.699200
   2109   2107   2111     1   108.7700466 392.459200
   2110   3669   3670     1   117.5500507 404.174400
   2111   3681   3682     1   117.5500507 404.174400
   2116   2119   2120     1   109.5600471 388.275200
   2116   2119   2121     1   109.5600471 388.275200
   2117   2116   2119     1   109.5600471 388.275200
   2117   2116   2122     1   109.8800469 414.216000
   2117   2116   2118     1   108.4600466 328.025600
   2118   2116   2119     1   109.5600471 388.275200
   2118   2116   2122     1   109.8800469 414.216000
   2119   2139   2140     1   117.6800502 383.254400
   2120   2119   2139     1   108.8800464 416.726400
   2120   2119   2121     1   108.4600466 328.025600
   2121   2119   2139     1   108.8800464 416.726400
   2122   2123   2124     1   109.8800469 414.216000
   2122   2123   2125     1   109.8800469 414.216000
   2122   2126   2127     1   109.8800469 414.216000
   2122   2126   2128     1   109.8800469 414.216000
   2123   2132   2133     1   109.8000471 387.438400
   2123   2132   2134     1   109.8000471 387.438400
   2124   2123   2132     1   109.5600471 388.275200
   2124   2123   2125     1   108.4600466 328.025600
   2125   2123   2132     1   109.5600471 388.275200
   2126   2129   2130     1   109.8000471 387.438400
   2126   2129   2131     1   109.8000471 387.438400
   2127   2126   2129     1   109.5600471 388.275200
   2127   2126   2128     1   108.4600466 328.025600
   2128   2126   2129     1   109.5600471 388.275200
   2130   2129   2135     1   108.7700466 392.459200
   2130   2129   2131     1   107.5800459 329.699200
   2131   2129   2135     1   108.7700466 392.459200
   2133   2132   2136     1   108.7700466 392.459200
   2133   2132   2134     1   107.5800459 329.699200
   2134   2132   2136     1   108.7700466 392.459200
   2135   3693   3694     1   117.5500507 404.174400
   2136   3705   3706     1   117.5500507 404.174400
   2141   2144   2145     1   109.5600471 388.275200
   2141   2144   2146     1   109.5600471 388.275200
   2142   2141   2144     1   109.5600471 388.275200
   2142   2141   2147     1   109.8800469 414.216000
   2142   2141   2143     1   108.4600466 328.025600
   2143   2141   2144     1   109.5600471 388.275200
   2143   2141   2147     1   109.8800469 414.216000
   2144   2164   2165     1   117.6800502 383.254400
   2145   2144   2164     1   108.8800464 416.726400
   2145   2144   2146     1   108.4600466 328.025600
   2146   2144   2164     1   108.8800464 416.726400
   2147   2148   2149     1   109.8800469 414.216000
   2147   2148   2150     1   109.8800469 414.216000
   2147   2151   2152     1   109.8800469 414.216000
   2147   2151   2153     1   109.8800469 414.216000
   2148   2157   2158     1   109.8000471 387.438400
   2148   2157   2159     1   109.8000471 387.438400
   2149   2148   2157     1   109.5600471 388.275200
   2149   2148   2150     1   108.4600466 328.025600
   2150   2148   2157     1   109.5600471 388.275200
   2151   2154   2155     1   109.8000471 387.438400
   2151   2154   2156     1   109.8000471 387.438400
   2152   2151   2154     1   109.5600471 388.275200
   2152   2151   2153     1   108.4600466 328.025600
   2153   2151   2154     1   109.5600471 388.275200
   2155   2154   2160     1   108.7700466 392.459200
   2155   2154   2156     1   107.5800459 329.699200
   2156   2154   2160     1   108.7700466 392.459200
   2158   2157   2161     1   108.7700466 392.459200
   2158   2157   2159     1   107.5800459 329.699200
   2159   2157   2161     1   108.7700466 392.459200
   2160   3717   3718     1   117.5500507 404.174400
   2161   3729   3730     1   117.5500507 404.174400
   2166   2169   2170     1   109.5600471 388.275200
   2166   2169   2171     1   109.5600471 388.275200
   2167   2166   2169     1   109.5600471 388.275200
   2167   2166   2172     1   109.8800469 414.216000
   2167   2166   2168     1   108.4600466 328.025600
   2168   2166   2169     1   109.5600471 388.275200
   2168   2166   2172     1   109.8800469 414.216000
   2169   2189   2190     1   117.6800502 383.254400
   2170   2169   2189     1   108.8800464 416.726400
   2170   2169   2171     1   108.4600466 328.025600
   2171   2169   2189     1   108.8800464 416.726400
   2172   2173   2174     1   109.8800469 414.216000
   2172   2173   2175     1   109.8800469 414.216000
   2172   2176   2177     1   109.8800469 414.216000
   2172   2176   2178     1   109.8800469 414.216000
   2173   2182   2183     1   109.8000471 387.438400
   2173   2182   2184     1   109.8000471 387.438400
   2174   2173   2182     1   109.5600471 388.275200
   2174   2173   2175     1   108.4600466 328.025600
   2175   2173   2182     1   109.5600471 388.275200
   2176   2179   2180     1   109.8000471 387.438400
   2176   2179   2181     1   109.8000471 387.438400
   2177   2176   2179     1   109.5600471 388.275200
   2177   2176   2178     1   108.4600466 328.025600
   2178   2176   2179     1   109.5600471 388.275200
   2180   2179   2185     1   108.7700466 392.459200
   2180   2179   2181     1   107.5800459 329.699200
   2181   2179   2185     1   108.7700466 392.459200
   2183   2182   2186     1   108.7700466 392.459200
   2183   2182   2184     1   107.5800459 329.699200
   2184   2182   2186     1   108.7700466 392.459200
   2185   3741   3742     1   117.5500507 404.174400
   2186   3753   3754     1   117.5500507 404.174400
   2191   2194   2195     1   109.5600471 388.275200
   2191   2194   2196     1   109.5600471 388.275200
   2192   2191   2194     1   109.5600471 388.275200
   2192   2191   2197     1   109.8800469 414.216000
   2192   2191   2193     1   108.4600466 328.025600
   2193   2191   2194     1   109.5600471 388.275200
   2193   2191   2197     1   109.8800469 414.216000
   2194   2214   2215     1   117.6800502 383.254400
   2195   2194   2214     1   108.8800464 416.726400
   2195   2194   2196     1   108.4600466 328.025600
   2196   2194   2214     1   108.8800464 416.726400
   2197   2198   2199     1   109.8800469 414.216000
   2197   2198   2200     1   109.8800469 414.216000
   2197   2201   2202     1   109.8800469 414.216000
   2197   2201   2203     1   109.8800469 414.216000
   2198   2207   2208     1   109.8000471 387.438400
   2198   2207   2209     1   109.8000471 387.438400
   2199   2198   2207     1   109.5600471 388.275200
   2199   2198   2200     1   108.4600466 328.025600
   2200   2198   2207     1   109.5600471 388.275200
   2201   2204   2205     1   109.8000471 387.438400
   2201   2204   2206     1   109.8000471 387.438400
   2202   2201   2204     1   109.5600471 388.275200
   2202   2201   2203     1   108.4600466 328.025600
   2203   2201   2204     1   109.5600471 388.275200
   2205   2204   2210     1   108.7700466 392.459200
   2205   2204   2206     1   107.5800459 329.699200
   2206   2204   2210     1   108.7700466 392.459200
   2208   2207   2211     1   108.7700466 392.459200
   2208   2207   2209     1   107.5800459 329.699200
   2209   2207   2211     1   108.7700466 392.459200
   2210   3765   3766     1   117.5500507 404.174400
   2211   3777   3778     1   117.5500507 404.174400
   2216   2219   2220     1   109.5600471 388.275200
   2216   2219   2221     1   109.5600471 388.275200
   2217   2216   2219     1   109.5600471 388.275200
   2217   2216   2222     1   109.8800469 414.216000
   2217   2216   2218     1   108.4600466 328.025600
   2218   2216   2219     1   109.5600471 388.275200
   2218   2216   2222     1   109.8800469 414.216000
   2219   2239   2240     1   117.6800502 383.254400
   2220   2219   2239     1   108.8800464 416.726400
   2220   2219   2221     1   108.4600466 328.025600
   2221   2219   2239     1   108.8800464 416.726400
   2222   2223   2224     1   109.8800469 414.216000
   2222   2223   2225     1   109.8800469 414.216000
   2222   2226   2227     1   109.8800469 414.216000
   2222   2226   2228     1   109.8800469 414.216000
   2223   2232   2233     1   109.8000471 387.438400
   2223   2232   2234     1   109.8000471 387.438400
   2224   2223   2232     1   109.5600471 388.275200
   2224   2223   2225     1   108.4600466 328.025600
   2225   2223   2232     1   109.5600471 388.275200
   2226   2229   2230     1   109.8000471 387.438400
   2226   2229   2231     1   109.8000471 387.438400
   2227   2226   2229     1   109.5600471 388.275200
   2227   2226   2228     1   108.4600466 328.025600
   2228   2226   2229     1   109.5600471 388.275200
   2230   2229   2235     1   108.7700466 392.459200
   2230   2229   2231     1   107.5800459 329.699200
   2231   2229   2235     1   108.7700466 392.459200
   2233   2232   2236     1   108.7700466 392.459200
   2233   2232   2234     1   107.5800459 329.699200
   2234   2232   2236     1   108.7700466 392.459200
   2235   3789   3790     1   117.5500507 404.174400
   2236   3801   3802     1   117.5500507 404.174400
   2241   2244   2245     1   109.5600471 388.275200
   2241   2244   2246     1   109.5600471 388.275200
   2242   2241   2244     1   109.5600471 388.275200
   2242   2241   2247     1   109.8800469 414.216000
   2242   2241   2243     1   108.4600466 328.025600
   2243   2241   2244     1   109.5600471 388.275200
   2243   2241   2247     1   109.8800469 414.216000
   2244   2264   2265     1   117.6800502 383.254400
   2245   2244   2264     1   108.8800464 416.726400
   2245   2244   2246     1   108.4600466 328.025600
   2246   2244   2264     1   108.8800464 416.726400
   2247   2248   2249     1   109.8800469 414.216000
   2247   2248   2250     1   109.8800469 414.216000
   2247   2251   2252     1   109.8800469 414.216000
   2247   2251   2253     1   109.8800469 414.216000
   2248   2257   2258     1   109.8000471 387.438400
   2248   2257   2259     1   109.8000471 387.438400
   2249   2248   2257     1   109.5600471 388.275200
   2249   2248   2250     1   108.4600466 328.025600
   2250   2248   2257     1   109.5600471 388.275200
   2251   2254   2255     1   109.8000471 387.438400
   2251   2254   2256     1   109.8000471 387.438400
   2252   2251   2254     1   109.5600471 388.275200
   2252   2251   2253     1   108.4600466 328.025600
   2253   2251   2254     1   109.5600471 388.275200
   2255   2254   2260     1   108.7700466 392.459200
   2255   2254   2256     1   107.5800459 329.699200
   2256   2254   2260     1   108.7700466 392.459200
   2258   2257   2261     1   108.7700466 392.459200
   2258   2257   2259     1   107.5800459 329.699200
   2259   2257   2261     1   108.7700466 392.459200
   2260   3813   3814     1   117.5500507 404.174400
   2261   3825   3826     1   117.5500507 404.174400
   2266   2269   2270     1   109.5600471 388.275200
   2266   2269   2271     1   109.5600471 388.275200
   2267   2266   2269     1   109.5600471 388.275200
   2267   2266   2272     1   109.8800469 414.216000
   2267   2266   2268     1   108.4600466 328.025600
   2268   2266   2269     1   109.5600471 388.275200
   2268   2266   2272     1   109.8800469 414.216000
   2269   2289   2290     1   117.6800502 383.254400
   2270   2269   2289     1   108.8800464 416.726400
   2270   2269   2271     1   108.4600466 328.025600
   2271   2269   2289     1   108.8800464 416.726400
   2272   2273   2274     1   109.8800469 414.216000
   2272   2273   2275     1   109.8800469 414.216000
   2272   2276   2277     1   109.8800469 414.216000
   2272   2276   2278     1   109.8800469 414.216000
   2273   2282   2283     1   109.8000471 387.438400
   2273   2282   2284     1   109.8000471 387.438400
   2274   2273   2282     1   109.5600471 388.275200
   2274   2273   2275     1   108.4600466 328.025600
   2275   2273   2282     1   109.5600471 388.275200
   2276   2279   2280     1   109.8000471 387.438400
   2276   2279   2281     1   109.8000471 387.438400
   2277   2276   2279     1   109.5600471 388.275200
   2277   2276   2278     1   108.4600466 328.025600
   2278   2276   2279     1   109.5600471 388.275200
   2280   2279   2285     1   108.7700466 392.459200
   2280   2279   2281     1   107.5800459 329.699200
   2281   2279   2285     1   108.7700466 392.459200
   2283   2282   2286     1   108.7700466 392.459200
   2283   2282   2284     1   107.5800459 329.699200
   2284   2282   2286     1   108.7700466 392.459200
   2285   3837   3838     1   117.5500507 404.174400
   2286   3849   3850     1   117.5500507 404.174400
   2291   2294   2295     1   109.5600471 388.275200
   2291   2294   2296     1   109.5600471 388.275200
   2292   2291   2294     1   109.5600471 388.275200
   2292   2291   2297     1   109.8800469 414.216000
   2292   2291   2293     1   108.4600466 328.025600
   2293   2291   2294     1   109.5600471 388.275200
   2293   2291   2297     1   109.8800469 414.216000
   2294   2314   2315     1   117.6800502 383.254400
   2295   2294   2314     1   108.8800464 416.726400
   2295   2294   2296     1   108.4600466 328.025600
   2296   2294   2314     1   108.8800464 416.726400
   2297   2298   2299     1   109.8800469 414.216000
   2297   2298   2300     1   109.8800469 414.216000
   2297   2301   2302     1   109.8800469 414.216000
   2297   2301   2303     1   109.8800469 414.216000
   2298   2307   2308     1   109.8000471 387.438400
   2298   2307   2309     1   109.8000471 387.438400
   2299   2298   2307     1   109.5600471 388.275200
   2299   2298   2300     1   108.4600466 328.025600
   2300   2298   2307     1   109.5600471 388.275200
   2301   2304   2305     1   109.8000471 387.438400
   2301   2304   2306     1   109.8000471 387.438400
   2302   2301   2304     1   109.5600471 388.275200
   2302   2301   2303     1   108.4600466 328.025600
   2303   2301   2304     1   109.5600471 388.275200
   2305   2304   2310     1   108.7700466 392.459200
   2305   2304   2306     1   107.5800459 329.699200
   2306   2304   2310     1   108.7700466 392.459200
   2308   2307   2311     1   108.7700466 392.459200
   2308   2307   2309     1   107.5800459 329.699200
   2309   2307   2311     1   108.7700466 392.459200
   2310   3861   3862     1   117.5500507 404.174400
   2311   3873   3874     1   117.5500507 404.174400
   2316   2319   2320     1   109.5600471 388.275200
   2316   2319   2321     1   109.5600471 388.275200
   2317   2316   2319     1   109.5600471 388.275200
   2317   2316   2322     1   109.8800469 414.216000
   2317   2316   2318     1   108.4600466 328.025600
   2318   2316   2319     1   109.5600471 388.275200
   2318   2316   2322     1   109.8800469 414.216000
   2319   2339   2340     1   117.6800502 383.254400
   2320   2319   2339     1   108.8800464 416.726400
   2320   2319   2321     1   108.4600466 328.025600
   2321   2319   2339     1   108.8800464 416.726400
   2322   2323   2324     1   109.8800469 414.216000
   2322   2323   2325     1   109.8800469 414.216000
   2322   2326   2327     1   109.8800469 414.216000
   2322   2326   2328     1   109.8800469 414.216000
   2323   2332   2333     1   109.8000471 387.438400
   2323   2332   2334     1   109.8000471 387.438400
   2324   2323   2332     1   109.5600471 388.275200
   2324   2323   2325     1   108.4600466 328.025600
   2325   2323   2332     1   109.5600471 388.275200
   2326   2329   2330     1   109.8000471 387.438400
   2326   2329   2331     1   109.8000471 387.438400
   2327   2326   2329     1   109.5600471 388.275200
   2327   2326   2328     1   108.4600466 328.025600
   2328   2326   2329     1   109.5600471 388.275200
   2330   2329   2335     1   108.7700466 392.459200
   2330   2329   2331     1   107.5800459 329.699200
   2331   2329   2335     1   108.7700466 392.459200
   2333   2332   2336     1   108.7700466 392.459200
   2333   2332   2334     1   107.5800459 329.699200
   2334   2332   2336     1   108.7700466 392.459200
   2335   3885   3886     1   117.5500507 404.174400
   2336   3897   3898     1   117.5500507 404.174400
   2341   2344   2345     1   109.5600471 388.275200
   2341   2344   2346     1   109.5600471 388.275200
   2342   2341   2344     1   109.5600471 388.275200
   2342   2341   2347     1   109.8800469 414.216000
   2342   2341   2343     1   108.4600466 328.025600
   2343   2341   2344     1   109.5600471 388.275200
   2343   2341   2347     1   109.8800469 414.216000
   2344   2364   2365     1   117.6800502 383.254400
   2345   2344   2364     1   108.8800464 416.726400
   2345   2344   2346     1   108.4600466 328.025600
   2346   2344   2364     1   108.8800464 416.726400
   2347   2348   2349     1   109.8800469 414.216000
   2347   2348   2350     1   109.8800469 414.216000
   2347   2351   2352     1   109.8800469 414.216000
   2347   2351   2353     1   109.8800469 414.216000
   2348   2357   2358     1   109.8000471 387.438400
   2348   2357   2359     1   109.8000471 387.438400
   2349   2348   2357     1   109.5600471 388.275200
   2349   2348   2350     1   108.4600466 328.025600
   2350   2348   2357     1   109.5600471 388.275200
   2351   2354   2355     1   109.8000471 387.438400
   2351   2354   2356     1   109.8000471 387.438400
   2352   2351   2354     1   109.5600471 388.275200
   2352   2351   2353     1   108.4600466 328.025600
   2353   2351   2354     1   109.5600471 388.275200
   2355   2354   2360     1   108.7700466 392.459200
   2355   2354   2356     1   107.5800459 329.699200
   2356   2354   2360     1   108.7700466 392.459200
   2358   2357   2361     1   108.7700466 392.459200
   2358   2357   2359     1   107.5800459 329.699200
   2359   2357   2361     1   108.7700466 392.459200
   2360   3909   3910     1   117.5500507 404.174400
   2361   3921   3922     1   117.5500507 404.174400
   2366   2369   2370     1   109.5600471 388.275200
   2366   2369   2371     1   109.5600471 388.275200
   2367   2366   2369     1   109.5600471 388.275200
   2367   2366   2372     1   109.8800469 414.216000
   2367   2366   2368     1   108.4600466 328.025600
   2368   2366   2369     1   109.5600471 388.275200
   2368   2366   2372     1   109.8800469 414.216000
   2369   2389   2390     1   117.6800502 383.254400
   2370   2369   2389     1   108.8800464 416.726400
   2370   2369   2371     1   108.4600466 328.025600
   2371   2369   2389     1   108.8800464 416.726400
   2372   2373   2374     1   109.8800469 414.216000
   2372   2373   2375     1   109.8800469 414.216000
   2372   2376   2377     1   109.8800469 414.216000
   2372   2376   2378     1   109.8800469 414.216000
   2373   2382   2383     1   109.8000471 387.438400
   2373   2382   2384     1   109.8000471 387.438400
   2374   2373   2382     1   109.5600471 388.275200
   2374   2373   2375     1   108.4600466 328.025600
   2375   2373   2382     1   109.5600471 388.275200
   2376   2379   2380     1   109.8000471 387.438400
   2376   2379   2381     1   109.8000471 387.438400
   2377   2376   2379     1   109.5600471 388.275200
   2377   2376   2378     1   108.4600466 328.025600
   2378   2376   2379     1   109.5600471 388.275200
   2380   2379   2385     1   108.7700466 392.459200
   2380   2379   2381     1   107.5800459 329.699200
   2381   2379   2385     1   108.7700466 392.459200
   2383   2382   2386     1   108.7700466 392.459200
   2383   2382   2384     1   107.5800459 329.699200
   2384   2382   2386     1   108.7700466 392.459200
   2385   3933   3934     1   117.5500507 404.174400
   2386   3945   3946     1   117.5500507 404.174400
   2391   2394   2395     1   109.5600471 388.275200
   2391   2394   2396     1   109.5600471 388.275200
   2392   2391   2394     1   109.5600471 388.275200
   2392   2391   2397     1   109.8800469 414.216000
   2392   2391   2393     1   108.4600466 328.025600
   2393   2391   2394     1   109.5600471 388.275200
   2393   2391   2397     1   109.8800469 414.216000
   2394   2414   2415     1   117.6800502 383.254400
   2395   2394   2414     1   108.8800464 416.726400
   2395   2394   2396     1   108.4600466 328.025600
   2396   2394   2414     1   108.8800464 416.726400
   2397   2398   2399     1   109.8800469 414.216000
   2397   2398   2400     1   109.8800469 414.216000
   2397   2401   2402     1   109.8800469 414.216000
   2397   2401   2403     1   109.8800469 414.216000
   2398   2407   2408     1   109.8000471 387.438400
   2398   2407   2409     1   109.8000471 387.438400
   2399   2398   2407     1   109.5600471 388.275200
   2399   2398   2400     1   108.4600466 328.025600
   2400   2398   2407     1   109.5600471 388.275200
   2401   2404   2405     1   109.8000471 387.438400
   2401   2404   2406     1   109.8000471 387.438400
   2402   2401   2404     1   109.5600471 388.275200
   2402   2401   2403     1   108.4600466 328.025600
   2403   2401   2404     1   109.5600471 388.275200
   2405   2404   2410     1   108.7700466 392.459200
   2405   2404   2406     1   107.5800459 329.699200
   2406   2404   2410     1   108.7700466 392.459200
   2408   2407   2411     1   108.7700466 392.459200
   2408   2407   2409     1   107.5800459 329.699200
   2409   2407   2411     1   108.7700466 392.459200
   2410   3957   3958     1   117.5500507 404.174400
   2411   3969   3970     1   117.5500507 404.174400
   2416   2419   2420     1   109.5600471 388.275200
   2416   2419   2421     1   109.5600471 388.275200
   2417   2416   2419     1   109.5600471 388.275200
   2417   2416   2422     1   109.8800469 414.216000
   2417   2416   2418     1   108.4600466 328.025600
   2418   2416   2419     1   109.5600471 388.275200
   2418   2416   2422     1   109.8800469 414.216000
   2419   2439   2440     1   117.6800502 383.254400
   2420   2419   2439     1   108.8800464 416.726400
   2420   2419   2421     1   108.4600466 328.025600
   2421   2419   2439     1   108.8800464 416.726400
   2422   2423   2424     1   109.8800469 414.216000
   2422   2423   2425     1   109.8800469 414.216000
   2422   2426   2427     1   109.8800469 414.216000
   2422   2426   2428     1   109.8800469 414.216000
   2423   2432   2433     1   109.8000471 387.438400
   2423   2432   2434     1   109.8000471 387.438400
   2424   2423   2432     1   109.5600471 388.275200
   2424   2423   2425     1   108.4600466 328.025600
   2425   2423   2432     1   109.5600471 388.275200
   2426   2429   2430     1   109.8000471 387.438400
   2426   2429   2431     1   109.8000471 387.438400
   2427   2426   2429     1   109.5600471 388.275200
   2427   2426   2428     1   108.4600466 328.025600
   2428   2426   2429     1   109.5600471 388.275200
   2430   2429   2435     1   108.7700466 392.459200
   2430   2429   2431     1   107.5800459 329.699200
   2431   2429   2435     1   108.7700466 392.459200
   2433   2432   2436     1   108.7700466 392.459200
   2433   2432   2434     1   107.5800459 329.699200
   2434   2432   2436     1   108.7700466 392.459200
   2435   3981   3982     1   117.5500507 404.174400
   2436   3993   3994     1   117.5500507 404.174400
   2441   2444   2445     1   109.5600471 388.275200
   2441   2444   2446     1   109.5600471 388.275200
   2442   2441   2444     1   109.5600471 388.275200
   2442   2441   2447     1   109.8800469 414.216000
   2442   2441   2443     1   108.4600466 328.025600
   2443   2441   2444     1   109.5600471 388.275200
   2443   2441   2447     1   109.8800469 414.216000
   2444   2464   2465     1   117.6800502 383.254400
   2445   2444   2464     1   108.8800464 416.726400
   2445   2444   2446     1   108.4600466 328.025600
   2446   2444   2464     1   108.8800464 416.726400
   2447   2448   2449     1   109.8800469 414.216000
   2447   2448   2450     1   109.8800469 414.216000
   2447   2451   2452     1   109.8800469 414.216000
   2447   2451   2453     1   109.8800469 414.216000
   2448   2457   2458     1   109.8000471 387.438400
   2448   2457   2459     1   109.8000471 387.438400
   2449   2448   2457     1   109.5600471 388.275200
   2449   2448   2450     1   108.4600466 328.025600
   2450   2448   2457     1   109.5600471 388.275200
   2451   2454   2455     1   109.8000471 387.438400
   2451   2454   2456     1   109.8000471 387.438400
   2452   2451   2454     1   109.5600471 388.275200
   2452   2451   2453     1   108.4600466 328.025600
   2453   2451   2454     1   109.5600471 388.275200
   2455   2454   2460     1   108.7700466 392.459200
   2455   2454   2456     1   107.5800459 329.699200
   2456   2454   2460     1   108.7700466 392.459200
   2458   2457   2461     1   108.7700466 392.459200
   2458   2457   2459     1   107.5800459 329.699200
   2459   2457   2461     1   108.7700466 392.459200
   2460   4005   4006     1   117.5500507 404.174400
   2461   4017   4018     1   117.5500507 404.174400
   2466   2469   2470     1   109.5600471 388.275200
   2466   2469   2471     1   109.5600471 388.275200
   2467   2466   2469     1   109.5600471 388.275200
   2467   2466   2472     1   109.8800469 414.216000
   2467   2466   2468     1   108.4600466 328.025600
   2468   2466   2469     1   109.5600471 388.275200
   2468   2466   2472     1   109.8800469 414.216000
   2469   2489   2490     1   117.6800502 383.254400
   2470   2469   2489     1   108.8800464 416.726400
   2470   2469   2471     1   108.4600466 328.025600
   2471   2469   2489     1   108.8800464 416.726400
   2472   2473   2474     1   109.8800469 414.216000
   2472   2473   2475     1   109.8800469 414.216000
   2472   2476   2477     1   109.8800469 414.216000
   2472   2476   2478     1   109.8800469 414.216000
   2473   2482   2483     1   109.8000471 387.438400
   2473   2482   2484     1   109.8000471 387.438400
   2474   2473   2482     1   109.5600471 388.275200
   2474   2473   2475     1   108.4600466 328.025600
   2475   2473   2482     1   109.5600471 388.275200
   2476   2479   2480     1   109.8000471 387.438400
   2476   2479   2481     1   109.8000471 387.438400
   2477   2476   2479     1   109.5600471 388.275200
   2477   2476   2478     1   108.4600466 328.025600
   2478   2476   2479     1   109.5600471 388.275200
   2480   2479   2485     1   108.7700466 392.459200
   2480   2479   2481     1   107.5800459 329.699200
   2481   2479   2485     1   108.7700466 392.459200
   2483   2482   2486     1   108.7700466 392.459200
   2483   2482   2484     1   107.5800459 329.699200
   2484   2482   2486     1   108.7700466 392.459200
   2485   4029   4030     1   117.5500507 404.174400
   2486   4041   4042     1   117.5500507 404.174400
   2491   2494   2495     1   109.5600471 388.275200
   2491   2494   2496     1   109.5600471 388.275200
   2492   2491   2494     1   109.5600471 388.275200
   2492   2491   2497     1   109.8800469 414.216000
   2492   2491   2493     1   108.4600466 328.025600
   2493   2491   2494     1   109.5600471 388.275200
   2493   2491   2497     1   109.8800469 414.216000
   2494   2514   2515     1   117.6800502 383.254400
   2495   2494   2514     1   108.8800464 416.726400
   2495   2494   2496     1   108.4600466 328.025600
   2496   2494   2514     1   108.8800464 416.726400
   2497   2498   2499     1   109.8800469 414.216000
   2497   2498   2500     1   109.8800469 414.216000
   2497   2501   2502     1   109.8800469 414.216000
   2497   2501   2503     1   109.8800469 414.216000
   2498   2507   2508     1   109.8000471 387.438400
   2498   2507   2509     1   109.8000471 387.438400
   2499   2498   2507     1   109.5600471 388.275200
   2499   2498   2500     1   108.4600466 328.025600
   2500   2498   2507     1   109.5600471 388.275200
   2501   2504   2505     1   109.8000471 387.438400
   2501   2504   2506     1   109.8000471 387.438400
   2502   2501   2504     1   109.5600471 388.275200
   2502   2501   2503     1   108.4600466 328.025600
   2503   2501   2504     1   109.5600471 388.275200
   2505   2504   2510     1   108.7700466 392.459200
   2505   2504   2506     1   107.5800459 329.699200
   2506   2504   2510     1   108.7700466 392.459200
   2508   2507   2511     1   108.7700466 392.459200
   2508   2507   2509     1   107.5800459 329.699200
   2509   2507   2511     1   108.7700466 392.459200
   2510   4053   4054     1   117.5500507 404.174400
   2511   4065   4066     1   117.5500507 404.174400
   2516   2519   2520     1   109.5600471 388.275200
   2516   2519   2521     1   109.5600471 388.275200
   2517   2516   2519     1   109.5600471 388.275200
   2517   2516   2522     1   109.8800469 414.216000
   2517   2516   2518     1   108.4600466 328.025600
   2518   2516   2519     1   109.5600471 388.275200
   2518   2516   2522     1   109.8800469 414.216000
   2519   2539   2540     1   117.6800502 383.254400
   2520   2519   2539     1   108.8800464 416.726400
   2520   2519   2521     1   108.4600466 328.025600
   2521   2519   2539     1   108.8800464 416.726400
   2522   2523   2524     1   109.8800469 414.216000
   2522   2523   2525     1   109.8800469 414.216000
   2522   2526   2527     1   109.8800469 414.216000
   2522   2526   2528     1   109.8800469 414.216000
   2523   2532   2533     1   109.8000471 387.438400
   2523   2532   2534     1   109.8000471 387.438400
   2524   2523   2532     1   109.5600471 388.275200
   2524   2523   2525     1   108.4600466 328.025600
   2525   2523   2532     1   109.5600471 388.275200
   2526   2529   2530     1   109.8000471 387.438400
   2526   2529   2531     1   109.8000471 387.438400
   2527   2526   2529     1   109.5600471 388.275200
   2527   2526   2528     1   108.4600466 328.025600
   2528   2526   2529     1   109.5600471 388.275200
   2530   2529   2535     1   108.7700466 392.459200
   2530   2529   2531     1   107.5800459 329.699200
   2531   2529   2535     1   108.7700466 392.459200
   2533   2532   2536     1   108.7700466 392.459200
   2533   2532   2534     1   107.5800459 329.699200
   2534   2532   2536     1   108.7700466 392.459200
   2535   4077   4078     1   117.5500507 404.174400
   2536   4089   4090     1   117.5500507 404.174400
   2541   2544   2545     1   109.5600471 388.275200
   2541   2544   2546     1   109.5600471 388.275200
   2542   2541   2544     1   109.5600471 388.275200
   2542   2541   2547     1   109.8800469 414.216000
   2542   2541   2543     1   108.4600466 328.025600
   2543   2541   2544     1   109.5600471 388.275200
   2543   2541   2547     1   109.8800469 414.216000
   2544   2564   2565     1   117.6800502 383.254400
   2545   2544   2564     1   108.8800464 416.726400
   2545   2544   2546     1   108.4600466 328.025600
   2546   2544   2564     1   108.8800464 416.726400
   2547   2548   2549     1   109.8800469 414.216000
   2547   2548   2550     1   109.8800469 414.216000
   2547   2551   2552     1   109.8800469 414.216000
   2547   2551   2553     1   109.8800469 414.216000
   2548   2557   2558     1   109.8000471 387.438400
   2548   2557   2559     1   109.8000471 387.438400
   2549   2548   2557     1   109.5600471 388.275200
   2549   2548   2550     1   108.4600466 328.025600
   2550   2548   2557     1   109.5600471 388.275200
   2551   2554   2555     1   109.8000471 387.438400
   2551   2554   2556     1   109.8000471 387.438400
   2552   2551   2554     1   109.5600471 388.275200
   2552   2551   2553     1   108.4600466 328.025600
   2553   2551   2554     1   109.5600471 388.275200
   2555   2554   2560     1   108.7700466 392.459200
   2555   2554   2556     1   107.5800459 329.699200
   2556   2554   2560     1   108.7700466 392.459200
   2558   2557   2561     1   108.7700466 392.459200
   2558   2557   2559     1   107.5800459 329.699200
   2559   2557   2561     1   108.7700466 392.459200
   2560   4101   4102     1   117.5500507 404.174400
   2561   4113   4114     1   117.5500507 404.174400
   2566   2569   2570     1   109.5600471 388.275200
   2566   2569   2571     1   109.5600471 388.275200
   2567   2566   2569     1   109.5600471 388.275200
   2567   2566   2572     1   109.8800469 414.216000
   2567   2566   2568     1   108.4600466 328.025600
   2568   2566   2569     1   109.5600471 388.275200
   2568   2566   2572     1   109.8800469 414.216000
   2569   2589   2590     1   117.6800502 383.254400
   2570   2569   2589     1   108.8800464 416.726400
   2570   2569   2571     1   108.4600466 328.025600
   2571   2569   2589     1   108.8800464 416.726400
   2572   2573   2574     1   109.8800469 414.216000
   2572   2573   2575     1   109.8800469 414.216000
   2572   2576   2577     1   109.8800469 414.216000
   2572   2576   2578     1   109.8800469 414.216000
   2573   2582   2583     1   109.8000471 387.438400
   2573   2582   2584     1   109.8000471 387.438400
   2574   2573   2582     1   109.5600471 388.275200
   2574   2573   2575     1   108.4600466 328.025600
   2575   2573   2582     1   109.5600471 388.275200
   2576   2579   2580     1   109.8000471 387.438400
   2576   2579   2581     1   109.8000471 387.438400
   2577   2576   2579     1   109.5600471 388.275200
   2577   2576   2578     1   108.4600466 328.025600
   2578   2576   2579     1   109.5600471 388.275200
   2580   2579   2585     1   108.7700466 392.459200
   2580   2579   2581     1   107.5800459 329.699200
   2581   2579   2585     1   108.7700466 392.459200
   2583   2582   2586     1   108.7700466 392.459200
   2583   2582   2584     1   107.5800459 329.699200
   2584   2582   2586     1   108.7700466 392.459200
   2585   4125   4126     1   117.5500507 404.174400
   2586   4137   4138     1   117.5500507 404.174400
   2591   2594   2595     1   109.5600471 388.275200
   2591   2594   2596     1   109.5600471 388.275200
   2592   2591   2594     1   109.5600471 388.275200
   2592   2591   2597     1   109.8800469 414.216000
   2592   2591   2593     1   108.4600466 328.025600
   2593   2591   2594     1   109.5600471 388.275200
   2593   2591   2597     1   109.8800469 414.216000
   2594   2614   2615     1   117.6800502 383.254400
   2595   2594   2614     1   108.8800464 416.726400
   2595   2594   2596     1   108.4600466 328.025600
   2596   2594   2614     1   108.8800464 416.726400
   2597   2598   2599     1   109.8800469 414.216000
   2597   2598   2600     1   109.8800469 414.216000
   2597   2601   2602     1   109.8800469 414.216000
   2597   2601   2603     1   109.8800469 414.216000
   2598   2607   2608     1   109.8000471 387.438400
   2598   2607   2609     1   109.8000471 387.438400
   2599   2598   2607     1   109.5600471 388.275200
   2599   2598   2600     1   108.4600466 328.025600
   2600   2598   2607     1   109.5600471 388.275200
   2601   2604   2605     1   109.8000471 387.438400
   2601   2604   2606     1   109.8000471 387.438400
   2602   2601   2604     1   109.5600471 388.275200
   2602   2601   2603     1   108.4600466 328.025600
   2603   2601   2604     1   109.5600471 388.275200
   2605   2604   2610     1   108.7700466 392.459200
   2605   2604   2606     1   107.5800459 329.699200
   2606   2604   2610     1   108.7700466 392.459200
   2608   2607   2611     1   108.7700466 392.459200
   2608   2607   2609     1   107.5800459 329.699200
   2609   2607   2611     1   108.7700466 392.459200
   2610   4149   4150     1   117.5500507 404.174400
   2611   4161   4162     1   117.5500507 404.174400
   2616   2619   2620     1   109.5600471 388.275200
   2616   2619   2621     1   109.5600471 388.275200
   2617   2616   2619     1   109.5600471 388.275200
   2617   2616   2622     1   109.8800469 414.216000
   2617   2616   2618     1   108.4600466 328.025600
   2618   2616   2619     1   109.5600471 388.275200
   2618   2616   2622     1   109.8800469 414.216000
   2619   2639   2640     1   117.6800502 383.254400
   2620   2619   2639     1   108.8800464 416.726400
   2620   2619   2621     1   108.4600466 328.025600
   2621   2619   2639     1   108.8800464 416.726400
   2622   2623   2624     1   109.8800469 414.216000
   2622   2623   2625     1   109.8800469 414.216000
   2622   2626   2627     1   109.8800469 414.216000
   2622   2626   2628     1   109.8800469 414.216000
   2623   2632   2633     1   109.8000471 387.438400
   2623   2632   2634     1   109.8000471 387.438400
   2624   2623   2632     1   109.5600471 388.275200
   2624   2623   2625     1   108.4600466 328.025600
   2625   2623   2632     1   109.5600471 388.275200
   2626   2629   2630     1   109.8000471 387.438400
   2626   2629   2631     1   109.8000471 387.438400
   2627   2626   2629     1   109.5600471 388.275200
   2627   2626   2628     1   108.4600466 328.025600
   2628   2626   2629     1   109.5600471 388.275200
   2630   2629   2635     1   108.7700466 392.459200
   2630   2629   2631     1   107.5800459 329.699200
   2631   2629   2635     1   108.7700466 392.459200
   2633   2632   2636     1   108.7700466 392.459200
   2633   2632   2634     1   107.5800459 329.699200
   2634   2632   2636     1   108.7700466 392.459200
   2635   4173   4174     1   117.5500507 404.174400
   2636   4185   4186     1   117.5500507 404.174400
   2641   2644   2645     1   109.5600471 388.275200
   2641   2644   2646     1   109.5600471 388.275200
   2642   2641   2644     1   109.5600471 388.275200
   2642   2641   2647     1   109.8800469 414.216000
   2642   2641   2643     1   108.4600466 328.025600
   2643   2641   2644     1   109.5600471 388.275200
   2643   2641   2647     1   109.8800469 414.216000
   2644   2664   2665     1   117.6800502 383.254400
   2645   2644   2664     1   108.8800464 416.726400
   2645   2644   2646     1   108.4600466 328.025600
   2646   2644   2664     1   108.8800464 416.726400
   2647   2648   2649     1   109.8800469 414.216000
   2647   2648   2650     1   109.8800469 414.216000
   2647   2651   2652     1   109.8800469 414.216000
   2647   2651   2653     1   109.8800469 414.216000
   2648   2657   2658     1   109.8000471 387.438400
   2648   2657   2659     1   109.8000471 387.438400
   2649   2648   2657     1   109.5600471 388.275200
   2649   2648   2650     1   108.4600466 328.025600
   2650   2648   2657     1   109.5600471 388.275200
   2651   2654   2655     1   109.8000471 387.438400
   2651   2654   2656     1   109.8000471 387.438400
   2652   2651   2654     1   109.5600471 388.275200
   2652   2651   2653     1   108.4600466 328.025600
   2653   2651   2654     1   109.5600471 388.275200
   2655   2654   2660     1   108.7700466 392.459200
   2655   2654   2656     1   107.5800459 329.699200
   2656   2654   2660     1   108.7700466 392.459200
   2658   2657   2661     1   108.7700466 392.459200
   2658   2657   2659     1   107.5800459 329.699200
   2659   2657   2661     1   108.7700466 392.459200
   2660   4197   4198     1   117.5500507 404.174400
   2661   4209   4210     1   117.5500507 404.174400
   2666   2669   2670     1   109.5600471 388.275200
   2666   2669   2671     1   109.5600471 388.275200
   2667   2666   2669     1   109.5600471 388.275200
   2667   2666   2672     1   109.8800469 414.216000
   2667   2666   2668     1   108.4600466 328.025600
   2668   2666   2669     1   109.5600471 388.275200
   2668   2666   2672     1   109.8800469 414.216000
   2669   2689   2690     1   117.6800502 383.254400
   2670   2669   2689     1   108.8800464 416.726400
   2670   2669   2671     1   108.4600466 328.025600
   2671   2669   2689     1   108.8800464 416.726400
   2672   2673   2674     1   109.8800469 414.216000
   2672   2673   2675     1   109.8800469 414.216000
   2672   2676   2677     1   109.8800469 414.216000
   2672   2676   2678     1   109.8800469 414.216000
   2673   2682   2683     1   109.8000471 387.438400
   2673   2682   2684     1   109.8000471 387.438400
   2674   2673   2682     1   109.5600471 388.275200
   2674   2673   2675     1   108.4600466 328.025600
   2675   2673   2682     1   109.5600471 388.275200
   2676   2679   2680     1   109.8000471 387.438400
   2676   2679   2681     1   109.8000471 387.438400
   2677   2676   2679     1   109.5600471 388.275200
   2677   2676   2678     1   108.4600466 328.025600
   2678   2676   2679     1   109.5600471 388.275200
   2680   2679   2685     1   108.7700466 392.459200
   2680   2679   2681     1   107.5800459 329.699200
   2681   2679   2685     1   108.7700466 392.459200
   2683   2682   2686     1   108.7700466 392.459200
   2683   2682   2684     1   107.5800459 329.699200
   2684   2682   2686     1   108.7700466 392.459200
   2685   4221   4222     1   117.5500507 404.174400
   2686   4233   4234     1   117.5500507 404.174400
   2691   2694   2695     1   109.5600471 388.275200
   2691   2694   2696     1   109.5600471 388.275200
   2692   2691   2694     1   109.5600471 388.275200
   2692   2691   2697     1   109.8800469 414.216000
   2692   2691   2693     1   108.4600466 328.025600
   2693   2691   2694     1   109.5600471 388.275200
   2693   2691   2697     1   109.8800469 414.216000
   2694   2714   2715     1   117.6800502 383.254400
   2695   2694   2714     1   108.8800464 416.726400
   2695   2694   2696     1   108.4600466 328.025600
   2696   2694   2714     1   108.8800464 416.726400
   2697   2698   2699     1   109.8800469 414.216000
   2697   2698   2700     1   109.8800469 414.216000
   2697   2701   2702     1   109.8800469 414.216000
   2697   2701   2703     1   109.8800469 414.216000
   2698   2707   2708     1   109.8000471 387.438400
   2698   2707   2709     1   109.8000471 387.438400
   2699   2698   2707     1   109.5600471 388.275200
   2699   2698   2700     1   108.4600466 328.025600
   2700   2698   2707     1   109.5600471 388.275200
   2701   2704   2705     1   109.8000471 387.438400
   2701   2704   2706     1   109.8000471 387.438400
   2702   2701   2704     1   109.5600471 388.275200
   2702   2701   2703     1   108.4600466 328.025600
   2703   2701   2704     1   109.5600471 388.275200
   2705   2704   2710     1   108.7700466 392.459200
   2705   2704   2706     1   107.5800459 329.699200
   2706   2704   2710     1   108.7700466 392.459200
   2708   2707   2711     1   108.7700466 392.459200
   2708   2707   2709     1   107.5800459 329.699200
   2709   2707   2711     1   108.7700466 392.459200
   2710   4245   4246     1   117.5500507 404.174400
   2711   4257   4258     1   117.5500507 404.174400
   2716   2719   2720     1   109.5600471 388.275200
   2716   2719   2721     1   109.5600471 388.275200
   2717   2716   2719     1   109.5600471 388.275200
   2717   2716   2722     1   109.8800469 414.216000
   2717   2716   2718     1   108.4600466 328.025600
   2718   2716   2719     1   109.5600471 388.275200
   2718   2716   2722     1   109.8800469 414.216000
   2719   2739   2740     1   117.6800502 383.254400
   2720   2719   2739     1   108.8800464 416.726400
   2720   2719   2721     1   108.4600466 328.025600
   2721   2719   2739     1   108.8800464 416.726400
   2722   2723   2724     1   109.8800469 414.216000
   2722   2723   2725     1   109.8800469 414.216000
   2722   2726   2727     1   109.8800469 414.216000
   2722   2726   2728     1   109.8800469 414.216000
   2723   2732   2733     1   109.8000471 387.438400
   2723   2732   2734     1   109.8000471 387.438400
   2724   2723   2732     1   109.5600471 388.275200
   2724   2723   2725     1   108.4600466 328.025600
   2725   2723   2732     1   109.5600471 388.275200
   2726   2729   2730     1   109.8000471 387.438400
   2726   2729   2731     1   109.8000471 387.438400
   2727   2726   2729     1   109.5600471 388.275200
   2727   2726   2728     1   108.4600466 328.025600
   2728   2726   2729     1   109.5600471 388.275200
   2730   2729   2735     1   108.7700466 392.459200
   2730   2729   2731     1   107.5800459 329.699200
   2731   2729   2735     1   108.7700466 392.459200
   2733   2732   2736     1   108.7700466 392.459200
   2733   2732   2734     1   107.5800459 329.699200
   2734   2732   2736     1   108.7700466 392.459200
   2735   4269   4270     1   117.5500507 404.174400
   2736   4281   4282     1   117.5500507 404.174400
   2741   2744   2745     1   109.5600471 388.275200
   2741   2744   2746     1   109.5600471 388.275200
   2742   2741   2744     1   109.5600471 388.275200
   2742   2741   2747     1   109.8800469 414.216000
   2742   2741   2743     1   108.4600466 328.025600
   2743   2741   2744     1   109.5600471 388.275200
   2743   2741   2747     1   109.8800469 414.216000
   2744   2764   2765     1   117.6800502 383.254400
   2745   2744   2764     1   108.8800464 416.726400
   2745   2744   2746     1   108.4600466 328.025600
   2746   2744   2764     1   108.8800464 416.726400
   2747   2748   2749     1   109.8800469 414.216000
   2747   2748   2750     1   109.8800469 414.216000
   2747   2751   2752     1   109.8800469 414.216000
   2747   2751   2753     1   109.8800469 414.216000
   2748   2757   2758     1   109.8000471 387.438400
   2748   2757   2759     1   109.8000471 387.438400
   2749   2748   2757     1   109.5600471 388.275200
   2749   2748   2750     1   108.4600466 328.025600
   2750   2748   2757     1   109.5600471 388.275200
   2751   2754   2755     1   109.8000471 387.438400
   2751   2754   2756     1   109.8000471 387.438400
   2752   2751   2754     1   109.5600471 388.275200
   2752   2751   2753     1   108.4600466 328.025600
   2753   2751   2754     1   109.5600471 388.275200
   2755   2754   2760     1   108.7700466 392.459200
   2755   2754   2756     1   107.5800459 329.699200
   2756   2754   2760     1   108.7700466 392.459200
   2758   2757   2761     1   108.7700466 392.459200
   2758   2757   2759     1   107.5800459 329.699200
   2759   2757   2761     1   108.7700466 392.459200
   2760   4293   4294     1   117.5500507 404.174400
   2761   4305   4306     1   117.5500507 404.174400
   2766   2769   2770     1   109.5600471 388.275200
   2766   2769   2771     1   109.5600471 388.275200
   2767   2766   2769     1   109.5600471 388.275200
   2767   2766   2772     1   109.8800469 414.216000
   2767   2766   2768     1   108.4600466 328.025600
   2768   2766   2769     1   109.5600471 388.275200
   2768   2766   2772     1   109.8800469 414.216000
   2769   2789   2790     1   117.6800502 383.254400
   2770   2769   2789     1   108.8800464 416.726400
   2770   2769   2771     1   108.4600466 328.025600
   2771   2769   2789     1   108.8800464 416.726400
   2772   2773   2774     1   109.8800469 414.216000
   2772   2773   2775     1   109.8800469 414.216000
   2772   2776   2777     1   109.8800469 414.216000
   2772   2776   2778     1   109.8800469 414.216000
   2773   2782   2783     1   109.8000471 387.438400
   2773   2782   2784     1   109.8000471 387.438400
   2774   2773   2782     1   109.5600471 388.275200
   2774   2773   2775     1   108.4600466 328.025600
   2775   2773   2782     1   109.5600471 388.275200
   2776   2779   2780     1   109.8000471 387.438400
   2776   2779   2781     1   109.8000471 387.438400
   2777   2776   2779     1   109.5600471 388.275200
   2777   2776   2778     1   108.4600466 328.025600
   2778   2776   2779     1   109.5600471 388.275200
   2780   2779   2785     1   108.7700466 392.459200
   2780   2779   2781     1   107.5800459 329.699200
   2781   2779   2785     1   108.7700466 392.459200
   2783   2782   2786     1   108.7700466 392.459200
   2783   2782   2784     1   107.5800459 329.699200
   2784   2782   2786     1   108.7700466 392.459200
   2785   4317   4318     1   117.5500507 404.174400
   2786   4329   4330     1   117.5500507 404.174400
   2791   2794   2795     1   109.5600471 388.275200
   2791   2794   2796     1   109.5600471 388.275200
   2792   2791   2794     1   109.5600471 388.275200
   2792   2791   2797     1   109.8800469 414.216000
   2792   2791   2793     1   108.4600466 328.025600
   2793   2791   2794     1   109.5600471 388.275200
   2793   2791   2797     1   109.8800469 414.216000
   2794   2814   2815     1   117.6800502 383.254400
   2795   2794   2814     1   108.8800464 416.726400
   2795   2794   2796     1   108.4600466 328.025600
   2796   2794   2814     1   108.8800464 416.726400
   2797   2798   2799     1   109.8800469 414.216000
   2797   2798   2800     1   109.8800469 414.216000
   2797   2801   2802     1   109.8800469 414.216000
   2797   2801   2803     1   109.8800469 414.216000
   2798   2807   2808     1   109.8000471 387.438400
   2798   2807   2809     1   109.8000471 387.438400
   2799   2798   2807     1   109.5600471 388.275200
   2799   2798   2800     1   108.4600466 328.025600
   2800   2798   2807     1   109.5600471 388.275200
   2801   2804   2805     1   109.8000471 387.438400
   2801   2804   2806     1   109.8000471 387.438400
   2802   2801   2804     1   109.5600471 388.275200
   2802   2801   2803     1   108.4600466 328.025600
   2803   2801   2804     1   109.5600471 388.275200
   2805   2804   2810     1   108.7700466 392.459200
   2805   2804   2806     1   107.5800459 329.699200
   2806   2804   2810     1   108.7700466 392.459200
   2808   2807   2811     1   108.7700466 392.459200
   2808   2807   2809     1   107.5800459 329.699200
   2809   2807   2811     1   108.7700466 392.459200
   2810   4341   4342     1   117.5500507 404.174400
   2811   4353   4354     1   117.5500507 404.174400
   2816   2819   2820     1   109.5600471 388.275200
   2816   2819   2821     1   109.5600471 388.275200
   2817   2816   2819     1   109.5600471 388.275200
   2817   2816   2822     1   109.8800469 414.216000
   2817   2816   2818     1   108.4600466 328.025600
   2818   2816   2819     1   109.5600471 388.275200
   2818   2816   2822     1   109.8800469 414.216000
   2819   2839   2840     1   117.6800502 383.254400
   2820   2819   2839     1   108.8800464 416.726400
   2820   2819   2821     1   108.4600466 328.025600
   2821   2819   2839     1   108.8800464 416.726400
   2822   2823   2824     1   109.8800469 414.216000
   2822   2823   2825     1   109.8800469 414.216000
   2822   2826   2827     1   109.8800469 414.216000
   2822   2826   2828     1   109.8800469 414.216000
   2823   2832   2833     1   109.8000471 387.438400
   2823   2832   2834     1   109.8000471 387.438400
   2824   2823   2832     1   109.5600471 388.275200
   2824   2823   2825     1   108.4600466 328.025600
   2825   2823   2832     1   109.5600471 388.275200
   2826   2829   2830     1   109.8000471 387.438400
   2826   2829   2831     1   109.8000471 387.438400
   2827   2826   2829     1   109.5600471 388.275200
   2827   2826   2828     1   108.4600466 328.025600
   2828   2826   2829     1   109.5600471 388.275200
   2830   2829   2835     1   108.7700466 392.459200
   2830   2829   2831     1   107.5800459 329.699200
   2831   2829   2835     1   108.7700466 392.459200
   2833   2832   2836     1   108.7700466 392.459200
   2833   2832   2834     1   107.5800459 329.699200
   2834   2832   2836     1   108.7700466 392.459200
   2835   4365   4366     1   117.5500507 404.174400
   2836   4377   4378     1   117.5500507 404.174400
   2841   2844   2845     1   109.5600471 388.275200
   2841   2844   2846     1   109.5600471 388.275200
   2842   2841   2844     1   109.5600471 388.275200
   2842   2841   2847     1   109.8800469 414.216000
   2842   2841   2843     1   108.4600466 328.025600
   2843   2841   2844     1   109.5600471 388.275200
   2843   2841   2847     1   109.8800469 414.216000
   2844   2864   2865     1   117.6800502 383.254400
   2845   2844   2864     1   108.8800464 416.726400
   2845   2844   2846     1   108.4600466 328.025600
   2846   2844   2864     1   108.8800464 416.726400
   2847   2848   2849     1   109.8800469 414.216000
   2847   2848   2850     1   109.8800469 414.216000
   2847   2851   2852     1   109.8800469 414.216000
   2847   2851   2853     1   109.8800469 414.216000
   2848   2857   2858     1   109.8000471 387.438400
   2848   2857   2859     1   109.8000471 387.438400
   2849   2848   2857     1   109.5600471 388.275200
   2849   2848   2850     1   108.4600466 328.025600
   2850   2848   2857     1   109.5600471 388.275200
   2851   2854   2855     1   109.8000471 387.438400
   2851   2854   2856     1   109.8000471 387.438400
   2852   2851   2854     1   109.5600471 388.275200
   2852   2851   2853     1   108.4600466 328.025600
   2853   2851   2854     1   109.5600471 388.275200
   2855   2854   2860     1   108.7700466 392.459200
   2855   2854   2856     1   107.5800459 329.699200
   2856   2854   2860     1   108.7700466 392.459200
   2858   2857   2861     1   108.7700466 392.459200
   2858   2857   2859     1   107.5800459 329.699200
   2859   2857   2861     1   108.7700466 392.459200
   2860   4389   4390     1   117.5500507 404.174400
   2861   4401   4402     1   117.5500507 404.174400
   2866   2869   2870     1   109.5600471 388.275200
   2866   2869   2871     1   109.5600471 388.275200
   2867   2866   2869     1   109.5600471 388.275200
   2867   2866   2872     1   109.8800469 414.216000
   2867   2866   2868     1   108.4600466 328.025600
   2868   2866   2869     1   109.5600471 388.275200
   2868   2866   2872     1   109.8800469 414.216000
   2869   2889   2890     1   117.6800502 383.254400
   2870   2869   2889     1   108.8800464 416.726400
   2870   2869   2871     1   108.4600466 328.025600
   2871   2869   2889     1   108.8800464 416.726400
   2872   2873   2874     1   109.8800469 414.216000
   2872   2873   2875     1   109.8800469 414.216000
   2872   2876   2877     1   109.8800469 414.216000
   2872   2876   2878     1   109.8800469 414.216000
   2873   2882   2883     1   109.8000471 387.438400
   2873   2882   2884     1   109.8000471 387.438400
   2874   2873   2882     1   109.5600471 388.275200
   2874   2873   2875     1   108.4600466 328.025600
   2875   2873   2882     1   109.5600471 388.275200
   2876   2879   2880     1   109.8000471 387.438400
   2876   2879   2881     1   109.8000471 387.438400
   2877   2876   2879     1   109.5600471 388.275200
   2877   2876   2878     1   108.4600466 328.025600
   2878   2876   2879     1   109.5600471 388.275200
   2880   2879   2885     1   108.7700466 392.459200
   2880   2879   2881     1   107.5800459 329.699200
   2881   2879   2885     1   108.7700466 392.459200
   2883   2882   2886     1   108.7700466 392.459200
   2883   2882   2884     1   107.5800459 329.699200
   2884   2882   2886     1   108.7700466 392.459200
   2885   4413   4414     1   117.5500507 404.174400
   2886   4425   4426     1   117.5500507 404.174400
   2891   2894   2895     1   109.5600471 388.275200
   2891   2894   2896     1   109.5600471 388.275200
   2892   2891   2894     1   109.5600471 388.275200
   2892   2891   2897     1   109.8800469 414.216000
   2892   2891   2893     1   108.4600466 328.025600
   2893   2891   2894     1   109.5600471 388.275200
   2893   2891   2897     1   109.8800469 414.216000
   2894   2914   2915     1   117.6800502 383.254400
   2895   2894   2914     1   108.8800464 416.726400
   2895   2894   2896     1   108.4600466 328.025600
   2896   2894   2914     1   108.8800464 416.726400
   2897   2898   2899     1   109.8800469 414.216000
   2897   2898   2900     1   109.8800469 414.216000
   2897   2901   2902     1   109.8800469 414.216000
   2897   2901   2903     1   109.8800469 414.216000
   2898   2907   2908     1   109.8000471 387.438400
   2898   2907   2909     1   109.8000471 387.438400
   2899   2898   2907     1   109.5600471 388.275200
   2899   2898   2900     1   108.4600466 328.025600
   2900   2898   2907     1   109.5600471 388.275200
   2901   2904   2905     1   109.8000471 387.438400
   2901   2904   2906     1   109.8000471 387.438400
   2902   2901   2904     1   109.5600471 388.275200
   2902   2901   2903     1   108.4600466 328.025600
   2903   2901   2904     1   109.5600471 388.275200
   2905   2904   2910     1   108.7700466 392.459200
   2905   2904   2906     1   107.5800459 329.699200
   2906   2904   2910     1   108.7700466 392.459200
   2908   2907   2911     1   108.7700466 392.459200
   2908   2907   2909     1   107.5800459 329.699200
   2909   2907   2911     1   108.7700466 392.459200
   2910   4437   4438     1   117.5500507 404.174400
   2911   4449   4450     1   117.5500507 404.174400
   2916   2919   2920     1   109.5600471 388.275200
   2916   2919   2921     1   109.5600471 388.275200
   2917   2916   2919     1   109.5600471 388.275200
   2917   2916   2922     1   109.8800469 414.216000
   2917   2916   2918     1   108.4600466 328.025600
   2918   2916   2919     1   109.5600471 388.275200
   2918   2916   2922     1   109.8800469 414.216000
   2919   2939   2940     1   117.6800502 383.254400
   2920   2919   2939     1   108.8800464 416.726400
   2920   2919   2921     1   108.4600466 328.025600
   2921   2919   2939     1   108.8800464 416.726400
   2922   2923   2924     1   109.8800469 414.216000
   2922   2923   2925     1   109.8800469 414.216000
   2922   2926   2927     1   109.8800469 414.216000
   2922   2926   2928     1   109.8800469 414.216000
   2923   2932   2933     1   109.8000471 387.438400
   2923   2932   2934     1   109.8000471 387.438400
   2924   2923   2932     1   109.5600471 388.275200
   2924   2923   2925     1   108.4600466 328.025600
   2925   2923   2932     1   109.5600471 388.275200
   2926   2929   2930     1   109.8000471 387.438400
   2926   2929   2931     1   109.8000471 387.438400
   2927   2926   2929     1   109.5600471 388.275200
   2927   2926   2928     1   108.4600466 328.025600
   2928   2926   2929     1   109.5600471 388.275200
   2930   2929   2935     1   108.7700466 392.459200
   2930   2929   2931     1   107.5800459 329.699200
   2931   2929   2935     1   108.7700466 392.459200
   2933   2932   2936     1   108.7700466 392.459200
   2933   2932   2934     1   107.5800459 329.699200
   2934   2932   2936     1   108.7700466 392.459200
   2935   4461   4462     1   117.5500507 404.174400
   2936   4473   4474     1   117.5500507 404.174400
   2941   2944   2945     1   109.5600471 388.275200
   2941   2944   2946     1   109.5600471 388.275200
   2942   2941   2944     1   109.5600471 388.275200
   2942   2941   2947     1   109.8800469 414.216000
   2942   2941   2943     1   108.4600466 328.025600
   2943   2941   2944     1   109.5600471 388.275200
   2943   2941   2947     1   109.8800469 414.216000
   2944   2964   2965     1   117.6800502 383.254400
   2945   2944   2964     1   108.8800464 416.726400
   2945   2944   2946     1   108.4600466 328.025600
   2946   2944   2964     1   108.8800464 416.726400
   2947   2948   2949     1   109.8800469 414.216000
   2947   2948   2950     1   109.8800469 414.216000
   2947   2951   2952     1   109.8800469 414.216000
   2947   2951   2953     1   109.8800469 414.216000
   2948   2957   2958     1   109.8000471 387.438400
   2948   2957   2959     1   109.8000471 387.438400
   2949   2948   2957     1   109.5600471 388.275200
   2949   2948   2950     1   108.4600466 328.025600
   2950   2948   2957     1   109.5600471 388.275200
   2951   2954   2955     1   109.8000471 387.438400
   2951   2954   2956     1   109.8000471 387.438400
   2952   2951   2954     1   109.5600471 388.275200
   2952   2951   2953     1   108.4600466 328.025600
   2953   2951   2954     1   109.5600471 388.275200
   2955   2954   2960     1   108.7700466 392.459200
   2955   2954   2956     1   107.5800459 329.699200
   2956   2954   2960     1   108.7700466 392.459200
   2958   2957   2961     1   108.7700466 392.459200
   2958   2957   2959     1   107.5800459 329.699200
   2959   2957   2961     1   108.7700466 392.459200
   2960   4485   4486     1   117.5500507 404.174400
   2961   4497   4498     1   117.5500507 404.174400
   2966   2969   2970     1   109.5600471 388.275200
   2966   2969   2971     1   109.5600471 388.275200
   2967   2966   2969     1   109.5600471 388.275200
   2967   2966   2972     1   109.8800469 414.216000
   2967   2966   2968     1   108.4600466 328.025600
   2968   2966   2969     1   109.5600471 388.275200
   2968   2966   2972     1   109.8800469 414.216000
   2969   2989   2990     1   117.6800502 383.254400
   2970   2969   2989     1   108.8800464 416.726400
   2970   2969   2971     1   108.4600466 328.025600
   2971   2969   2989     1   108.8800464 416.726400
   2972   2973   2974     1   109.8800469 414.216000
   2972   2973   2975     1   109.8800469 414.216000
   2972   2976   2977     1   109.8800469 414.216000
   2972   2976   2978     1   109.8800469 414.216000
   2973   2982   2983     1   109.8000471 387.438400
   2973   2982   2984     1   109.8000471 387.438400
   2974   2973   2982     1   109.5600471 388.275200
   2974   2973   2975     1   108.4600466 328.025600
   2975   2973   2982     1   109.5600471 388.275200
   2976   2979   2980     1   109.8000471 387.438400
   2976   2979   2981     1   109.8000471 387.438400
   2977   2976   2979     1   109.5600471 388.275200
   2977   2976   2978     1   108.4600466 328.025600
   2978   2976   2979     1   109.5600471 388.275200
   2980   2979   2985     1   108.7700466 392.459200
   2980   2979   2981     1   107.5800459 329.699200
   2981   2979   2985     1   108.7700466 392.459200
   2983   2982   2986     1   108.7700466 392.459200
   2983   2982   2984     1   107.5800459 329.699200
   2984   2982   2986     1   108.7700466 392.459200
   2985   4509   4510     1   117.5500507 404.174400
   2986   4521   4522     1   117.5500507 404.174400
   2991   2994   2995     1   109.5600471 388.275200
   2991   2994   2996     1   109.5600471 388.275200
   2992   2991   2994     1   109.5600471 388.275200
   2992   2991   2997     1   109.8800469 414.216000
   2992   2991   2993     1   108.4600466 328.025600
   2993   2991   2994     1   109.5600471 388.275200
   2993   2991   2997     1   109.8800469 414.216000
   2994   3014   3015     1   117.6800502 383.254400
   2995   2994   3014     1   108.8800464 416.726400
   2995   2994   2996     1   108.4600466 328.025600
   2996   2994   3014     1   108.8800464 416.726400
   2997   2998   2999     1   109.8800469 414.216000
   2997   2998   3000     1   109.8800469 414.216000
   2997   3001   3002     1   109.8800469 414.216000
   2997   3001   3003     1   109.8800469 414.216000
   2998   3007   3008     1   109.8000471 387.438400
   2998   3007   3009     1   109.8000471 387.438400
   2999   2998   3007     1   109.5600471 388.275200
   2999   2998   3000     1   108.4600466 328.025600
   3000   2998   3007     1   109.5600471 388.275200
   3001   3004   3005     1   109.8000471 387.438400
   3001   3004   3006     1   109.8000471 387.438400
   3002   3001   3004     1   109.5600471 388.275200
   3002   3001   3003     1   108.4600466 328.025600
   3003   3001   3004     1   109.5600471 388.275200
   3005   3004   3010     1   108.7700466 392.459200
   3005   3004   3006     1   107.5800459 329.699200
   3006   3004   3010     1   108.7700466 392.459200
   3008   3007   3011     1   108.7700466 392.459200
   3008   3007   3009     1   107.5800459 329.699200
   3009   3007   3011     1   108.7700466 392.459200
   3010   4533   4534     1   117.5500507 404.174400
   3011   4545   4546     1   117.5500507 404.174400
   3016   3019   3020     1   109.5600471 388.275200
   3016   3019   3021     1   109.5600471 388.275200
   3017   3016   3019     1   109.5600471 388.275200
   3017   3016   3022     1   109.8800469 414.216000
   3017   3016   3018     1   108.4600466 328.025600
   3018   3016   3019     1   109.5600471 388.275200
   3018   3016   3022     1   109.8800469 414.216000
   3019   3039   3040     1   117.6800502 383.254400
   3020   3019   3039     1   108.8800464 416.726400
   3020   3019   3021     1   108.4600466 328.025600
   3021   3019   3039     1   108.8800464 416.726400
   3022   3023   3024     1   109.8800469 414.216000
   3022   3023   3025     1   109.8800469 414.216000
   3022   3026   3027     1   109.8800469 414.216000
   3022   3026   3028     1   109.8800469 414.216000
   3023   3032   3033     1   109.8000471 387.438400
   3023   3032   3034     1   109.8000471 387.438400
   3024   3023   3032     1   109.5600471 388.275200
   3024   3023   3025     1   108.4600466 328.025600
   3025   3023   3032     1   109.5600471 388.275200
   3026   3029   3030     1   109.8000471 387.438400
   3026   3029   3031     1   109.8000471 387.438400
   3027   3026   3029     1   109.5600471 388.275200
   3027   3026   3028     1   108.4600466 328.025600
   3028   3026   3029     1   109.5600471 388.275200
   3030   3029   3035     1   108.7700466 392.459200
   3030   3029   3031     1   107.5800459 329.699200
   3031   3029   3035     1   108.7700466 392.459200
   3033   3032   3036     1   108.7700466 392.459200
   3033   3032   3034     1   107.5800459 329.699200
   3034   3032   3036     1   108.7700466 392.459200
   3035   4557   4558     1   117.5500507 404.174400
   3036   4569   4570     1   117.5500507 404.174400
   3041   3044   3045     1   109.5600471 388.275200
   3041   3044   3046     1   109.5600471 388.275200
   3042   3041   3044     1   109.5600471 388.275200
   3042   3041   3047     1   109.8800469 414.216000
   3042   3041   3043     1   108.4600466 328.025600
   3043   3041   3044     1   109.5600471 388.275200
   3043   3041   3047     1   109.8800469 414.216000
   3044   3064   3065     1   117.6800502 383.254400
   3045   3044   3064     1   108.8800464 416.726400
   3045   3044   3046     1   108.4600466 328.025600
   3046   3044   3064     1   108.8800464 416.726400
   3047   3048   3049     1   109.8800469 414.216000
   3047   3048   3050     1   109.8800469 414.216000
   3047   3051   3052     1   109.8800469 414.216000
   3047   3051   3053     1   109.8800469 414.216000
   3048   3057   3058     1   109.8000471 387.438400
   3048   3057   3059     1   109.8000471 387.438400
   3049   3048   3057     1   109.5600471 388.275200
   3049   3048   3050     1   108.4600466 328.025600
   3050   3048   3057     1   109.5600471 388.275200
   3051   3054   3055     1   109.8000471 387.438400
   3051   3054   3056     1   109.8000471 387.438400
   3052   3051   3054     1   109.5600471 388.275200
   3052   3051   3053     1   108.4600466 328.025600
   3053   3051   3054     1   109.5600471 388.275200
   3055   3054   3060     1   108.7700466 392.459200
   3055   3054   3056     1   107.5800459 329.699200
   3056   3054   3060     1   108.7700466 392.459200
   3058   3057   3061     1   108.7700466 392.459200
   3058   3057   3059     1   107.5800459 329.699200
   3059   3057   3061     1   108.7700466 392.459200
   3060   4581   4582     1   117.5500507 404.174400
   3061   4593   4594     1   117.5500507 404.174400
   3066   3069   3070     1   109.5600471 388.275200
   3066   3069   3071     1   109.5600471 388.275200
   3067   3066   3069     1   109.5600471 388.275200
   3067   3066   3072     1   109.8800469 414.216000
   3067   3066   3068     1   108.4600466 328.025600
   3068   3066   3069     1   109.5600471 388.275200
   3068   3066   3072     1   109.8800469 414.216000
   3069   3089   3090     1   117.6800502 383.254400
   3070   3069   3089     1   108.8800464 416.726400
   3070   3069   3071     1   108.4600466 328.025600
   3071   3069   3089     1   108.8800464 416.726400
   3072   3073   3074     1   109.8800469 414.216000
   3072   3073   3075     1   109.8800469 414.216000
   3072   3076   3077     1   109.8800469 414.216000
   3072   3076   3078     1   109.8800469 414.216000
   3073   3082   3083     1   109.8000471 387.438400
   3073   3082   3084     1   109.8000471 387.438400
   3074   3073   3082     1   109.5600471 388.275200
   3074   3073   3075     1   108.4600466 328.025600
   3075   3073   3082     1   109.5600471 388.275200
   3076   3079   3080     1   109.8000471 387.438400
   3076   3079   3081     1   109.8000471 387.438400
   3077   3076   3079     1   109.5600471 388.275200
   3077   3076   3078     1   108.4600466 328.025600
   3078   3076   3079     1   109.5600471 388.275200
   3080   3079   3085     1   108.7700466 392.459200
   3080   3079   3081     1   107.5800459 329.699200
   3081   3079   3085     1   108.7700466 392.459200
   3083   3082   3086     1   108.7700466 392.459200
   3083   3082   3084     1   107.5800459 329.699200
   3084   3082   3086     1   108.7700466 392.459200
   3085   4605   4606     1   117.5500507 404.174400
   3086   4617   4618     1   117.5500507 404.174400
   3091   3094   3095     1   109.5600471 388.275200
   3091   3094   3096     1   109.5600471 388.275200
   3092   3091   3094     1   109.5600471 388.275200
   3092   3091   3097     1   109.8800469 414.216000
   3092   3091   3093     1   108.4600466 328.025600
   3093   3091   3094     1   109.5600471 388.275200
   3093   3091   3097     1   109.8800469 414.216000
   3094   3114   3115     1   117.6800502 383.254400
   3095   3094   3114     1   108.8800464 416.726400
   3095   3094   3096     1   108.4600466 328.025600
   3096   3094   3114     1   108.8800464 416.726400
   3097   3098   3099     1   109.8800469 414.216000
   3097   3098   3100     1   109.8800469 414.216000
   3097   3101   3102     1   109.8800469 414.216000
   3097   3101   3103     1   109.8800469 414.216000
   3098   3107   3108     1   109.8000471 387.438400
   3098   3107   3109     1   109.8000471 387.438400
   3099   3098   3107     1   109.5600471 388.275200
   3099   3098   3100     1   108.4600466 328.025600
   3100   3098   3107     1   109.5600471 388.275200
   3101   3104   3105     1   109.8000471 387.438400
   3101   3104   3106     1   109.8000471 387.438400
   3102   3101   3104     1   109.5600471 388.275200
   3102   3101   3103     1   108.4600466 328.025600
   3103   3101   3104     1   109.5600471 388.275200
   3105   3104   3110     1   108.7700466 392.459200
   3105   3104   3106     1   107.5800459 329.699200
   3106   3104   3110     1   108.7700466 392.459200
   3108   3107   3111     1   108.7700466 392.459200
   3108   3107   3109     1   107.5800459 329.699200
   3109   3107   3111     1   108.7700466 392.459200
   3110   4629   4630     1   117.5500507 404.174400
   3111   4641   4642     1   117.5500507 404.174400
   3116   3119   3120     1   109.5600471 388.275200
   3116   3119   3121     1   109.5600471 388.275200
   3117   3116   3119     1   109.5600471 388.275200
   3117   3116   3122     1   109.8800469 414.216000
   3117   3116   3118     1   108.4600466 328.025600
   3118   3116   3119     1   109.5600471 388.275200
   3118   3116   3122     1   109.8800469 414.216000
   3119   3139   3140     1   117.6800502 383.254400
   3120   3119   3139     1   108.8800464 416.726400
   3120   3119   3121     1   108.4600466 328.025600
   3121   3119   3139     1   108.8800464 416.726400
   3122   3123   3124     1   109.8800469 414.216000
   3122   3123   3125     1   109.8800469 414.216000
   3122   3126   3127     1   109.8800469 414.216000
   3122   3126   3128     1   109.8800469 414.216000
   3123   3132   3133     1   109.8000471 387.438400
   3123   3132   3134     1   109.8000471 387.438400
   3124   3123   3132     1   109.5600471 388.275200
   3124   3123   3125     1   108.4600466 328.025600
   3125   3123   3132     1   109.5600471 388.275200
   3126   3129   3130     1   109.8000471 387.438400
   3126   3129   3131     1   109.8000471 387.438400
   3127   3126   3129     1   109.5600471 388.275200
   3127   3126   3128     1   108.4600466 328.025600
   3128   3126   3129     1   109.5600471 388.275200
   3130   3129   3135     1   108.7700466 392.459200
   3130   3129   3131     1   107.5800459 329.699200
   3131   3129   3135     1   108.7700466 392.459200
   3133   3132   3136     1   108.7700466 392.459200
   3133   3132   3134     1   107.5800459 329.699200
   3134   3132   3136     1   108.7700466 392.459200
   3135   4653   4654     1   117.5500507 404.174400
   3136   4665   4666     1   117.5500507 404.174400
   3141   3143   3145     1   108.8800464 416.726400
   3141   3143   3146     1   108.8800464 416.726400
   3142   3141   3143     1   117.6800502 383.254400
   3143   3144   3147     1   110.5600475 386.601600
   3143   3144   3148     1   110.5600475 386.601600
   3144   3143   3145     1   109.5600471 388.275200
   3144   3143   3146     1   109.5600471 388.275200
   3144   3149   3150     1   110.1100470 384.091200
   3144   3149   3151     1   110.1100470 384.091200
   3144   3149   3152     1   110.1100470 384.091200
   3145   3143   3146     1   108.4600466 328.025600
   3147   3144   3149     1   108.0100461 406.684800
   3147   3144   3148     1   109.7500473 328.025600
   3148   3144   3149     1   108.0100461 406.684800
   3150   3149   3151     1   108.3000464 339.740800
   3150   3149   3152     1   108.3000464 339.740800
   3151   3149   3152     1   108.3000464 339.740800
   3153   3155   3157     1   108.8800464 416.726400
   3153   3155   3158     1   108.8800464 416.726400
   3154   3153   3155     1   117.6800502 383.254400
   3155   3156   3159     1   110.5600475 386.601600
   3155   3156   3160     1   110.5600475 386.601600
   3156   3161   3162     1   110.1100470 384.091200
   3156   3161   3163     1   110.1100470 384.091200
   3156   3161   3164     1   110.1100470 384.091200
   3156   3155   3157     1   109.5600471 388.275200
   3156   3155   3158     1   109.5600471 388.275200
   3157   3155   3158     1   108.4600466 328.025600
   3159   3156   3161     1   108.0100461 406.684800
   3159   3156   3160     1   109.7500473 328.025600
   3160   3156   3161     1   108.0100461 406.684800
   3162   3161   3163     1   108.3000464 339.740800
   3162   3161   3164     1   108.3000464 339.740800
   3163   3161   3164     1   108.3000464 339.740800
   3165   3167   3169     1   108.8800464 416.726400
   3165   3167   3170     1   108.8800464 416.726400
   3166   3165   3167     1   117.6800502 383.254400
   3167   3168   3171     1   110.5600475 386.601600
   3167   3168   3172     1   110.5600475 386.601600
   3168   3167   3169     1   109.5600471 388.275200
   3168   3167   3170     1   109.5600471 388.275200
   3168   3173   3174     1   110.1100470 384.091200
   3168   3173   3175     1   110.1100470 384.091200
   3168   3173   3176     1   110.1100470 384.091200
   3169   3167   3170     1   108.4600466 328.025600
   3171   3168   3173     1   108.0100461 406.684800
   3171   3168   3172     1   109.7500473 328.025600
   3172   3168   3173     1   108.0100461 406.684800
   3174   3173   3175     1   108.3000464 339.740800
   3174   3173   3176     1   108.3000464 339.740800
   3175   3173   3176     1   108.3000464 339.740800
   3177   3179   3181     1   108.8800464 416.726400
   3177   3179   3182     1   108.8800464 416.726400
   3178   3177   3179     1   117.6800502 383.254400
   3179   3180   3183     1   110.5600475 386.601600
   3179   3180   3184     1   110.5600475 386.601600
   3180   3185   3186     1   110.1100470 384.091200
   3180   3185   3187     1   110.1100470 384.091200
   3180   3185   3188     1   110.1100470 384.091200
   3180   3179   3181     1   109.5600471 388.275200
   3180   3179   3182     1   109.5600471 388.275200
   3181   3179   3182     1   108.4600466 328.025600
   3183   3180   3185     1   108.0100461 406.684800
   3183   3180   3184     1   109.7500473 328.025600
   3184   3180   3185     1   108.0100461 406.684800
   3186   3185   3187     1   108.3000464 339.740800
   3186   3185   3188     1   108.3000464 339.740800
   3187   3185   3188     1   108.3000464 339.740800
   3189   3191   3193     1   108.8800464 416.726400
   3189   3191   3194     1   108.8800464 416.726400
   3190   3189   3191     1   117.6800502 383.254400
   3191   3192   3195     1   110.5600475 386.601600
   3191   3192   3196     1   110.5600475 386.601600
   3192   3191   3193     1   109.5600471 388.275200
   3192   3191   3194     1   109.5600471 388.275200
   3192   3197   3198     1   110.1100470 384.091200
   3192   3197   3199     1   110.1100470 384.091200
   3192   3197   3200     1   110.1100470 384.091200
   3193   3191   3194     1   108.4600466 328.025600
   3195   3192   3197     1   108.0100461 406.684800
   3195   3192   3196     1   109.7500473 328.025600
   3196   3192   3197     1   108.0100461 406.684800
   3198   3197   3199     1   108.3000464 339.740800
   3198   3197   3200     1   108.3000464 339.740800
   3199   3197   3200     1   108.3000464 339.740800
   3201   3203   3205     1   108.8800464 416.726400
   3201   3203   3206     1   108.8800464 416.726400
   3202   3201   3203     1   117.6800502 383.254400
   3203   3204   3207     1   110.5600475 386.601600
   3203   3204   3208     1   110.5600475 386.601600
   3204   3209   3210     1   110.1100470 384.091200
   3204   3209   3211     1   110.1100470 384.091200
   3204   3209   3212     1   110.1100470 384.091200
   3204   3203   3205     1   109.5600471 388.275200
   3204   3203   3206     1   109.5600471 388.275200
   3205   3203   3206     1   108.4600466 328.025600
   3207   3204   3209     1   108.0100461 406.684800
   3207   3204   3208     1   109.7500473 328.025600
   3208   3204   3209     1   108.0100461 406.684800
   3210   3209   3211     1   108.3000464 339.740800
   3210   3209   3212     1   108.3000464 339.740800
   3211   3209   3212     1   108.3000464 339.740800
   3213   3215   3217     1   108.8800464 416.726400
   3213   3215   3218     1   108.8800464 416.726400
   3214   3213   3215     1   117.6800502 383.254400
   3215   3216   3219     1   110.5600475 386.601600
   3215   3216   3220     1   110.5600475 386.601600
   3216   3215   3217     1   109.5600471 388.275200
   3216   3215   3218     1   109.5600471 388.275200
   3216   3221   3222     1   110.1100470 384.091200
   3216   3221   3223     1   110.1100470 384.091200
   3216   3221   3224     1   110.1100470 384.091200
   3217   3215   3218     1   108.4600466 328.025600
   3219   3216   3221     1   108.0100461 406.684800
   3219   3216   3220     1   109.7500473 328.025600
   3220   3216   3221     1   108.0100461 406.684800
   3222   3221   3223     1   108.3000464 339.740800
   3222   3221   3224     1   108.3000464 339.740800
   3223   3221   3224     1   108.3000464 339.740800
   3225   3227   3229     1   108.8800464 416.726400
   3225   3227   3230     1   108.8800464 416.726400
   3226   3225   3227     1   117.6800502 383.254400
   3227   3228   3231     1   110.5600475 386.601600
   3227   3228   3232     1   110.5600475 386.601600
   3228   3233   3234     1   110.1100470 384.091200
   3228   3233   3235     1   110.1100470 384.091200
   3228   3233   3236     1   110.1100470 384.091200
   3228   3227   3229     1   109.5600471 388.275200
   3228   3227   3230     1   109.5600471 388.275200
   3229   3227   3230     1   108.4600466 328.025600
   3231   3228   3233     1   108.0100461 406.684800
   3231   3228   3232     1   109.7500473 328.025600
   3232   3228   3233     1   108.0100461 406.684800
   3234   3233   3235     1   108.3000464 339.740800
   3234   3233   3236     1   108.3000464 339.740800
   3235   3233   3236     1   108.3000464 339.740800
   3237   3239   3241     1   108.8800464 416.726400
   3237   3239   3242     1   108.8800464 416.726400
   3238   3237   3239     1   117.6800502 383.254400
   3239   3240   3243     1   110.5600475 386.601600
   3239   3240   3244     1   110.5600475 386.601600
   3240   3239   3241     1   109.5600471 388.275200
   3240   3239   3242     1   109.5600471 388.275200
   3240   3245   3246     1   110.1100470 384.091200
   3240   3245   3247     1   110.1100470 384.091200
   3240   3245   3248     1   110.1100470 384.091200
   3241   3239   3242     1   108.4600466 328.025600
   3243   3240   3245     1   108.0100461 406.684800
   3243   3240   3244     1   109.7500473 328.025600
   3244   3240   3245     1   108.0100461 406.684800
   3246   3245   3247     1   108.3000464 339.740800
   3246   3245   3248     1   108.3000464 339.740800
   3247   3245   3248     1   108.3000464 339.740800
   3249   3251   3253     1   108.8800464 416.726400
   3249   3251   3254     1   108.8800464 416.726400
   3250   3249   3251     1   117.6800502 383.254400
   3251   3252   3255     1   110.5600475 386.601600
   3251   3252   3256     1   110.5600475 386.601600
   3252   3257   3258     1   110.1100470 384.091200
   3252   3257   3259     1   110.1100470 384.091200
   3252   3257   3260     1   110.1100470 384.091200
   3252   3251   3253     1   109.5600471 388.275200
   3252   3251   3254     1   109.5600471 388.275200
   3253   3251   3254     1   108.4600466 328.025600
   3255   3252   3257     1   108.0100461 406.684800
   3255   3252   3256     1   109.7500473 328.025600
   3256   3252   3257     1   108.0100461 406.684800
   3258   3257   3259     1   108.3000464 339.740800
   3258   3257   3260     1   108.3000464 339.740800
   3259   3257   3260     1   108.3000464 339.740800
   3261   3263   3265     1   108.8800464 416.726400
   3261   3263   3266     1   108.8800464 416.726400
   3262   3261   3263     1   117.6800502 383.254400
   3263   3264   3267     1   110.5600475 386.601600
   3263   3264   3268     1   110.5600475 386.601600
   3264   3263   3265     1   109.5600471 388.275200
   3264   3263   3266     1   109.5600471 388.275200
   3264   3269   3270     1   110.1100470 384.091200
   3264   3269   3271     1   110.1100470 384.091200
   3264   3269   3272     1   110.1100470 384.091200
   3265   3263   3266     1   108.4600466 328.025600
   3267   3264   3269     1   108.0100461 406.684800
   3267   3264   3268     1   109.7500473 328.025600
   3268   3264   3269     1   108.0100461 406.684800
   3270   3269   3271     1   108.3000464 339.740800
   3270   3269   3272     1   108.3000464 339.740800
   3271   3269   3272     1   108.3000464 339.740800
   3273   3275   3277     1   108.8800464 416.726400
   3273   3275   3278     1   108.8800464 416.726400
   3274   3273   3275     1   117.6800502 383.254400
   3275   3276   3279     1   110.5600475 386.601600
   3275   3276   3280     1   110.5600475 386.601600
   3276   3281   3282     1   110.1100470 384.091200
   3276   3281   3283     1   110.1100470 384.091200
   3276   3281   3284     1   110.1100470 384.091200
   3276   3275   3277     1   109.5600471 388.275200
   3276   3275   3278     1   109.5600471 388.275200
   3277   3275   3278     1   108.4600466 328.025600
   3279   3276   3281     1   108.0100461 406.684800
   3279   3276   3280     1   109.7500473 328.025600
   3280   3276   3281     1   108.0100461 406.684800
   3282   3281   3283     1   108.3000464 339.740800
   3282   3281   3284     1   108.3000464 339.740800
   3283   3281   3284     1   108.3000464 339.740800
   3285   3287   3289     1   108.8800464 416.726400
   3285   3287   3290     1   108.8800464 416.726400
   3286   3285   3287     1   117.6800502 383.254400
   3287   3288   3291     1   110.5600475 386.601600
   3287   3288   3292     1   110.5600475 386.601600
   3288   3287   3289     1   109.5600471 388.275200
   3288   3287   3290     1   109.5600471 388.275200
   3288   3293   3294     1   110.1100470 384.091200
   3288   3293   3295     1   110.1100470 384.091200
   3288   3293   3296     1   110.1100470 384.091200
   3289   3287   3290     1   108.4600466 328.025600
   3291   3288   3293     1   108.0100461 406.684800
   3291   3288   3292     1   109.7500473 328.025600
   3292   3288   3293     1   108.0100461 406.684800
   3294   3293   3295     1   108.3000464 339.740800
   3294   3293   3296     1   108.3000464 339.740800
   3295   3293   3296     1   108.3000464 339.740800
   3297   3299   3301     1   108.8800464 416.726400
   3297   3299   3302     1   108.8800464 416.726400
   3298   3297   3299     1   117.6800502 383.254400
   3299   3300   3303     1   110.5600475 386.601600
   3299   3300   3304     1   110.5600475 386.601600
   3300   3305   3306     1   110.1100470 384.091200
   3300   3305   3307     1   110.1100470 384.091200
   3300   3305   3308     1   110.1100470 384.091200
   3300   3299   3301     1   109.5600471 388.275200
   3300   3299   3302     1   109.5600471 388.275200
   3301   3299   3302     1   108.4600466 328.025600
   3303   3300   3305     1   108.0100461 406.684800
   3303   3300   3304     1   109.7500473 328.025600
   3304   3300   3305     1   108.0100461 406.684800
   3306   3305   3307     1   108.3000464 339.740800
   3306   3305   3308     1   108.3000464 339.740800
   3307   3305   3308     1   108.3000464 339.740800
   3309   3311   3313     1   108.8800464 416.726400
   3309   3311   3314     1   108.8800464 416.726400
   3310   3309   3311     1   117.6800502 383.254400
   3311   3312   3315     1   110.5600475 386.601600
   3311   3312   3316     1   110.5600475 386.601600
   3312   3311   3313     1   109.5600471 388.275200
   3312   3311   3314     1   109.5600471 388.275200
   3312   3317   3318     1   110.1100470 384.091200
   3312   3317   3319     1   110.1100470 384.091200
   3312   3317   3320     1   110.1100470 384.091200
   3313   3311   3314     1   108.4600466 328.025600
   3315   3312   3317     1   108.0100461 406.684800
   3315   3312   3316     1   109.7500473 328.025600
   3316   3312   3317     1   108.0100461 406.684800
   3318   3317   3319     1   108.3000464 339.740800
   3318   3317   3320     1   108.3000464 339.740800
   3319   3317   3320     1   108.3000464 339.740800
   3321   3323   3325     1   108.8800464 416.726400
   3321   3323   3326     1   108.8800464 416.726400
   3322   3321   3323     1   117.6800502 383.254400
   3323   3324   3327     1   110.5600475 386.601600
   3323   3324   3328     1   110.5600475 386.601600
   3324   3329   3330     1   110.1100470 384.091200
   3324   3329   3331     1   110.1100470 384.091200
   3324   3329   3332     1   110.1100470 384.091200
   3324   3323   3325     1   109.5600471 388.275200
   3324   3323   3326     1   109.5600471 388.275200
   3325   3323   3326     1   108.4600466 328.025600
   3327   3324   3329     1   108.0100461 406.684800
   3327   3324   3328     1   109.7500473 328.025600
   3328   3324   3329     1   108.0100461 406.684800
   3330   3329   3331     1   108.3000464 339.740800
   3330   3329   3332     1   108.3000464 339.740800
   3331   3329   3332     1   108.3000464 339.740800
   3333   3335   3337     1   108.8800464 416.726400
   3333   3335   3338     1   108.8800464 416.726400
   3334   3333   3335     1   117.6800502 383.254400
   3335   3336   3339     1   110.5600475 386.601600
   3335   3336   3340     1   110.5600475 386.601600
   3336   3335   3337     1   109.5600471 388.275200
   3336   3335   3338     1   109.5600471 388.275200
   3336   3341   3342     1   110.1100470 384.091200
   3336   3341   3343     1   110.1100470 384.091200
   3336   3341   3344     1   110.1100470 384.091200
   3337   3335   3338     1   108.4600466 328.025600
   3339   3336   3341     1   108.0100461 406.684800
   3339   3336   3340     1   109.7500473 328.025600
   3340   3336   3341     1   108.0100461 406.684800
   3342   3341   3343     1   108.3000464 339.740800
   3342   3341   3344     1   108.3000464 339.740800
   3343   3341   3344     1   108.3000464 339.740800
   3345   3347   3349     1   108.8800464 416.726400
   3345   3347   3350     1   108.8800464 416.726400
   3346   3345   3347     1   117.6800502 383.254400
   3347   3348   3351     1   110.5600475 386.601600
   3347   3348   3352     1   110.5600475 386.601600
   3348   3353   3354     1   110.1100470 384.091200
   3348   3353   3355     1   110.1100470 384.091200
   3348   3353   3356     1   110.1100470 384.091200
   3348   3347   3349     1   109.5600471 388.275200
   3348   3347   3350     1   109.5600471 388.275200
   3349   3347   3350     1   108.4600466 328.025600
   3351   3348   3353     1   108.0100461 406.684800
   3351   3348   3352     1   109.7500473 328.025600
   3352   3348   3353     1   108.0100461 406.684800
   3354   3353   3355     1   108.3000464 339.740800
   3354   3353   3356     1   108.3000464 339.740800
   3355   3353   3356     1   108.3000464 339.740800
   3357   3359   3361     1   108.8800464 416.726400
   3357   3359   3362     1   108.8800464 416.726400
   3358   3357   3359     1   117.6800502 383.254400
   3359   3360   3363     1   110.5600475 386.601600
   3359   3360   3364     1   110.5600475 386.601600
   3360   3359   3361     1   109.5600471 388.275200
   3360   3359   3362     1   109.5600471 388.275200
   3360   3365   3366     1   110.1100470 384.091200
   3360   3365   3367     1   110.1100470 384.091200
   3360   3365   3368     1   110.1100470 384.091200
   3361   3359   3362     1   108.4600466 328.025600
   3363   3360   3365     1   108.0100461 406.684800
   3363   3360   3364     1   109.7500473 328.025600
   3364   3360   3365     1   108.0100461 406.684800
   3366   3365   3367     1   108.3000464 339.740800
   3366   3365   3368     1   108.3000464 339.740800
   3367   3365   3368     1   108.3000464 339.740800
   3369   3371   3373     1   108.8800464 416.726400
   3369   3371   3374     1   108.8800464 416.726400
   3370   3369   3371     1   117.6800502 383.254400
   3371   3372   3375     1   110.5600475 386.601600
   3371   3372   3376     1   110.5600475 386.601600
   3372   3377   3378     1   110.1100470 384.091200
   3372   3377   3379     1   110.1100470 384.091200
   3372   3377   3380     1   110.1100470 384.091200
   3372   3371   3373     1   109.5600471 388.275200
   3372   3371   3374     1   109.5600471 388.275200
   3373   3371   3374     1   108.4600466 328.025600
   3375   3372   3377     1   108.0100461 406.684800
   3375   3372   3376     1   109.7500473 328.025600
   3376   3372   3377     1   108.0100461 406.684800
   3378   3377   3379     1   108.3000464 339.740800
   3378   3377   3380     1   108.3000464 339.740800
   3379   3377   3380     1   108.3000464 339.740800
   3381   3383   3385     1   108.8800464 416.726400
   3381   3383   3386     1   108.8800464 416.726400
   3382   3381   3383     1   117.6800502 383.254400
   3383   3384   3387     1   110.5600475 386.601600
   3383   3384   3388     1   110.5600475 386.601600
   3384   3383   3385     1   109.5600471 388.275200
   3384   3383   3386     1   109.5600471 388.275200
   3384   3389   3390     1   110.1100470 384.091200
   3384   3389   3391     1   110.1100470 384.091200
   3384   3389   3392     1   110.1100470 384.091200
   3385   3383   3386     1   108.4600466 328.025600
   3387   3384   3389     1   108.0100461 406.684800
   3387   3384   3388     1   109.7500473 328.025600
   3388   3384   3389     1   108.0100461 406.684800
   3390   3389   3391     1   108.3000464 339.740800
   3390   3389   3392     1   108.3000464 339.740800
   3391   3389   3392     1   108.3000464 339.740800
   3393   3395   3397     1   108.8800464 416.726400
   3393   3395   3398     1   108.8800464 416.726400
   3394   3393   3395     1   117.6800502 383.254400
   3395   3396   3399     1   110.5600475 386.601600
   3395   3396   3400     1   110.5600475 386.601600
   3396   3401   3402     1   110.1100470 384.091200
   3396   3401   3403     1   110.1100470 384.091200
   3396   3401   3404     1   110.1100470 384.091200
   3396   3395   3397     1   109.5600471 388.275200
   3396   3395   3398     1   109.5600471 388.275200
   3397   3395   3398     1   108.4600466 328.025600
   3399   3396   3401     1   108.0100461 406.684800
   3399   3396   3400     1   109.7500473 328.025600
   3400   3396   3401     1   108.0100461 406.684800
   3402   3401   3403     1   108.3000464 339.740800
   3402   3401   3404     1   108.3000464 339.740800
   3403   3401   3404     1   108.3000464 339.740800
   3405   3407   3409     1   108.8800464 416.726400
   3405   3407   3410     1   108.8800464 416.726400
   3406   3405   3407     1   117.6800502 383.254400
   3407   3408   3411     1   110.5600475 386.601600
   3407   3408   3412     1   110.5600475 386.601600
   3408   3407   3409     1   109.5600471 388.275200
   3408   3407   3410     1   109.5600471 388.275200
   3408   3413   3414     1   110.1100470 384.091200
   3408   3413   3415     1   110.1100470 384.091200
   3408   3413   3416     1   110.1100470 384.091200
   3409   3407   3410     1   108.4600466 328.025600
   3411   3408   3413     1   108.0100461 406.684800
   3411   3408   3412     1   109.7500473 328.025600
   3412   3408   3413     1   108.0100461 406.684800
   3414   3413   3415     1   108.3000464 339.740800
   3414   3413   3416     1   108.3000464 339.740800
   3415   3413   3416     1   108.3000464 339.740800
   3417   3419   3421     1   108.8800464 416.726400
   3417   3419   3422     1   108.8800464 416.726400
   3418   3417   3419     1   117.6800502 383.254400
   3419   3420   3423     1   110.5600475 386.601600
   3419   3420   3424     1   110.5600475 386.601600
   3420   3425   3426     1   110.1100470 384.091200
   3420   3425   3427     1   110.1100470 384.091200
   3420   3425   3428     1   110.1100470 384.091200
   3420   3419   3421     1   109.5600471 388.275200
   3420   3419   3422     1   109.5600471 388.275200
   3421   3419   3422     1   108.4600466 328.025600
   3423   3420   3425     1   108.0100461 406.684800
   3423   3420   3424     1   109.7500473 328.025600
   3424   3420   3425     1   108.0100461 406.684800
   3426   3425   3427     1   108.3000464 339.740800
   3426   3425   3428     1   108.3000464 339.740800
   3427   3425   3428     1   108.3000464 339.740800
   3429   3431   3433     1   108.8800464 416.726400
   3429   3431   3434     1   108.8800464 416.726400
   3430   3429   3431     1   117.6800502 383.254400
   3431   3432   3435     1   110.5600475 386.601600
   3431   3432   3436     1   110.5600475 386.601600
   3432   3431   3433     1   109.5600471 388.275200
   3432   3431   3434     1   109.5600471 388.275200
   3432   3437   3438     1   110.1100470 384.091200
   3432   3437   3439     1   110.1100470 384.091200
   3432   3437   3440     1   110.1100470 384.091200
   3433   3431   3434     1   108.4600466 328.025600
   3435   3432   3437     1   108.0100461 406.684800
   3435   3432   3436     1   109.7500473 328.025600
   3436   3432   3437     1   108.0100461 406.684800
   3438   3437   3439     1   108.3000464 339.740800
   3438   3437   3440     1   108.3000464 339.740800
   3439   3437   3440     1   108.3000464 339.740800
   3441   3443   3445     1   108.8800464 416.726400
   3441   3443   3446     1   108.8800464 416.726400
   3442   3441   3443     1   117.6800502 383.254400
   3443   3444   3447     1   110.5600475 386.601600
   3443   3444   3448     1   110.5600475 386.601600
   3444   3449   3450     1   110.1100470 384.091200
   3444   3449   3451     1   110.1100470 384.091200
   3444   3449   3452     1   110.1100470 384.091200
   3444   3443   3445     1   109.5600471 388.275200
   3444   3443   3446     1   109.5600471 388.275200
   3445   3443   3446     1   108.4600466 328.025600
   3447   3444   3449     1   108.0100461 406.684800
   3447   3444   3448     1   109.7500473 328.025600
   3448   3444   3449     1   108.0100461 406.684800
   3450   3449   3451     1   108.3000464 339.740800
   3450   3449   3452     1   108.3000464 339.740800
   3451   3449   3452     1   108.3000464 339.740800
   3453   3455   3457     1   108.8800464 416.726400
   3453   3455   3458     1   108.8800464 416.726400
   3454   3453   3455     1   117.6800502 383.254400
   3455   3456   3459     1   110.5600475 386.601600
   3455   3456   3460     1   110.5600475 386.601600
   3456   3455   3457     1   109.5600471 388.275200
   3456   3455   3458     1   109.5600471 388.275200
   3456   3461   3462     1   110.1100470 384.091200
   3456   3461   3463     1   110.1100470 384.091200
   3456   3461   3464     1   110.1100470 384.091200
   3457   3455   3458     1   108.4600466 328.025600
   3459   3456   3461     1   108.0100461 406.684800
   3459   3456   3460     1   109.7500473 328.025600
   3460   3456   3461     1   108.0100461 406.684800
   3462   3461   3463     1   108.3000464 339.740800
   3462   3461   3464     1   108.3000464 339.740800
   3463   3461   3464     1   108.3000464 339.740800
   3465   3467   3469     1   108.8800464 416.726400
   3465   3467   3470     1   108.8800464 416.726400
   3466   3465   3467     1   117.6800502 383.254400
   3467   3468   3471     1   110.5600475 386.601600
   3467   3468   3472     1   110.5600475 386.601600
   3468   3473   3474     1   110.1100470 384.091200
   3468   3473   3475     1   110.1100470 384.091200
   3468   3473   3476     1   110.1100470 384.091200
   3468   3467   3469     1   109.5600471 388.275200
   3468   3467   3470     1   109.5600471 388.275200
   3469   3467   3470     1   108.4600466 328.025600
   3471   3468   3473     1   108.0100461 406.684800
   3471   3468   3472     1   109.7500473 328.025600
   3472   3468   3473     1   108.0100461 406.684800
   3474   3473   3475     1   108.3000464 339.740800
   3474   3473   3476     1   108.3000464 339.740800
   3475   3473   3476     1   108.3000464 339.740800
   3477   3479   3481     1   108.8800464 416.726400
   3477   3479   3482     1   108.8800464 416.726400
   3478   3477   3479     1   117.6800502 383.254400
   3479   3480   3483     1   110.5600475 386.601600
   3479   3480   3484     1   110.5600475 386.601600
   3480   3479   3481     1   109.5600471 388.275200
   3480   3479   3482     1   109.5600471 388.275200
   3480   3485   3486     1   110.1100470 384.091200
   3480   3485   3487     1   110.1100470 384.091200
   3480   3485   3488     1   110.1100470 384.091200
   3481   3479   3482     1   108.4600466 328.025600
   3483   3480   3485     1   108.0100461 406.684800
   3483   3480   3484     1   109.7500473 328.025600
   3484   3480   3485     1   108.0100461 406.684800
   3486   3485   3487     1   108.3000464 339.740800
   3486   3485   3488     1   108.3000464 339.740800
   3487   3485   3488     1   108.3000464 339.740800
   3489   3491   3493     1   108.8800464 416.726400
   3489   3491   3494     1   108.8800464 416.726400
   3490   3489   3491     1   117.6800502 383.254400
   3491   3492   3495     1   110.5600475 386.601600
   3491   3492   3496     1   110.5600475 386.601600
   3492   3497   3498     1   110.1100470 384.091200
   3492   3497   3499     1   110.1100470 384.091200
   3492   3497   3500     1   110.1100470 384.091200
   3492   3491   3493     1   109.5600471 388.275200
   3492   3491   3494     1   109.5600471 388.275200
   3493   3491   3494     1   108.4600466 328.025600
   3495   3492   3497     1   108.0100461 406.684800
   3495   3492   3496     1   109.7500473 328.025600
   3496   3492   3497     1   108.0100461 406.684800
   3498   3497   3499     1   108.3000464 339.740800
   3498   3497   3500     1   108.3000464 339.740800
   3499   3497   3500     1   108.3000464 339.740800
   3501   3503   3505     1   108.8800464 416.726400
   3501   3503   3506     1   108.8800464 416.726400
   3502   3501   3503     1   117.6800502 383.254400
   3503   3504   3507     1   110.5600475 386.601600
   3503   3504   3508     1   110.5600475 386.601600
   3504   3503   3505     1   109.5600471 388.275200
   3504   3503   3506     1   109.5600471 388.275200
   3504   3509   3510     1   110.1100470 384.091200
   3504   3509   3511     1   110.1100470 384.091200
   3504   3509   3512     1   110.1100470 384.091200
   3505   3503   3506     1   108.4600466 328.025600
   3507   3504   3509     1   108.0100461 406.684800
   3507   3504   3508     1   109.7500473 328.025600
   3508   3504   3509     1   108.0100461 406.684800
   3510   3509   3511     1   108.3000464 339.740800
   3510   3509   3512     1   108.3000464 339.740800
   3511   3509   3512     1   108.3000464 339.740800
   3513   3515   3517     1   108.8800464 416.726400
   3513   3515   3518     1   108.8800464 416.726400
   3514   3513   3515     1   117.6800502 383.254400
   3515   3516   3519     1   110.5600475 386.601600
   3515   3516   3520     1   110.5600475 386.601600
   3516   3521   3522     1   110.1100470 384.091200
   3516   3521   3523     1   110.1100470 384.091200
   3516   3521   3524     1   110.1100470 384.091200
   3516   3515   3517     1   109.5600471 388.275200
   3516   3515   3518     1   109.5600471 388.275200
   3517   3515   3518     1   108.4600466 328.025600
   3519   3516   3521     1   108.0100461 406.684800
   3519   3516   3520     1   109.7500473 328.025600
   3520   3516   3521     1   108.0100461 406.684800
   3522   3521   3523     1   108.3000464 339.740800
   3522   3521   3524     1   108.3000464 339.740800
   3523   3521   3524     1   108.3000464 339.740800
   3525   3527   3529     1   108.8800464 416.726400
   3525   3527   3530     1   108.8800464 416.726400
   3526   3525   3527     1   117.6800502 383.254400
   3527   3528   3531     1   110.5600475 386.601600
   3527   3528   3532     1   110.5600475 386.601600
   3528   3527   3529     1   109.5600471 388.275200
   3528   3527   3530     1   109.5600471 388.275200
   3528   3533   3534     1   110.1100470 384.091200
   3528   3533   3535     1   110.1100470 384.091200
   3528   3533   3536     1   110.1100470 384.091200
   3529   3527   3530     1   108.4600466 328.025600
   3531   3528   3533     1   108.0100461 406.684800
   3531   3528   3532     1   109.7500473 328.025600
   3532   3528   3533     1   108.0100461 406.684800
   3534   3533   3535     1   108.3000464 339.740800
   3534   3533   3536     1   108.3000464 339.740800
   3535   3533   3536     1   108.3000464 339.740800
   3537   3539   3541     1   108.8800464 416.726400
   3537   3539   3542     1   108.8800464 416.726400
   3538   3537   3539     1   117.6800502 383.254400
   3539   3540   3543     1   110.5600475 386.601600
   3539   3540   3544     1   110.5600475 386.601600
   3540   3545   3546     1   110.1100470 384.091200
   3540   3545   3547     1   110.1100470 384.091200
   3540   3545   3548     1   110.1100470 384.091200
   3540   3539   3541     1   109.5600471 388.275200
   3540   3539   3542     1   109.5600471 388.275200
   3541   3539   3542     1   108.4600466 328.025600
   3543   3540   3545     1   108.0100461 406.684800
   3543   3540   3544     1   109.7500473 328.025600
   3544   3540   3545     1   108.0100461 406.684800
   3546   3545   3547     1   108.3000464 339.740800
   3546   3545   3548     1   108.3000464 339.740800
   3547   3545   3548     1   108.3000464 339.740800
   3549   3551   3553     1   108.8800464 416.726400
   3549   3551   3554     1   108.8800464 416.726400
   3550   3549   3551     1   117.6800502 383.254400
   3551   3552   3555     1   110.5600475 386.601600
   3551   3552   3556     1   110.5600475 386.601600
   3552   3551   3553     1   109.5600471 388.275200
   3552   3551   3554     1   109.5600471 388.275200
   3552   3557   3558     1   110.1100470 384.091200
   3552   3557   3559     1   110.1100470 384.091200
   3552   3557   3560     1   110.1100470 384.091200
   3553   3551   3554     1   108.4600466 328.025600
   3555   3552   3557     1   108.0100461 406.684800
   3555   3552   3556     1   109.7500473 328.025600
   3556   3552   3557     1   108.0100461 406.684800
   3558   3557   3559     1   108.3000464 339.740800
   3558   3557   3560     1   108.3000464 339.740800
   3559   3557   3560     1   108.3000464 339.740800
   3561   3563   3565     1   108.8800464 416.726400
   3561   3563   3566     1   108.8800464 416.726400
   3562   3561   3563     1   117.6800502 383.254400
   3563   3564   3567     1   110.5600475 386.601600
   3563   3564   3568     1   110.5600475 386.601600
   3564   3569   3570     1   110.1100470 384.091200
   3564   3569   3571     1   110.1100470 384.091200
   3564   3569   3572     1   110.1100470 384.091200
   3564   3563   3565     1   109.5600471 388.275200
   3564   3563   3566     1   109.5600471 388.275200
   3565   3563   3566     1   108.4600466 328.025600
   3567   3564   3569     1   108.0100461 406.684800
   3567   3564   3568     1   109.7500473 328.025600
   3568   3564   3569     1   108.0100461 406.684800
   3570   3569   3571     1   108.3000464 339.740800
   3570   3569   3572     1   108.3000464 339.740800
   3571   3569   3572     1   108.3000464 339.740800
   3573   3575   3577     1   108.8800464 416.726400
   3573   3575   3578     1   108.8800464 416.726400
   3574   3573   3575     1   117.6800502 383.254400
   3575   3576   3579     1   110.5600475 386.601600
   3575   3576   3580     1   110.5600475 386.601600
   3576   3575   3577     1   109.5600471 388.275200
   3576   3575   3578     1   109.5600471 388.275200
   3576   3581   3582     1   110.1100470 384.091200
   3576   3581   3583     1   110.1100470 384.091200
   3576   3581   3584     1   110.1100470 384.091200
   3577   3575   3578     1   108.4600466 328.025600
   3579   3576   3581     1   108.0100461 406.684800
   3579   3576   3580     1   109.7500473 328.025600
   3580   3576   3581     1   108.0100461 406.684800
   3582   3581   3583     1   108.3000464 339.740800
   3582   3581   3584     1   108.3000464 339.740800
   3583   3581   3584     1   108.3000464 339.740800
   3585   3587   3589     1   108.8800464 416.726400
   3585   3587   3590     1   108.8800464 416.726400
   3586   3585   3587     1   117.6800502 383.254400
   3587   3588   3591     1   110.5600475 386.601600
   3587   3588   3592     1   110.5600475 386.601600
   3588   3593   3594     1   110.1100470 384.091200
   3588   3593   3595     1   110.1100470 384.091200
   3588   3593   3596     1   110.1100470 384.091200
   3588   3587   3589     1   109.5600471 388.275200
   3588   3587   3590     1   109.5600471 388.275200
   3589   3587   3590     1   108.4600466 328.025600
   3591   3588   3593     1   108.0100461 406.684800
   3591   3588   3592     1   109.7500473 328.025600
   3592   3588   3593     1   108.0100461 406.684800
   3594   3593   3595     1   108.3000464 339.740800
   3594   3593   3596     1   108.3000464 339.740800
   3595   3593   3596     1   108.3000464 339.740800
   3597   3599   3601     1   108.8800464 416.726400
   3597   3599   3602     1   108.8800464 416.726400
   3598   3597   3599     1   117.6800502 383.254400
   3599   3600   3603     1   110.5600475 386.601600
   3599   3600   3604     1   110.5600475 386.601600
   3600   3599   3601     1   109.5600471 388.275200
   3600   3599   3602     1   109.5600471 388.275200
   3600   3605   3606     1   110.1100470 384.091200
   3600   3605   3607     1   110.1100470 384.091200
   3600   3605   3608     1   110.1100470 384.091200
   3601   3599   3602     1   108.4600466 328.025600
   3603   3600   3605     1   108.0100461 406.684800
   3603   3600   3604     1   109.7500473 328.025600
   3604   3600   3605     1   108.0100461 406.684800
   3606   3605   3607     1   108.3000464 339.740800
   3606   3605   3608     1   108.3000464 339.740800
   3607   3605   3608     1   108.3000464 339.740800
   3609   3611   3613     1   108.8800464 416.726400
   3609   3611   3614     1   108.8800464 416.726400
   3610   3609   3611     1   117.6800502 383.254400
   3611   3612   3615     1   110.5600475 386.601600
   3611   3612   3616     1   110.5600475 386.601600
   3612   3617   3618     1   110.1100470 384.091200
   3612   3617   3619     1   110.1100470 384.091200
   3612   3617   3620     1   110.1100470 384.091200
   3612   3611   3613     1   109.5600471 388.275200
   3612   3611   3614     1   109.5600471 388.275200
   3613   3611   3614     1   108.4600466 328.025600
   3615   3612   3617     1   108.0100461 406.684800
   3615   3612   3616     1   109.7500473 328.025600
   3616   3612   3617     1   108.0100461 406.684800
   3618   3617   3619     1   108.3000464 339.740800
   3618   3617   3620     1   108.3000464 339.740800
   3619   3617   3620     1   108.3000464 339.740800
   3621   3623   3625     1   108.8800464 416.726400
   3621   3623   3626     1   108.8800464 416.726400
   3622   3621   3623     1   117.6800502 383.254400
   3623   3624   3627     1   110.5600475 386.601600
   3623   3624   3628     1   110.5600475 386.601600
   3624   3623   3625     1   109.5600471 388.275200
   3624   3623   3626     1   109.5600471 388.275200
   3624   3629   3630     1   110.1100470 384.091200
   3624   3629   3631     1   110.1100470 384.091200
   3624   3629   3632     1   110.1100470 384.091200
   3625   3623   3626     1   108.4600466 328.025600
   3627   3624   3629     1   108.0100461 406.684800
   3627   3624   3628     1   109.7500473 328.025600
   3628   3624   3629     1   108.0100461 406.684800
   3630   3629   3631     1   108.3000464 339.740800
   3630   3629   3632     1   108.3000464 339.740800
   3631   3629   3632     1   108.3000464 339.740800
   3633   3635   3637     1   108.8800464 416.726400
   3633   3635   3638     1   108.8800464 416.726400
   3634   3633   3635     1   117.6800502 383.254400
   3635   3636   3639     1   110.5600475 386.601600
   3635   3636   3640     1   110.5600475 386.601600
   3636   3641   3642     1   110.1100470 384.091200
   3636   3641   3643     1   110.1100470 384.091200
   3636   3641   3644     1   110.1100470 384.091200
   3636   3635   3637     1   109.5600471 388.275200
   3636   3635   3638     1   109.5600471 388.275200
   3637   3635   3638     1   108.4600466 328.025600
   3639   3636   3641     1   108.0100461 406.684800
   3639   3636   3640     1   109.7500473 328.025600
   3640   3636   3641     1   108.0100461 406.684800
   3642   3641   3643     1   108.3000464 339.740800
   3642   3641   3644     1   108.3000464 339.740800
   3643   3641   3644     1   108.3000464 339.740800
   3645   3647   3649     1   108.8800464 416.726400
   3645   3647   3650     1   108.8800464 416.726400
   3646   3645   3647     1   117.6800502 383.254400
   3647   3648   3651     1   110.5600475 386.601600
   3647   3648   3652     1   110.5600475 386.601600
   3648   3647   3649     1   109.5600471 388.275200
   3648   3647   3650     1   109.5600471 388.275200
   3648   3653   3654     1   110.1100470 384.091200
   3648   3653   3655     1   110.1100470 384.091200
   3648   3653   3656     1   110.1100470 384.091200
   3649   3647   3650     1   108.4600466 328.025600
   3651   3648   3653     1   108.0100461 406.684800
   3651   3648   3652     1   109.7500473 328.025600
   3652   3648   3653     1   108.0100461 406.684800
   3654   3653   3655     1   108.3000464 339.740800
   3654   3653   3656     1   108.3000464 339.740800
   3655   3653   3656     1   108.3000464 339.740800
   3657   3659   3661     1   108.8800464 416.726400
   3657   3659   3662     1   108.8800464 416.726400
   3658   3657   3659     1   117.6800502 383.254400
   3659   3660   3663     1   110.5600475 386.601600
   3659   3660   3664     1   110.5600475 386.601600
   3660   3665   3666     1   110.1100470 384.091200
   3660   3665   3667     1   110.1100470 384.091200
   3660   3665   3668     1   110.1100470 384.091200
   3660   3659   3661     1   109.5600471 388.275200
   3660   3659   3662     1   109.5600471 388.275200
   3661   3659   3662     1   108.4600466 328.025600
   3663   3660   3665     1   108.0100461 406.684800
   3663   3660   3664     1   109.7500473 328.025600
   3664   3660   3665     1   108.0100461 406.684800
   3666   3665   3667     1   108.3000464 339.740800
   3666   3665   3668     1   108.3000464 339.740800
   3667   3665   3668     1   108.3000464 339.740800
   3669   3671   3673     1   108.8800464 416.726400
   3669   3671   3674     1   108.8800464 416.726400
   3670   3669   3671     1   117.6800502 383.254400
   3671   3672   3675     1   110.5600475 386.601600
   3671   3672   3676     1   110.5600475 386.601600
   3672   3671   3673     1   109.5600471 388.275200
   3672   3671   3674     1   109.5600471 388.275200
   3672   3677   3678     1   110.1100470 384.091200
   3672   3677   3679     1   110.1100470 384.091200
   3672   3677   3680     1   110.1100470 384.091200
   3673   3671   3674     1   108.4600466 328.025600
   3675   3672   3677     1   108.0100461 406.684800
   3675   3672   3676     1   109.7500473 328.025600
   3676   3672   3677     1   108.0100461 406.684800
   3678   3677   3679     1   108.3000464 339.740800
   3678   3677   3680     1   108.3000464 339.740800
   3679   3677   3680     1   108.3000464 339.740800
   3681   3683   3685     1   108.8800464 416.726400
   3681   3683   3686     1   108.8800464 416.726400
   3682   3681   3683     1   117.6800502 383.254400
   3683   3684   3687     1   110.5600475 386.601600
   3683   3684   3688     1   110.5600475 386.601600
   3684   3689   3690     1   110.1100470 384.091200
   3684   3689   3691     1   110.1100470 384.091200
   3684   3689   3692     1   110.1100470 384.091200
   3684   3683   3685     1   109.5600471 388.275200
   3684   3683   3686     1   109.5600471 388.275200
   3685   3683   3686     1   108.4600466 328.025600
   3687   3684   3689     1   108.0100461 406.684800
   3687   3684   3688     1   109.7500473 328.025600
   3688   3684   3689     1   108.0100461 406.684800
   3690   3689   3691     1   108.3000464 339.740800
   3690   3689   3692     1   108.3000464 339.740800
   3691   3689   3692     1   108.3000464 339.740800
   3693   3695   3697     1   108.8800464 416.726400
   3693   3695   3698     1   108.8800464 416.726400
   3694   3693   3695     1   117.6800502 383.254400
   3695   3696   3699     1   110.5600475 386.601600
   3695   3696   3700     1   110.5600475 386.601600
   3696   3695   3697     1   109.5600471 388.275200
   3696   3695   3698     1   109.5600471 388.275200
   3696   3701   3702     1   110.1100470 384.091200
   3696   3701   3703     1   110.1100470 384.091200
   3696   3701   3704     1   110.1100470 384.091200
   3697   3695   3698     1   108.4600466 328.025600
   3699   3696   3701     1   108.0100461 406.684800
   3699   3696   3700     1   109.7500473 328.025600
   3700   3696   3701     1   108.0100461 406.684800
   3702   3701   3703     1   108.3000464 339.740800
   3702   3701   3704     1   108.3000464 339.740800
   3703   3701   3704     1   108.3000464 339.740800
   3705   3707   3709     1   108.8800464 416.726400
   3705   3707   3710     1   108.8800464 416.726400
   3706   3705   3707     1   117.6800502 383.254400
   3707   3708   3711     1   110.5600475 386.601600
   3707   3708   3712     1   110.5600475 386.601600
   3708   3713   3714     1   110.1100470 384.091200
   3708   3713   3715     1   110.1100470 384.091200
   3708   3713   3716     1   110.1100470 384.091200
   3708   3707   3709     1   109.5600471 388.275200
   3708   3707   3710     1   109.5600471 388.275200
   3709   3707   3710     1   108.4600466 328.025600
   3711   3708   3713     1   108.0100461 406.684800
   3711   3708   3712     1   109.7500473 328.025600
   3712   3708   3713     1   108.0100461 406.684800
   3714   3713   3715     1   108.3000464 339.740800
   3714   3713   3716     1   108.3000464 339.740800
   3715   3713   3716     1   108.3000464 339.740800
   3717   3719   3721     1   108.8800464 416.726400
   3717   3719   3722     1   108.8800464 416.726400
   3718   3717   3719     1   117.6800502 383.254400
   3719   3720   3723     1   110.5600475 386.601600
   3719   3720   3724     1   110.5600475 386.601600
   3720   3719   3721     1   109.5600471 388.275200
   3720   3719   3722     1   109.5600471 388.275200
   3720   3725   3726     1   110.1100470 384.091200
   3720   3725   3727     1   110.1100470 384.091200
   3720   3725   3728     1   110.1100470 384.091200
   3721   3719   3722     1   108.4600466 328.025600
   3723   3720   3725     1   108.0100461 406.684800
   3723   3720   3724     1   109.7500473 328.025600
   3724   3720   3725     1   108.0100461 406.684800
   3726   3725   3727     1   108.3000464 339.740800
   3726   3725   3728     1   108.3000464 339.740800
   3727   3725   3728     1   108.3000464 339.740800
   3729   3731   3733     1   108.8800464 416.726400
   3729   3731   3734     1   108.8800464 416.726400
   3730   3729   3731     1   117.6800502 383.254400
   3731   3732   3735     1   110.5600475 386.601600
   3731   3732   3736     1   110.5600475 386.601600
   3732   3737   3738     1   110.1100470 384.091200
   3732   3737   3739     1   110.1100470 384.091200
   3732   3737   3740     1   110.1100470 384.091200
   3732   3731   3733     1   109.5600471 388.275200
   3732   3731   3734     1   109.5600471 388.275200
   3733   3731   3734     1   108.4600466 328.025600
   3735   3732   3737     1   108.0100461 406.684800
   3735   3732   3736     1   109.7500473 328.025600
   3736   3732   3737     1   108.0100461 406.684800
   3738   3737   3739     1   108.3000464 339.740800
   3738   3737   3740     1   108.3000464 339.740800
   3739   3737   3740     1   108.3000464 339.740800
   3741   3743   3745     1   108.8800464 416.726400
   3741   3743   3746     1   108.8800464 416.726400
   3742   3741   3743     1   117.6800502 383.254400
   3743   3744   3747     1   110.5600475 386.601600
   3743   3744   3748     1   110.5600475 386.601600
   3744   3743   3745     1   109.5600471 388.275200
   3744   3743   3746     1   109.5600471 388.275200
   3744   3749   3750     1   110.1100470 384.091200
   3744   3749   3751     1   110.1100470 384.091200
   3744   3749   3752     1   110.1100470 384.091200
   3745   3743   3746     1   108.4600466 328.025600
   3747   3744   3749     1   108.0100461 406.684800
   3747   3744   3748     1   109.7500473 328.025600
   3748   3744   3749     1   108.0100461 406.684800
   3750   3749   3751     1   108.3000464 339.740800
   3750   3749   3752     1   108.3000464 339.740800
   3751   3749   3752     1   108.3000464 339.740800
   3753   3755   3757     1   108.8800464 416.726400
   3753   3755   3758     1   108.8800464 416.726400
   3754   3753   3755     1   117.6800502 383.254400
   3755   3756   3759     1   110.5600475 386.601600
   3755   3756   3760     1   110.5600475 386.601600
   3756   3761   3762     1   110.1100470 384.091200
   3756   3761   3763     1   110.1100470 384.091200
   3756   3761   3764     1   110.1100470 384.091200
   3756   3755   3757     1   109.5600471 388.275200
   3756   3755   3758     1   109.5600471 388.275200
   3757   3755   3758     1   108.4600466 328.025600
   3759   3756   3761     1   108.0100461 406.684800
   3759   3756   3760     1   109.7500473 328.025600
   3760   3756   3761     1   108.0100461 406.684800
   3762   3761   3763     1   108.3000464 339.740800
   3762   3761   3764     1   108.3000464 339.740800
   3763   3761   3764     1   108.3000464 339.740800
   3765   3767   3769     1   108.8800464 416.726400
   3765   3767   3770     1   108.8800464 416.726400
   3766   3765   3767     1   117.6800502 383.254400
   3767   3768   3771     1   110.5600475 386.601600
   3767   3768   3772     1   110.5600475 386.601600
   3768   3767   3769     1   109.5600471 388.275200
   3768   3767   3770     1   109.5600471 388.275200
   3768   3773   3774     1   110.1100470 384.091200
   3768   3773   3775     1   110.1100470 384.091200
   3768   3773   3776     1   110.1100470 384.091200
   3769   3767   3770     1   108.4600466 328.025600
   3771   3768   3773     1   108.0100461 406.684800
   3771   3768   3772     1   109.7500473 328.025600
   3772   3768   3773     1   108.0100461 406.684800
   3774   3773   3775     1   108.3000464 339.740800
   3774   3773   3776     1   108.3000464 339.740800
   3775   3773   3776     1   108.3000464 339.740800
   3777   3779   3781     1   108.8800464 416.726400
   3777   3779   3782     1   108.8800464 416.726400
   3778   3777   3779     1   117.6800502 383.254400
   3779   3780   3783     1   110.5600475 386.601600
   3779   3780   3784     1   110.5600475 386.601600
   3780   3785   3786     1   110.1100470 384.091200
   3780   3785   3787     1   110.1100470 384.091200
   3780   3785   3788     1   110.1100470 384.091200
   3780   3779   3781     1   109.5600471 388.275200
   3780   3779   3782     1   109.5600471 388.275200
   3781   3779   3782     1   108.4600466 328.025600
   3783   3780   3785     1   108.0100461 406.684800
   3783   3780   3784     1   109.7500473 328.025600
   3784   3780   3785     1   108.0100461 406.684800
   3786   3785   3787     1   108.3000464 339.740800
   3786   3785   3788     1   108.3000464 339.740800
   3787   3785   3788     1   108.3000464 339.740800
   3789   3791   3793     1   108.8800464 416.726400
   3789   3791   3794     1   108.8800464 416.726400
   3790   3789   3791     1   117.6800502 383.254400
   3791   3792   3795     1   110.5600475 386.601600
   3791   3792   3796     1   110.5600475 386.601600
   3792   3791   3793     1   109.5600471 388.275200
   3792   3791   3794     1   109.5600471 388.275200
   3792   3797   3798     1   110.1100470 384.091200
   3792   3797   3799     1   110.1100470 384.091200
   3792   3797   3800     1   110.1100470 384.091200
   3793   3791   3794     1   108.4600466 328.025600
   3795   3792   3797     1   108.0100461 406.684800
   3795   3792   3796     1   109.7500473 328.025600
   3796   3792   3797     1   108.0100461 406.684800
   3798   3797   3799     1   108.3000464 339.740800
   3798   3797   3800     1   108.3000464 339.740800
   3799   3797   3800     1   108.3000464 339.740800
   3801   3803   3805     1   108.8800464 416.726400
   3801   3803   3806     1   108.8800464 416.726400
   3802   3801   3803     1   117.6800502 383.254400
   3803   3804   3807     1   110.5600475 386.601600
   3803   3804   3808     1   110.5600475 386.601600
   3804   3809   3810     1   110.1100470 384.091200
   3804   3809   3811     1   110.1100470 384.091200
   3804   3809   3812     1   110.1100470 384.091200
   3804   3803   3805     1   109.5600471 388.275200
   3804   3803   3806     1   109.5600471 388.275200
   3805   3803   3806     1   108.4600466 328.025600
   3807   3804   3809     1   108.0100461 406.684800
   3807   3804   3808     1   109.7500473 328.025600
   3808   3804   3809     1   108.0100461 406.684800
   3810   3809   3811     1   108.3000464 339.740800
   3810   3809   3812     1   108.3000464 339.740800
   3811   3809   3812     1   108.3000464 339.740800
   3813   3815   3817     1   108.8800464 416.726400
   3813   3815   3818     1   108.8800464 416.726400
   3814   3813   3815     1   117.6800502 383.254400
   3815   3816   3819     1   110.5600475 386.601600
   3815   3816   3820     1   110.5600475 386.601600
   3816   3815   3817     1   109.5600471 388.275200
   3816   3815   3818     1   109.5600471 388.275200
   3816   3821   3822     1   110.1100470 384.091200
   3816   3821   3823     1   110.1100470 384.091200
   3816   3821   3824     1   110.1100470 384.091200
   3817   3815   3818     1   108.4600466 328.025600
   3819   3816   3821     1   108.0100461 406.684800
   3819   3816   3820     1   109.7500473 328.025600
   3820   3816   3821     1   108.0100461 406.684800
   3822   3821   3823     1   108.3000464 339.740800
   3822   3821   3824     1   108.3000464 339.740800
   3823   3821   3824     1   108.3000464 339.740800
   3825   3827   3829     1   108.8800464 416.726400
   3825   3827   3830     1   108.8800464 416.726400
   3826   3825   3827     1   117.6800502 383.254400
   3827   3828   3831     1   110.5600475 386.601600
   3827   3828   3832     1   110.5600475 386.601600
   3828   3833   3834     1   110.1100470 384.091200
   3828   3833   3835     1   110.1100470 384.091200
   3828   3833   3836     1   110.1100470 384.091200
   3828   3827   3829     1   109.5600471 388.275200
   3828   3827   3830     1   109.5600471 388.275200
   3829   3827   3830     1   108.4600466 328.025600
   3831   3828   3833     1   108.0100461 406.684800
   3831   3828   3832     1   109.7500473 328.025600
   3832   3828   3833     1   108.0100461 406.684800
   3834   3833   3835     1   108.3000464 339.740800
   3834   3833   3836     1   108.3000464 339.740800
   3835   3833   3836     1   108.3000464 339.740800
   3837   3839   3841     1   108.8800464 416.726400
   3837   3839   3842     1   108.8800464 416.726400
   3838   3837   3839     1   117.6800502 383.254400
   3839   3840   3843     1   110.5600475 386.601600
   3839   3840   3844     1   110.5600475 386.601600
   3840   3839   3841     1   109.5600471 388.275200
   3840   3839   3842     1   109.5600471 388.275200
   3840   3845   3846     1   110.1100470 384.091200
   3840   3845   3847     1   110.1100470 384.091200
   3840   3845   3848     1   110.1100470 384.091200
   3841   3839   3842     1   108.4600466 328.025600
   3843   3840   3845     1   108.0100461 406.684800
   3843   3840   3844     1   109.7500473 328.025600
   3844   3840   3845     1   108.0100461 406.684800
   3846   3845   3847     1   108.3000464 339.740800
   3846   3845   3848     1   108.3000464 339.740800
   3847   3845   3848     1   108.3000464 339.740800
   3849   3851   3853     1   108.8800464 416.726400
   3849   3851   3854     1   108.8800464 416.726400
   3850   3849   3851     1   117.6800502 383.254400
   3851   3852   3855     1   110.5600475 386.601600
   3851   3852   3856     1   110.5600475 386.601600
   3852   3857   3858     1   110.1100470 384.091200
   3852   3857   3859     1   110.1100470 384.091200
   3852   3857   3860     1   110.1100470 384.091200
   3852   3851   3853     1   109.5600471 388.275200
   3852   3851   3854     1   109.5600471 388.275200
   3853   3851   3854     1   108.4600466 328.025600
   3855   3852   3857     1   108.0100461 406.684800
   3855   3852   3856     1   109.7500473 328.025600
   3856   3852   3857     1   108.0100461 406.684800
   3858   3857   3859     1   108.3000464 339.740800
   3858   3857   3860     1   108.3000464 339.740800
   3859   3857   3860     1   108.3000464 339.740800
   3861   3863   3865     1   108.8800464 416.726400
   3861   3863   3866     1   108.8800464 416.726400
   3862   3861   3863     1   117.6800502 383.254400
   3863   3864   3867     1   110.5600475 386.601600
   3863   3864   3868     1   110.5600475 386.601600
   3864   3863   3865     1   109.5600471 388.275200
   3864   3863   3866     1   109.5600471 388.275200
   3864   3869   3870     1   110.1100470 384.091200
   3864   3869   3871     1   110.1100470 384.091200
   3864   3869   3872     1   110.1100470 384.091200
   3865   3863   3866     1   108.4600466 328.025600
   3867   3864   3869     1   108.0100461 406.684800
   3867   3864   3868     1   109.7500473 328.025600
   3868   3864   3869     1   108.0100461 406.684800
   3870   3869   3871     1   108.3000464 339.740800
   3870   3869   3872     1   108.3000464 339.740800
   3871   3869   3872     1   108.3000464 339.740800
   3873   3875   3877     1   108.8800464 416.726400
   3873   3875   3878     1   108.8800464 416.726400
   3874   3873   3875     1   117.6800502 383.254400
   3875   3876   3879     1   110.5600475 386.601600
   3875   3876   3880     1   110.5600475 386.601600
   3876   3881   3882     1   110.1100470 384.091200
   3876   3881   3883     1   110.1100470 384.091200
   3876   3881   3884     1   110.1100470 384.091200
   3876   3875   3877     1   109.5600471 388.275200
   3876   3875   3878     1   109.5600471 388.275200
   3877   3875   3878     1   108.4600466 328.025600
   3879   3876   3881     1   108.0100461 406.684800
   3879   3876   3880     1   109.7500473 328.025600
   3880   3876   3881     1   108.0100461 406.684800
   3882   3881   3883     1   108.3000464 339.740800
   3882   3881   3884     1   108.3000464 339.740800
   3883   3881   3884     1   108.3000464 339.740800
   3885   3887   3889     1   108.8800464 416.726400
   3885   3887   3890     1   108.8800464 416.726400
   3886   3885   3887     1   117.6800502 383.254400
   3887   3888   3891     1   110.5600475 386.601600
   3887   3888   3892     1   110.5600475 386.601600
   3888   3887   3889     1   109.5600471 388.275200
   3888   3887   3890     1   109.5600471 388.275200
   3888   3893   3894     1   110.1100470 384.091200
   3888   3893   3895     1   110.1100470 384.091200
   3888   3893   3896     1   110.1100470 384.091200
   3889   3887   3890     1   108.4600466 328.025600
   3891   3888   3893     1   108.0100461 406.684800
   3891   3888   3892     1   109.7500473 328.025600
   3892   3888   3893     1   108.0100461 406.684800
   3894   3893   3895     1   108.3000464 339.740800
   3894   3893   3896     1   108.3000464 339.740800
   3895   3893   3896     1   108.3000464 339.740800
   3897   3899   3901     1   108.8800464 416.726400
   3897   3899   3902     1   108.8800464 416.726400
   3898   3897   3899     1   117.6800502 383.254400
   3899   3900   3903     1   110.5600475 386.601600
   3899   3900   3904     1   110.5600475 386.601600
   3900   3905   3906     1   110.1100470 384.091200
   3900   3905   3907     1   110.1100470 384.091200
   3900   3905   3908     1   110.1100470 384.091200
   3900   3899   3901     1   109.5600471 388.275200
   3900   3899   3902     1   109.5600471 388.275200
   3901   3899   3902     1   108.4600466 328.025600
   3903   3900   3905     1   108.0100461 406.684800
   3903   3900   3904     1   109.7500473 328.025600
   3904   3900   3905     1   108.0100461 406.684800
   3906   3905   3907     1   108.3000464 339.740800
   3906   3905   3908     1   108.3000464 339.740800
   3907   3905   3908     1   108.3000464 339.740800
   3909   3911   3913     1   108.8800464 416.726400
   3909   3911   3914     1   108.8800464 416.726400
   3910   3909   3911     1   117.6800502 383.254400
   3911   3912   3915     1   110.5600475 386.601600
   3911   3912   3916     1   110.5600475 386.601600
   3912   3911   3913     1   109.5600471 388.275200
   3912   3911   3914     1   109.5600471 388.275200
   3912   3917   3918     1   110.1100470 384.091200
   3912   3917   3919     1   110.1100470 384.091200
   3912   3917   3920     1   110.1100470 384.091200
   3913   3911   3914     1   108.4600466 328.025600
   3915   3912   3917     1   108.0100461 406.684800
   3915   3912   3916     1   109.7500473 328.025600
   3916   3912   3917     1   108.0100461 406.684800
   3918   3917   3919     1   108.3000464 339.740800
   3918   3917   3920     1   108.3000464 339.740800
   3919   3917   3920     1   108.3000464 339.740800
   3921   3923   3925     1   108.8800464 416.726400
   3921   3923   3926     1   108.8800464 416.726400
   3922   3921   3923     1   117.6800502 383.254400
   3923   3924   3927     1   110.5600475 386.601600
   3923   3924   3928     1   110.5600475 386.601600
   3924   3929   3930     1   110.1100470 384.091200
   3924   3929   3931     1   110.1100470 384.091200
   3924   3929   3932     1   110.1100470 384.091200
   3924   3923   3925     1   109.5600471 388.275200
   3924   3923   3926     1   109.5600471 388.275200
   3925   3923   3926     1   108.4600466 328.025600
   3927   3924   3929     1   108.0100461 406.684800
   3927   3924   3928     1   109.7500473 328.025600
   3928   3924   3929     1   108.0100461 406.684800
   3930   3929   3931     1   108.3000464 339.740800
   3930   3929   3932     1   108.3000464 339.740800
   3931   3929   3932     1   108.3000464 339.740800
   3933   3935   3937     1   108.8800464 416.726400
   3933   3935   3938     1   108.8800464 416.726400
   3934   3933   3935     1   117.6800502 383.254400
   3935   3936   3939     1   110.5600475 386.601600
   3935   3936   3940     1   110.5600475 386.601600
   3936   3935   3937     1   109.5600471 388.275200
   3936   3935   3938     1   109.5600471 388.275200
   3936   3941   3942     1   110.1100470 384.091200
   3936   3941   3943     1   110.1100470 384.091200
   3936   3941   3944     1   110.1100470 384.091200
   3937   3935   3938     1   108.4600466 328.025600
   3939   3936   3941     1   108.0100461 406.684800
   3939   3936   3940     1   109.7500473 328.025600
   3940   3936   3941     1   108.0100461 406.684800
   3942   3941   3943     1   108.3000464 339.740800
   3942   3941   3944     1   108.3000464 339.740800
   3943   3941   3944     1   108.3000464 339.740800
   3945   3947   3949     1   108.8800464 416.726400
   3945   3947   3950     1   108.8800464 416.726400
   3946   3945   3947     1   117.6800502 383.254400
   3947   3948   3951     1   110.5600475 386.601600
   3947   3948   3952     1   110.5600475 386.601600
   3948   3953   3954     1   110.1100470 384.091200
   3948   3953   3955     1   110.1100470 384.091200
   3948   3953   3956     1   110.1100470 384.091200
   3948   3947   3949     1   109.5600471 388.275200
   3948   3947   3950     1   109.5600471 388.275200
   3949   3947   3950     1   108.4600466 328.025600
   3951   3948   3953     1   108.0100461 406.684800
   3951   3948   3952     1   109.7500473 328.025600
   3952   3948   3953     1   108.0100461 406.684800
   3954   3953   3955     1   108.3000464 339.740800
   3954   3953   3956     1   108.3000464 339.740800
   3955   3953   3956     1   108.3000464 339.740800
   3957   3959   3961     1   108.8800464 416.726400
   3957   3959   3962     1   108.8800464 416.726400
   3958   3957   3959     1   117.6800502 383.254400
   3959   3960   3963     1   110.5600475 386.601600
   3959   3960   3964     1   110.5600475 386.601600
   3960   3959   3961     1   109.5600471 388.275200
   3960   3959   3962     1   109.5600471 388.275200
   3960   3965   3966     1   110.1100470 384.091200
   3960   3965   3967     1   110.1100470 384.091200
   3960   3965   3968     1   110.1100470 384.091200
   3961   3959   3962     1   108.4600466 328.025600
   3963   3960   3965     1   108.0100461 406.684800
   3963   3960   3964     1   109.7500473 328.025600
   3964   3960   3965     1   108.0100461 406.684800
   3966   3965   3967     1   108.3000464 339.740800
   3966   3965   3968     1   108.3000464 339.740800
   3967   3965   3968     1   108.3000464 339.740800
   3969   3971   3973     1   108.8800464 416.726400
   3969   3971   3974     1   108.8800464 416.726400
   3970   3969   3971     1   117.6800502 383.254400
   3971   3972   3975     1   110.5600475 386.601600
   3971   3972   3976     1   110.5600475 386.601600
   3972   3977   3978     1   110.1100470 384.091200
   3972   3977   3979     1   110.1100470 384.091200
   3972   3977   3980     1   110.1100470 384.091200
   3972   3971   3973     1   109.5600471 388.275200
   3972   3971   3974     1   109.5600471 388.275200
   3973   3971   3974     1   108.4600466 328.025600
   3975   3972   3977     1   108.0100461 406.684800
   3975   3972   3976     1   109.7500473 328.025600
   3976   3972   3977     1   108.0100461 406.684800
   3978   3977   3979     1   108.3000464 339.740800
   3978   3977   3980     1   108.3000464 339.740800
   3979   3977   3980     1   108.3000464 339.740800
   3981   3983   3985     1   108.8800464 416.726400
   3981   3983   3986     1   108.8800464 416.726400
   3982   3981   3983     1   117.6800502 383.254400
   3983   3984   3987     1   110.5600475 386.601600
   3983   3984   3988     1   110.5600475 386.601600
   3984   3983   3985     1   109.5600471 388.275200
   3984   3983   3986     1   109.5600471 388.275200
   3984   3989   3990     1   110.1100470 384.091200
   3984   3989   3991     1   110.1100470 384.091200
   3984   3989   3992     1   110.1100470 384.091200
   3985   3983   3986     1   108.4600466 328.025600
   3987   3984   3989     1   108.0100461 406.684800
   3987   3984   3988     1   109.7500473 328.025600
   3988   3984   3989     1   108.0100461 406.684800
   3990   3989   3991     1   108.3000464 339.740800
   3990   3989   3992     1   108.3000464 339.740800
   3991   3989   3992     1   108.3000464 339.740800
   3993   3995   3997     1   108.8800464 416.726400
   3993   3995   3998     1   108.8800464 416.726400
   3994   3993   3995     1   117.6800502 383.254400
   3995   3996   3999     1   110.5600475 386.601600
   3995   3996   4000     1   110.5600475 386.601600
   3996   4001   4002     1   110.1100470 384.091200
   3996   4001   4003     1   110.1100470 384.091200
   3996   4001   4004     1   110.1100470 384.091200
   3996   3995   3997     1   109.5600471 388.275200
   3996   3995   3998     1   109.5600471 388.275200
   3997   3995   3998     1   108.4600466 328.025600
   3999   3996   4001     1   108.0100461 406.684800
   3999   3996   4000     1   109.7500473 328.025600
   4000   3996   4001     1   108.0100461 406.684800
   4002   4001   4003     1   108.3000464 339.740800
   4002   4001   4004     1   108.3000464 339.740800
   4003   4001   4004     1   108.3000464 339.740800
   4005   4007   4009     1   108.8800464 416.726400
   4005   4007   4010     1   108.8800464 416.726400
   4006   4005   4007     1   117.6800502 383.254400
   4007   4008   4011     1   110.5600475 386.601600
   4007   4008   4012     1   110.5600475 386.601600
   4008   4007   4009     1   109.5600471 388.275200
   4008   4007   4010     1   109.5600471 388.275200
   4008   4013   4014     1   110.1100470 384.091200
   4008   4013   4015     1   110.1100470 384.091200
   4008   4013   4016     1   110.1100470 384.091200
   4009   4007   4010     1   108.4600466 328.025600
   4011   4008   4013     1   108.0100461 406.684800
   4011   4008   4012     1   109.7500473 328.025600
   4012   4008   4013     1   108.0100461 406.684800
   4014   4013   4015     1   108.3000464 339.740800
   4014   4013   4016     1   108.3000464 339.740800
   4015   4013   4016     1   108.3000464 339.740800
   4017   4019   4021     1   108.8800464 416.726400
   4017   4019   4022     1   108.8800464 416.726400
   4018   4017   4019     1   117.6800502 383.254400
   4019   4020   4023     1   110.5600475 386.601600
   4019   4020   4024     1   110.5600475 386.601600
   4020   4025   4026     1   110.1100470 384.091200
   4020   4025   4027     1   110.1100470 384.091200
   4020   4025   4028     1   110.1100470 384.091200
   4020   4019   4021     1   109.5600471 388.275200
   4020   4019   4022     1   109.5600471 388.275200
   4021   4019   4022     1   108.4600466 328.025600
   4023   4020   4025     1   108.0100461 406.684800
   4023   4020   4024     1   109.7500473 328.025600
   4024   4020   4025     1   108.0100461 406.684800
   4026   4025   4027     1   108.3000464 339.740800
   4026   4025   4028     1   108.3000464 339.740800
   4027   4025   4028     1   108.3000464 339.740800
   4029   4031   4033     1   108.8800464 416.726400
   4029   4031   4034     1   108.8800464 416.726400
   4030   4029   4031     1   117.6800502 383.254400
   4031   4032   4035     1   110.5600475 386.601600
   4031   4032   4036     1   110.5600475 386.601600
   4032   4031   4033     1   109.5600471 388.275200
   4032   4031   4034     1   109.5600471 388.275200
   4032   4037   4038     1   110.1100470 384.091200
   4032   4037   4039     1   110.1100470 384.091200
   4032   4037   4040     1   110.1100470 384.091200
   4033   4031   4034     1   108.4600466 328.025600
   4035   4032   4037     1   108.0100461 406.684800
   4035   4032   4036     1   109.7500473 328.025600
   4036   4032   4037     1   108.0100461 406.684800
   4038   4037   4039     1   108.3000464 339.740800
   4038   4037   4040     1   108.3000464 339.740800
   4039   4037   4040     1   108.3000464 339.740800
   4041   4043   4045     1   108.8800464 416.726400
   4041   4043   4046     1   108.8800464 416.726400
   4042   4041   4043     1   117.6800502 383.254400
   4043   4044   4047     1   110.5600475 386.601600
   4043   4044   4048     1   110.5600475 386.601600
   4044   4049   4050     1   110.1100470 384.091200
   4044   4049   4051     1   110.1100470 384.091200
   4044   4049   4052     1   110.1100470 384.091200
   4044   4043   4045     1   109.5600471 388.275200
   4044   4043   4046     1   109.5600471 388.275200
   4045   4043   4046     1   108.4600466 328.025600
   4047   4044   4049     1   108.0100461 406.684800
   4047   4044   4048     1   109.7500473 328.025600
   4048   4044   4049     1   108.0100461 406.684800
   4050   4049   4051     1   108.3000464 339.740800
   4050   4049   4052     1   108.3000464 339.740800
   4051   4049   4052     1   108.3000464 339.740800
   4053   4055   4057     1   108.8800464 416.726400
   4053   4055   4058     1   108.8800464 416.726400
   4054   4053   4055     1   117.6800502 383.254400
   4055   4056   4059     1   110.5600475 386.601600
   4055   4056   4060     1   110.5600475 386.601600
   4056   4055   4057     1   109.5600471 388.275200
   4056   4055   4058     1   109.5600471 388.275200
   4056   4061   4062     1   110.1100470 384.091200
   4056   4061   4063     1   110.1100470 384.091200
   4056   4061   4064     1   110.1100470 384.091200
   4057   4055   4058     1   108.4600466 328.025600
   4059   4056   4061     1   108.0100461 406.684800
   4059   4056   4060     1   109.7500473 328.025600
   4060   4056   4061     1   108.0100461 406.684800
   4062   4061   4063     1   108.3000464 339.740800
   4062   4061   4064     1   108.3000464 339.740800
   4063   4061   4064     1   108.3000464 339.740800
   4065   4067   4069     1   108.8800464 416.726400
   4065   4067   4070     1   108.8800464 416.726400
   4066   4065   4067     1   117.6800502 383.254400
   4067   4068   4071     1   110.5600475 386.601600
   4067   4068   4072     1   110.5600475 386.601600
   4068   4073   4074     1   110.1100470 384.091200
   4068   4073   4075     1   110.1100470 384.091200
   4068   4073   4076     1   110.1100470 384.091200
   4068   4067   4069     1   109.5600471 388.275200
   4068   4067   4070     1   109.5600471 388.275200
   4069   4067   4070     1   108.4600466 328.025600
   4071   4068   4073     1   108.0100461 406.684800
   4071   4068   4072     1   109.7500473 328.025600
   4072   4068   4073     1   108.0100461 406.684800
   4074   4073   4075     1   108.3000464 339.740800
   4074   4073   4076     1   108.3000464 339.740800
   4075   4073   4076     1   108.3000464 339.740800
   4077   4079   4081     1   108.8800464 416.726400
   4077   4079   4082     1   108.8800464 416.726400
   4078   4077   4079     1   117.6800502 383.254400
   4079   4080   4083     1   110.5600475 386.601600
   4079   4080   4084     1   110.5600475 386.601600
   4080   4079   4081     1   109.5600471 388.275200
   4080   4079   4082     1   109.5600471 388.275200
   4080   4085   4086     1   110.1100470 384.091200
   4080   4085   4087     1   110.1100470 384.091200
   4080   4085   4088     1   110.1100470 384.091200
   4081   4079   4082     1   108.4600466 328.025600
   4083   4080   4085     1   108.0100461 406.684800
   4083   4080   4084     1   109.7500473 328.025600
   4084   4080   4085     1   108.0100461 406.684800
   4086   4085   4087     1   108.3000464 339.740800
   4086   4085   4088     1   108.3000464 339.740800
   4087   4085   4088     1   108.3000464 339.740800
   4089   4091   4093     1   108.8800464 416.726400
   4089   4091   4094     1   108.8800464 416.726400
   4090   4089   4091     1   117.6800502 383.254400
   4091   4092   4095     1   110.5600475 386.601600
   4091   4092   4096     1   110.5600475 386.601600
   4092   4097   4098     1   110.1100470 384.091200
   4092   4097   4099     1   110.1100470 384.091200
   4092   4097   4100     1   110.1100470 384.091200
   4092   4091   4093     1   109.5600471 388.275200
   4092   4091   4094     1   109.5600471 388.275200
   4093   4091   4094     1   108.4600466 328.025600
   4095   4092   4097     1   108.0100461 406.684800
   4095   4092   4096     1   109.7500473 328.025600
   4096   4092   4097     1   108.0100461 406.684800
   4098   4097   4099     1   108.3000464 339.740800
   4098   4097   4100     1   108.3000464 339.740800
   4099   4097   4100     1   108.3000464 339.740800
   4101   4103   4105     1   108.8800464 416.726400
   4101   4103   4106     1   108.8800464 416.726400
   4102   4101   4103     1   117.6800502 383.254400
   4103   4104   4107     1   110.5600475 386.601600
   4103   4104   4108     1   110.5600475 386.601600
   4104   4103   4105     1   109.5600471 388.275200
   4104   4103   4106     1   109.5600471 388.275200
   4104   4109   4110     1   110.1100470 384.091200
   4104   4109   4111     1   110.1100470 384.091200
   4104   4109   4112     1   110.1100470 384.091200
   4105   4103   4106     1   108.4600466 328.025600
   4107   4104   4109     1   108.0100461 406.684800
   4107   4104   4108     1   109.7500473 328.025600
   4108   4104   4109     1   108.0100461 406.684800
   4110   4109   4111     1   108.3000464 339.740800
   4110   4109   4112     1   108.3000464 339.740800
   4111   4109   4112     1   108.3000464 339.740800
   4113   4115   4117     1   108.8800464 416.726400
   4113   4115   4118     1   108.8800464 416.726400
   4114   4113   4115     1   117.6800502 383.254400
   4115   4116   4119     1   110.5600475 386.601600
   4115   4116   4120     1   110.5600475 386.601600
   4116   4121   4122     1   110.1100470 384.091200
   4116   4121   4123     1   110.1100470 384.091200
   4116   4121   4124     1   110.1100470 384.091200
   4116   4115   4117     1   109.5600471 388.275200
   4116   4115   4118     1   109.5600471 388.275200
   4117   4115   4118     1   108.4600466 328.025600
   4119   4116   4121     1   108.0100461 406.684800
   4119   4116   4120     1   109.7500473 328.025600
   4120   4116   4121     1   108.0100461 406.684800
   4122   4121   4123     1   108.3000464 339.740800
   4122   4121   4124     1   108.3000464 339.740800
   4123   4121   4124     1   108.3000464 339.740800
   4125   4127   4129     1   108.8800464 416.726400
   4125   4127   4130     1   108.8800464 416.726400
   4126   4125   4127     1   117.6800502 383.254400
   4127   4128   4131     1   110.5600475 386.601600
   4127   4128   4132     1   110.5600475 386.601600
   4128   4127   4129     1   109.5600471 388.275200
   4128   4127   4130     1   109.5600471 388.275200
   4128   4133   4134     1   110.1100470 384.091200
   4128   4133   4135     1   110.1100470 384.091200
   4128   4133   4136     1   110.1100470 384.091200
   4129   4127   4130     1   108.4600466 328.025600
   4131   4128   4133     1   108.0100461 406.684800
   4131   4128   4132     1   109.7500473 328.025600
   4132   4128   4133     1   108.0100461 406.684800
   4134   4133   4135     1   108.3000464 339.740800
   4134   4133   4136     1   108.3000464 339.740800
   4135   4133   4136     1   108.3000464 339.740800
   4137   4139   4141     1   108.8800464 416.726400
   4137   4139   4142     1   108.8800464 416.726400
   4138   4137   4139     1   117.6800502 383.254400
   4139   4140   4143     1   110.5600475 386.601600
   4139   4140   4144     1   110.5600475 386.601600
   4140   4145   4146     1   110.1100470 384.091200
   4140   4145   4147     1   110.1100470 384.091200
   4140   4145   4148     1   110.1100470 384.091200
   4140   4139   4141     1   109.5600471 388.275200
   4140   4139   4142     1   109.5600471 388.275200
   4141   4139   4142     1   108.4600466 328.025600
   4143   4140   4145     1   108.0100461 406.684800
   4143   4140   4144     1   109.7500473 328.025600
   4144   4140   4145     1   108.0100461 406.684800
   4146   4145   4147     1   108.3000464 339.740800
   4146   4145   4148     1   108.3000464 339.740800
   4147   4145   4148     1   108.3000464 339.740800
   4149   4151   4153     1   108.8800464 416.726400
   4149   4151   4154     1   108.8800464 416.726400
   4150   4149   4151     1   117.6800502 383.254400
   4151   4152   4155     1   110.5600475 386.601600
   4151   4152   4156     1   110.5600475 386.601600
   4152   4151   4153     1   109.5600471 388.275200
   4152   4151   4154     1   109.5600471 388.275200
   4152   4157   4158     1   110.1100470 384.091200
   4152   4157   4159     1   110.1100470 384.091200
   4152   4157   4160     1   110.1100470 384.091200
   4153   4151   4154     1   108.4600466 328.025600
   4155   4152   4157     1   108.0100461 406.684800
   4155   4152   4156     1   109.7500473 328.025600
   4156   4152   4157     1   108.0100461 406.684800
   4158   4157   4159     1   108.3000464 339.740800
   4158   4157   4160     1   108.3000464 339.740800
   4159   4157   4160     1   108.3000464 339.740800
   4161   4163   4165     1   108.8800464 416.726400
   4161   4163   4166     1   108.8800464 416.726400
   4162   4161   4163     1   117.6800502 383.254400
   4163   4164   4167     1   110.5600475 386.601600
   4163   4164   4168     1   110.5600475 386.601600
   4164   4169   4170     1   110.1100470 384.091200
   4164   4169   4171     1   110.1100470 384.091200
   4164   4169   4172     1   110.1100470 384.091200
   4164   4163   4165     1   109.5600471 388.275200
   4164   4163   4166     1   109.5600471 388.275200
   4165   4163   4166     1   108.4600466 328.025600
   4167   4164   4169     1   108.0100461 406.684800
   4167   4164   4168     1   109.7500473 328.025600
   4168   4164   4169     1   108.0100461 406.684800
   4170   4169   4171     1   108.3000464 339.740800
   4170   4169   4172     1   108.3000464 339.740800
   4171   4169   4172     1   108.3000464 339.740800
   4173   4175   4177     1   108.8800464 416.726400
   4173   4175   4178     1   108.8800464 416.726400
   4174   4173   4175     1   117.6800502 383.254400
   4175   4176   4179     1   110.5600475 386.601600
   4175   4176   4180     1   110.5600475 386.601600
   4176   4175   4177     1   109.5600471 388.275200
   4176   4175   4178     1   109.5600471 388.275200
   4176   4181   4182     1   110.1100470 384.091200
   4176   4181   4183     1   110.1100470 384.091200
   4176   4181   4184     1   110.1100470 384.091200
   4177   4175   4178     1   108.4600466 328.025600
   4179   4176   4181     1   108.0100461 406.684800
   4179   4176   4180     1   109.7500473 328.025600
   4180   4176   4181     1   108.0100461 406.684800
   4182   4181   4183     1   108.3000464 339.740800
   4182   4181   4184     1   108.3000464 339.740800
   4183   4181   4184     1   108.3000464 339.740800
   4185   4187   4189     1   108.8800464 416.726400
   4185   4187   4190     1   108.8800464 416.726400
   4186   4185   4187     1   117.6800502 383.254400
   4187   4188   4191     1   110.5600475 386.601600
   4187   4188   4192     1   110.5600475 386.601600
   4188   4193   4194     1   110.1100470 384.091200
   4188   4193   4195     1   110.1100470 384.091200
   4188   4193   4196     1   110.1100470 384.091200
   4188   4187   4189     1   109.5600471 388.275200
   4188   4187   4190     1   109.5600471 388.275200
   4189   4187   4190     1   108.4600466 328.025600
   4191   4188   4193     1   108.0100461 406.684800
   4191   4188   4192     1   109.7500473 328.025600
   4192   4188   4193     1   108.0100461 406.684800
   4194   4193   4195     1   108.3000464 339.740800
   4194   4193   4196     1   108.3000464 339.740800
   4195   4193   4196     1   108.3000464 339.740800
   4197   4199   4201     1   108.8800464 416.726400
   4197   4199   4202     1   108.8800464 416.726400
   4198   4197   4199     1   117.6800502 383.254400
   4199   4200   4203     1   110.5600475 386.601600
   4199   4200   4204     1   110.5600475 386.601600
   4200   4199   4201     1   109.5600471 388.275200
   4200   4199   4202     1   109.5600471 388.275200
   4200   4205   4206     1   110.1100470 384.091200
   4200   4205   4207     1   110.1100470 384.091200
   4200   4205   4208     1   110.1100470 384.091200
   4201   4199   4202     1   108.4600466 328.025600
   4203   4200   4205     1   108.0100461 406.684800
   4203   4200   4204     1   109.7500473 328.025600
   4204   4200   4205     1   108.0100461 406.684800
   4206   4205   4207     1   108.3000464 339.740800
   4206   4205   4208     1   108.3000464 339.740800
   4207   4205   4208     1   108.3000464 339.740800
   4209   4211   4213     1   108.8800464 416.726400
   4209   4211   4214     1   108.8800464 416.726400
   4210   4209   4211     1   117.6800502 383.254400
   4211   4212   4215     1   110.5600475 386.601600
   4211   4212   4216     1   110.5600475 386.601600
   4212   4217   4218     1   110.1100470 384.091200
   4212   4217   4219     1   110.1100470 384.091200
   4212   4217   4220     1   110.1100470 384.091200
   4212   4211   4213     1   109.5600471 388.275200
   4212   4211   4214     1   109.5600471 388.275200
   4213   4211   4214     1   108.4600466 328.025600
   4215   4212   4217     1   108.0100461 406.684800
   4215   4212   4216     1   109.7500473 328.025600
   4216   4212   4217     1   108.0100461 406.684800
   4218   4217   4219     1   108.3000464 339.740800
   4218   4217   4220     1   108.3000464 339.740800
   4219   4217   4220     1   108.3000464 339.740800
   4221   4223   4225     1   108.8800464 416.726400
   4221   4223   4226     1   108.8800464 416.726400
   4222   4221   4223     1   117.6800502 383.254400
   4223   4224   4227     1   110.5600475 386.601600
   4223   4224   4228     1   110.5600475 386.601600
   4224   4223   4225     1   109.5600471 388.275200
   4224   4223   4226     1   109.5600471 388.275200
   4224   4229   4230     1   110.1100470 384.091200
   4224   4229   4231     1   110.1100470 384.091200
   4224   4229   4232     1   110.1100470 384.091200
   4225   4223   4226     1   108.4600466 328.025600
   4227   4224   4229     1   108.0100461 406.684800
   4227   4224   4228     1   109.7500473 328.025600
   4228   4224   4229     1   108.0100461 406.684800
   4230   4229   4231     1   108.3000464 339.740800
   4230   4229   4232     1   108.3000464 339.740800
   4231   4229   4232     1   108.3000464 339.740800
   4233   4235   4237     1   108.8800464 416.726400
   4233   4235   4238     1   108.8800464 416.726400
   4234   4233   4235     1   117.6800502 383.254400
   4235   4236   4239     1   110.5600475 386.601600
   4235   4236   4240     1   110.5600475 386.601600
   4236   4241   4242     1   110.1100470 384.091200
   4236   4241   4243     1   110.1100470 384.091200
   4236   4241   4244     1   110.1100470 384.091200
   4236   4235   4237     1   109.5600471 388.275200
   4236   4235   4238     1   109.5600471 388.275200
   4237   4235   4238     1   108.4600466 328.025600
   4239   4236   4241     1   108.0100461 406.684800
   4239   4236   4240     1   109.7500473 328.025600
   4240   4236   4241     1   108.0100461 406.684800
   4242   4241   4243     1   108.3000464 339.740800
   4242   4241   4244     1   108.3000464 339.740800
   4243   4241   4244     1   108.3000464 339.740800
   4245   4247   4249     1   108.8800464 416.726400
   4245   4247   4250     1   108.8800464 416.726400
   4246   4245   4247     1   117.6800502 383.254400
   4247   4248   4251     1   110.5600475 386.601600
   4247   4248   4252     1   110.5600475 386.601600
   4248   4247   4249     1   109.5600471 388.275200
   4248   4247   4250     1   109.5600471 388.275200
   4248   4253   4254     1   110.1100470 384.091200
   4248   4253   4255     1   110.1100470 384.091200
   4248   4253   4256     1   110.1100470 384.091200
   4249   4247   4250     1   108.4600466 328.025600
   4251   4248   4253     1   108.0100461 406.684800
   4251   4248   4252     1   109.7500473 328.025600
   4252   4248   4253     1   108.0100461 406.684800
   4254   4253   4255     1   108.3000464 339.740800
   4254   4253   4256     1   108.3000464 339.740800
   4255   4253   4256     1   108.3000464 339.740800
   4257   4259   4261     1   108.8800464 416.726400
   4257   4259   4262     1   108.8800464 416.726400
   4258   4257   4259     1   117.6800502 383.254400
   4259   4260   4263     1   110.5600475 386.601600
   4259   4260   4264     1   110.5600475 386.601600
   4260   4265   4266     1   110.1100470 384.091200
   4260   4265   4267     1   110.1100470 384.091200
   4260   4265   4268     1   110.1100470 384.091200
   4260   4259   4261     1   109.5600471 388.275200
   4260   4259   4262     1   109.5600471 388.275200
   4261   4259   4262     1   108.4600466 328.025600
   4263   4260   4265     1   108.0100461 406.684800
   4263   4260   4264     1   109.7500473 328.025600
   4264   4260   4265     1   108.0100461 406.684800
   4266   4265   4267     1   108.3000464 339.740800
   4266   4265   4268     1   108.3000464 339.740800
   4267   4265   4268     1   108.3000464 339.740800
   4269   4271   4273     1   108.8800464 416.726400
   4269   4271   4274     1   108.8800464 416.726400
   4270   4269   4271     1   117.6800502 383.254400
   4271   4272   4275     1   110.5600475 386.601600
   4271   4272   4276     1   110.5600475 386.601600
   4272   4271   4273     1   109.5600471 388.275200
   4272   4271   4274     1   109.5600471 388.275200
   4272   4277   4278     1   110.1100470 384.091200
   4272   4277   4279     1   110.1100470 384.091200
   4272   4277   4280     1   110.1100470 384.091200
   4273   4271   4274     1   108.4600466 328.025600
   4275   4272   4277     1   108.0100461 406.684800
   4275   4272   4276     1   109.7500473 328.025600
   4276   4272   4277     1   108.0100461 406.684800
   4278   4277   4279     1   108.3000464 339.740800
   4278   4277   4280     1   108.3000464 339.740800
   4279   4277   4280     1   108.3000464 339.740800
   4281   4283   4285     1   108.8800464 416.726400
   4281   4283   4286     1   108.8800464 416.726400
   4282   4281   4283     1   117.6800502 383.254400
   4283   4284   4287     1   110.5600475 386.601600
   4283   4284   4288     1   110.5600475 386.601600
   4284   4289   4290     1   110.1100470 384.091200
   4284   4289   4291     1   110.1100470 384.091200
   4284   4289   4292     1   110.1100470 384.091200
   4284   4283   4285     1   109.5600471 388.275200
   4284   4283   4286     1   109.5600471 388.275200
   4285   4283   4286     1   108.4600466 328.025600
   4287   4284   4289     1   108.0100461 406.684800
   4287   4284   4288     1   109.7500473 328.025600
   4288   4284   4289     1   108.0100461 406.684800
   4290   4289   4291     1   108.3000464 339.740800
   4290   4289   4292     1   108.3000464 339.740800
   4291   4289   4292     1   108.3000464 339.740800
   4293   4295   4297     1   108.8800464 416.726400
   4293   4295   4298     1   108.8800464 416.726400
   4294   4293   4295     1   117.6800502 383.254400
   4295   4296   4299     1   110.5600475 386.601600
   4295   4296   4300     1   110.5600475 386.601600
   4296   4295   4297     1   109.5600471 388.275200
   4296   4295   4298     1   109.5600471 388.275200
   4296   4301   4302     1   110.1100470 384.091200
   4296   4301   4303     1   110.1100470 384.091200
   4296   4301   4304     1   110.1100470 384.091200
   4297   4295   4298     1   108.4600466 328.025600
   4299   4296   4301     1   108.0100461 406.684800
   4299   4296   4300     1   109.7500473 328.025600
   4300   4296   4301     1   108.0100461 406.684800
   4302   4301   4303     1   108.3000464 339.740800
   4302   4301   4304     1   108.3000464 339.740800
   4303   4301   4304     1   108.3000464 339.740800
   4305   4307   4309     1   108.8800464 416.726400
   4305   4307   4310     1   108.8800464 416.726400
   4306   4305   4307     1   117.6800502 383.254400
   4307   4308   4311     1   110.5600475 386.601600
   4307   4308   4312     1   110.5600475 386.601600
   4308   4313   4314     1   110.1100470 384.091200
   4308   4313   4315     1   110.1100470 384.091200
   4308   4313   4316     1   110.1100470 384.091200
   4308   4307   4309     1   109.5600471 388.275200
   4308   4307   4310     1   109.5600471 388.275200
   4309   4307   4310     1   108.4600466 328.025600
   4311   4308   4313     1   108.0100461 406.684800
   4311   4308   4312     1   109.7500473 328.025600
   4312   4308   4313     1   108.0100461 406.684800
   4314   4313   4315     1   108.3000464 339.740800
   4314   4313   4316     1   108.3000464 339.740800
   4315   4313   4316     1   108.3000464 339.740800
   4317   4319   4321     1   108.8800464 416.726400
   4317   4319   4322     1   108.8800464 416.726400
   4318   4317   4319     1   117.6800502 383.254400
   4319   4320   4323     1   110.5600475 386.601600
   4319   4320   4324     1   110.5600475 386.601600
   4320   4319   4321     1   109.5600471 388.275200
   4320   4319   4322     1   109.5600471 388.275200
   4320   4325   4326     1   110.1100470 384.091200
   4320   4325   4327     1   110.1100470 384.091200
   4320   4325   4328     1   110.1100470 384.091200
   4321   4319   4322     1   108.4600466 328.025600
   4323   4320   4325     1   108.0100461 406.684800
   4323   4320   4324     1   109.7500473 328.025600
   4324   4320   4325     1   108.0100461 406.684800
   4326   4325   4327     1   108.3000464 339.740800
   4326   4325   4328     1   108.3000464 339.740800
   4327   4325   4328     1   108.3000464 339.740800
   4329   4331   4333     1   108.8800464 416.726400
   4329   4331   4334     1   108.8800464 416.726400
   4330   4329   4331     1   117.6800502 383.254400
   4331   4332   4335     1   110.5600475 386.601600
   4331   4332   4336     1   110.5600475 386.601600
   4332   4337   4338     1   110.1100470 384.091200
   4332   4337   4339     1   110.1100470 384.091200
   4332   4337   4340     1   110.1100470 384.091200
   4332   4331   4333     1   109.5600471 388.275200
   4332   4331   4334     1   109.5600471 388.275200
   4333   4331   4334     1   108.4600466 328.025600
   4335   4332   4337     1   108.0100461 406.684800
   4335   4332   4336     1   109.7500473 328.025600
   4336   4332   4337     1   108.0100461 406.684800
   4338   4337   4339     1   108.3000464 339.740800
   4338   4337   4340     1   108.3000464 339.740800
   4339   4337   4340     1   108.3000464 339.740800
   4341   4343   4345     1   108.8800464 416.726400
   4341   4343   4346     1   108.8800464 416.726400
   4342   4341   4343     1   117.6800502 383.254400
   4343   4344   4347     1   110.5600475 386.601600
   4343   4344   4348     1   110.5600475 386.601600
   4344   4343   4345     1   109.5600471 388.275200
   4344   4343   4346     1   109.5600471 388.275200
   4344   4349   4350     1   110.1100470 384.091200
   4344   4349   4351     1   110.1100470 384.091200
   4344   4349   4352     1   110.1100470 384.091200
   4345   4343   4346     1   108.4600466 328.025600
   4347   4344   4349     1   108.0100461 406.684800
   4347   4344   4348     1   109.7500473 328.025600
   4348   4344   4349     1   108.0100461 406.684800
   4350   4349   4351     1   108.3000464 339.740800
   4350   4349   4352     1   108.3000464 339.740800
   4351   4349   4352     1   108.3000464 339.740800
   4353   4355   4357     1   108.8800464 416.726400
   4353   4355   4358     1   108.8800464 416.726400
   4354   4353   4355     1   117.6800502 383.254400
   4355   4356   4359     1   110.5600475 386.601600
   4355   4356   4360     1   110.5600475 386.601600
   4356   4361   4362     1   110.1100470 384.091200
   4356   4361   4363     1   110.1100470 384.091200
   4356   4361   4364     1   110.1100470 384.091200
   4356   4355   4357     1   109.5600471 388.275200
   4356   4355   4358     1   109.5600471 388.275200
   4357   4355   4358     1   108.4600466 328.025600
   4359   4356   4361     1   108.0100461 406.684800
   4359   4356   4360     1   109.7500473 328.025600
   4360   4356   4361     1   108.0100461 406.684800
   4362   4361   4363     1   108.3000464 339.740800
   4362   4361   4364     1   108.3000464 339.740800
   4363   4361   4364     1   108.3000464 339.740800
   4365   4367   4369     1   108.8800464 416.726400
   4365   4367   4370     1   108.8800464 416.726400
   4366   4365   4367     1   117.6800502 383.254400
   4367   4368   4371     1   110.5600475 386.601600
   4367   4368   4372     1   110.5600475 386.601600
   4368   4367   4369     1   109.5600471 388.275200
   4368   4367   4370     1   109.5600471 388.275200
   4368   4373   4374     1   110.1100470 384.091200
   4368   4373   4375     1   110.1100470 384.091200
   4368   4373   4376     1   110.1100470 384.091200
   4369   4367   4370     1   108.4600466 328.025600
   4371   4368   4373     1   108.0100461 406.684800
   4371   4368   4372     1   109.7500473 328.025600
   4372   4368   4373     1   108.0100461 406.684800
   4374   4373   4375     1   108.3000464 339.740800
   4374   4373   4376     1   108.3000464 339.740800
   4375   4373   4376     1   108.3000464 339.740800
   4377   4379   4381     1   108.8800464 416.726400
   4377   4379   4382     1   108.8800464 416.726400
   4378   4377   4379     1   117.6800502 383.254400
   4379   4380   4383     1   110.5600475 386.601600
   4379   4380   4384     1   110.5600475 386.601600
   4380   4385   4386     1   110.1100470 384.091200
   4380   4385   4387     1   110.1100470 384.091200
   4380   4385   4388     1   110.1100470 384.091200
   4380   4379   4381     1   109.5600471 388.275200
   4380   4379   4382     1   109.5600471 388.275200
   4381   4379   4382     1   108.4600466 328.025600
   4383   4380   4385     1   108.0100461 406.684800
   4383   4380   4384     1   109.7500473 328.025600
   4384   4380   4385     1   108.0100461 406.684800
   4386   4385   4387     1   108.3000464 339.740800
   4386   4385   4388     1   108.3000464 339.740800
   4387   4385   4388     1   108.3000464 339.740800
   4389   4391   4393     1   108.8800464 416.726400
   4389   4391   4394     1   108.8800464 416.726400
   4390   4389   4391     1   117.6800502 383.254400
   4391   4392   4395     1   110.5600475 386.601600
   4391   4392   4396     1   110.5600475 386.601600
   4392   4391   4393     1   109.5600471 388.275200
   4392   4391   4394     1   109.5600471 388.275200
   4392   4397   4398     1   110.1100470 384.091200
   4392   4397   4399     1   110.1100470 384.091200
   4392   4397   4400     1   110.1100470 384.091200
   4393   4391   4394     1   108.4600466 328.025600
   4395   4392   4397     1   108.0100461 406.684800
   4395   4392   4396     1   109.7500473 328.025600
   4396   4392   4397     1   108.0100461 406.684800
   4398   4397   4399     1   108.3000464 339.740800
   4398   4397   4400     1   108.3000464 339.740800
   4399   4397   4400     1   108.3000464 339.740800
   4401   4403   4405     1   108.8800464 416.726400
   4401   4403   4406     1   108.8800464 416.726400
   4402   4401   4403     1   117.6800502 383.254400
   4403   4404   4407     1   110.5600475 386.601600
   4403   4404   4408     1   110.5600475 386.601600
   4404   4409   4410     1   110.1100470 384.091200
   4404   4409   4411     1   110.1100470 384.091200
   4404   4409   4412     1   110.1100470 384.091200
   4404   4403   4405     1   109.5600471 388.275200
   4404   4403   4406     1   109.5600471 388.275200
   4405   4403   4406     1   108.4600466 328.025600
   4407   4404   4409     1   108.0100461 406.684800
   4407   4404   4408     1   109.7500473 328.025600
   4408   4404   4409     1   108.0100461 406.684800
   4410   4409   4411     1   108.3000464 339.740800
   4410   4409   4412     1   108.3000464 339.740800
   4411   4409   4412     1   108.3000464 339.740800
   4413   4415   4417     1   108.8800464 416.726400
   4413   4415   4418     1   108.8800464 416.726400
   4414   4413   4415     1   117.6800502 383.254400
   4415   4416   4419     1   110.5600475 386.601600
   4415   4416   4420     1   110.5600475 386.601600
   4416   4415   4417     1   109.5600471 388.275200
   4416   4415   4418     1   109.5600471 388.275200
   4416   4421   4422     1   110.1100470 384.091200
   4416   4421   4423     1   110.1100470 384.091200
   4416   4421   4424     1   110.1100470 384.091200
   4417   4415   4418     1   108.4600466 328.025600
   4419   4416   4421     1   108.0100461 406.684800
   4419   4416   4420     1   109.7500473 328.025600
   4420   4416   4421     1   108.0100461 406.684800
   4422   4421   4423     1   108.3000464 339.740800
   4422   4421   4424     1   108.3000464 339.740800
   4423   4421   4424     1   108.3000464 339.740800
   4425   4427   4429     1   108.8800464 416.726400
   4425   4427   4430     1   108.8800464 416.726400
   4426   4425   4427     1   117.6800502 383.254400
   4427   4428   4431     1   110.5600475 386.601600
   4427   4428   4432     1   110.5600475 386.601600
   4428   4433   4434     1   110.1100470 384.091200
   4428   4433   4435     1   110.1100470 384.091200
   4428   4433   4436     1   110.1100470 384.091200
   4428   4427   4429     1   109.5600471 388.275200
   4428   4427   4430     1   109.5600471 388.275200
   4429   4427   4430     1   108.4600466 328.025600
   4431   4428   4433     1   108.0100461 406.684800
   4431   4428   4432     1   109.7500473 328.025600
   4432   4428   4433     1   108.0100461 406.684800
   4434   4433   4435     1   108.3000464 339.740800
   4434   4433   4436     1   108.3000464 339.740800
   4435   4433   4436     1   108.3000464 339.740800
   4437   4439   4441     1   108.8800464 416.726400
   4437   4439   4442     1   108.8800464 416.726400
   4438   4437   4439     1   117.6800502 383.254400
   4439   4440   4443     1   110.5600475 386.601600
   4439   4440   4444     1   110.5600475 386.601600
   4440   4439   4441     1   109.5600471 388.275200
   4440   4439   4442     1   109.5600471 388.275200
   4440   4445   4446     1   110.1100470 384.091200
   4440   4445   4447     1   110.1100470 384.091200
   4440   4445   4448     1   110.1100470 384.091200
   4441   4439   4442     1   108.4600466 328.025600
   4443   4440   4445     1   108.0100461 406.684800
   4443   4440   4444     1   109.7500473 328.025600
   4444   4440   4445     1   108.0100461 406.684800
   4446   4445   4447     1   108.3000464 339.740800
   4446   4445   4448     1   108.3000464 339.740800
   4447   4445   4448     1   108.3000464 339.740800
   4449   4451   4453     1   108.8800464 416.726400
   4449   4451   4454     1   108.8800464 416.726400
   4450   4449   4451     1   117.6800502 383.254400
   4451   4452   4455     1   110.5600475 386.601600
   4451   4452   4456     1   110.5600475 386.601600
   4452   4457   4458     1   110.1100470 384.091200
   4452   4457   4459     1   110.1100470 384.091200
   4452   4457   4460     1   110.1100470 384.091200
   4452   4451   4453     1   109.5600471 388.275200
   4452   4451   4454     1   109.5600471 388.275200
   4453   4451   4454     1   108.4600466 328.025600
   4455   4452   4457     1   108.0100461 406.684800
   4455   4452   4456     1   109.7500473 328.025600
   4456   4452   4457     1   108.0100461 406.684800
   4458   4457   4459     1   108.3000464 339.740800
   4458   4457   4460     1   108.3000464 339.740800
   4459   4457   4460     1   108.3000464 339.740800
   4461   4463   4465     1   108.8800464 416.726400
   4461   4463   4466     1   108.8800464 416.726400
   4462   4461   4463     1   117.6800502 383.254400
   4463   4464   4467     1   110.5600475 386.601600
   4463   4464   4468     1   110.5600475 386.601600
   4464   4463   4465     1   109.5600471 388.275200
   4464   4463   4466     1   109.5600471 388.275200
   4464   4469   4470     1   110.1100470 384.091200
   4464   4469   4471     1   110.1100470 384.091200
   4464   4469   4472     1   110.1100470 384.091200
   4465   4463   4466     1   108.4600466 328.025600
   4467   4464   4469     1   108.0100461 406.684800
   4467   4464   4468     1   109.7500473 328.025600
   4468   4464   4469     1   108.0100461 406.684800
   4470   4469   4471     1   108.3000464 339.740800
   4470   4469   4472     1   108.3000464 339.740800
   4471   4469   4472     1   108.3000464 339.740800
   4473   4475   4477     1   108.8800464 416.726400
   4473   4475   4478     1   108.8800464 416.726400
   4474   4473   4475     1   117.6800502 383.254400
   4475   4476   4479     1   110.5600475 386.601600
   4475   4476   4480     1   110.5600475 386.601600
   4476   4481   4482     1   110.1100470 384.091200
   4476   4481   4483     1   110.1100470 384.091200
   4476   4481   4484     1   110.1100470 384.091200
   4476   4475   4477     1   109.5600471 388.275200
   4476   4475   4478     1   109.5600471 388.275200
   4477   4475   4478     1   108.4600466 328.025600
   4479   4476   4481     1   108.0100461 406.684800
   4479   4476   4480     1   109.7500473 328.025600
   4480   4476   4481     1   108.0100461 406.684800
   4482   4481   4483     1   108.3000464 339.740800
   4482   4481   4484     1   108.3000464 339.740800
   4483   4481   4484     1   108.3000464 339.740800
   4485   4487   4489     1   108.8800464 416.726400
   4485   4487   4490     1   108.8800464 416.726400
   4486   4485   4487     1   117.6800502 383.254400
   4487   4488   4491     1   110.5600475 386.601600
   4487   4488   4492     1   110.5600475 386.601600
   4488   4487   4489     1   109.5600471 388.275200
   4488   4487   4490     1   109.5600471 388.275200
   4488   4493   4494     1   110.1100470 384.091200
   4488   4493   4495     1   110.1100470 384.091200
   4488   4493   4496     1   110.1100470 384.091200
   4489   4487   4490     1   108.4600466 328.025600
   4491   4488   4493     1   108.0100461 406.684800
   4491   4488   4492     1   109.7500473 328.025600
   4492   4488   4493     1   108.0100461 406.684800
   4494   4493   4495     1   108.3000464 339.740800
   4494   4493   4496     1   108.3000464 339.740800
   4495   4493   4496     1   108.3000464 339.740800
   4497   4499   4501     1   108.8800464 416.726400
   4497   4499   4502     1   108.8800464 416.726400
   4498   4497   4499     1   117.6800502 383.254400
   4499   4500   4503     1   110.5600475 386.601600
   4499   4500   4504     1   110.5600475 386.601600
   4500   4505   4506     1   110.1100470 384.091200
   4500   4505   4507     1   110.1100470 384.091200
   4500   4505   4508     1   110.1100470 384.091200
   4500   4499   4501     1   109.5600471 388.275200
   4500   4499   4502     1   109.5600471 388.275200
   4501   4499   4502     1   108.4600466 328.025600
   4503   4500   4505     1   108.0100461 406.684800
   4503   4500   4504     1   109.7500473 328.025600
   4504   4500   4505     1   108.0100461 406.684800
   4506   4505   4507     1   108.3000464 339.740800
   4506   4505   4508     1   108.3000464 339.740800
   4507   4505   4508     1   108.3000464 339.740800
   4509   4511   4513     1   108.8800464 416.726400
   4509   4511   4514     1   108.8800464 416.726400
   4510   4509   4511     1   117.6800502 383.254400
   4511   4512   4515     1   110.5600475 386.601600
   4511   4512   4516     1   110.5600475 386.601600
   4512   4511   4513     1   109.5600471 388.275200
   4512   4511   4514     1   109.5600471 388.275200
   4512   4517   4518     1   110.1100470 384.091200
   4512   4517   4519     1   110.1100470 384.091200
   4512   4517   4520     1   110.1100470 384.091200
   4513   4511   4514     1   108.4600466 328.025600
   4515   4512   4517     1   108.0100461 406.684800
   4515   4512   4516     1   109.7500473 328.025600
   4516   4512   4517     1   108.0100461 406.684800
   4518   4517   4519     1   108.3000464 339.740800
   4518   4517   4520     1   108.3000464 339.740800
   4519   4517   4520     1   108.3000464 339.740800
   4521   4523   4525     1   108.8800464 416.726400
   4521   4523   4526     1   108.8800464 416.726400
   4522   4521   4523     1   117.6800502 383.254400
   4523   4524   4527     1   110.5600475 386.601600
   4523   4524   4528     1   110.5600475 386.601600
   4524   4529   4530     1   110.1100470 384.091200
   4524   4529   4531     1   110.1100470 384.091200
   4524   4529   4532     1   110.1100470 384.091200
   4524   4523   4525     1   109.5600471 388.275200
   4524   4523   4526     1   109.5600471 388.275200
   4525   4523   4526     1   108.4600466 328.025600
   4527   4524   4529     1   108.0100461 406.684800
   4527   4524   4528     1   109.7500473 328.025600
   4528   4524   4529     1   108.0100461 406.684800
   4530   4529   4531     1   108.3000464 339.740800
   4530   4529   4532     1   108.3000464 339.740800
   4531   4529   4532     1   108.3000464 339.740800
   4533   4535   4537     1   108.8800464 416.726400
   4533   4535   4538     1   108.8800464 416.726400
   4534   4533   4535     1   117.6800502 383.254400
   4535   4536   4539     1   110.5600475 386.601600
   4535   4536   4540     1   110.5600475 386.601600
   4536   4535   4537     1   109.5600471 388.275200
   4536   4535   4538     1   109.5600471 388.275200
   4536   4541   4542     1   110.1100470 384.091200
   4536   4541   4543     1   110.1100470 384.091200
   4536   4541   4544     1   110.1100470 384.091200
   4537   4535   4538     1   108.4600466 328.025600
   4539   4536   4541     1   108.0100461 406.684800
   4539   4536   4540     1   109.7500473 328.025600
   4540   4536   4541     1   108.0100461 406.684800
   4542   4541   4543     1   108.3000464 339.740800
   4542   4541   4544     1   108.3000464 339.740800
   4543   4541   4544     1   108.3000464 339.740800
   4545   4547   4549     1   108.8800464 416.726400
   4545   4547   4550     1   108.8800464 416.726400
   4546   4545   4547     1   117.6800502 383.254400
   4547   4548   4551     1   110.5600475 386.601600
   4547   4548   4552     1   110.5600475 386.601600
   4548   4553   4554     1   110.1100470 384.091200
   4548   4553   4555     1   110.1100470 384.091200
   4548   4553   4556     1   110.1100470 384.091200
   4548   4547   4549     1   109.5600471 388.275200
   4548   4547   4550     1   109.5600471 388.275200
   4549   4547   4550     1   108.4600466 328.025600
   4551   4548   4553     1   108.0100461 406.684800
   4551   4548   4552     1   109.7500473 328.025600
   4552   4548   4553     1   108.0100461 406.684800
   4554   4553   4555     1   108.3000464 339.740800
   4554   4553   4556     1   108.3000464 339.740800
   4555   4553   4556     1   108.3000464 339.740800
   4557   4559   4561     1   108.8800464 416.726400
   4557   4559   4562     1   108.8800464 416.726400
   4558   4557   4559     1   117.6800502 383.254400
   4559   4560   4563     1   110.5600475 386.601600
   4559   4560   4564     1   110.5600475 386.601600
   4560   4559   4561     1   109.5600471 388.275200
   4560   4559   4562     1   109.5600471 388.275200
   4560   4565   4566     1   110.1100470 384.091200
   4560   4565   4567     1   110.1100470 384.091200
   4560   4565   4568     1   110.1100470 384.091200
   4561   4559   4562     1   108.4600466 328.025600
   4563   4560   4565     1   108.0100461 406.684800
   4563   4560   4564     1   109.7500473 328.025600
   4564   4560   4565     1   108.0100461 406.684800
   4566   4565   4567     1   108.3000464 339.740800
   4566   4565   4568     1   108.3000464 339.740800
   4567   4565   4568     1   108.3000464 339.740800
   4569   4571   4573     1   108.8800464 416.726400
   4569   4571   4574     1   108.8800464 416.726400
   4570   4569   4571     1   117.6800502 383.254400
   4571   4572   4575     1   110.5600475 386.601600
   4571   4572   4576     1   110.5600475 386.601600
   4572   4577   4578     1   110.1100470 384.091200
   4572   4577   4579     1   110.1100470 384.091200
   4572   4577   4580     1   110.1100470 384.091200
   4572   4571   4573     1   109.5600471 388.275200
   4572   4571   4574     1   109.5600471 388.275200
   4573   4571   4574     1   108.4600466 328.025600
   4575   4572   4577     1   108.0100461 406.684800
   4575   4572   4576     1   109.7500473 328.025600
   4576   4572   4577     1   108.0100461 406.684800
   4578   4577   4579     1   108.3000464 339.740800
   4578   4577   4580     1   108.3000464 339.740800
   4579   4577   4580     1   108.3000464 339.740800
   4581   4583   4585     1   108.8800464 416.726400
   4581   4583   4586     1   108.8800464 416.726400
   4582   4581   4583     1   117.6800502 383.254400
   4583   4584   4587     1   110.5600475 386.601600
   4583   4584   4588     1   110.5600475 386.601600
   4584   4583   4585     1   109.5600471 388.275200
   4584   4583   4586     1   109.5600471 388.275200
   4584   4589   4590     1   110.1100470 384.091200
   4584   4589   4591     1   110.1100470 384.091200
   4584   4589   4592     1   110.1100470 384.091200
   4585   4583   4586     1   108.4600466 328.025600
   4587   4584   4589     1   108.0100461 406.684800
   4587   4584   4588     1   109.7500473 328.025600
   4588   4584   4589     1   108.0100461 406.684800
   4590   4589   4591     1   108.3000464 339.740800
   4590   4589   4592     1   108.3000464 339.740800
   4591   4589   4592     1   108.3000464 339.740800
   4593   4595   4597     1   108.8800464 416.726400
   4593   4595   4598     1   108.8800464 416.726400
   4594   4593   4595     1   117.6800502 383.254400
   4595   4596   4599     1   110.5600475 386.601600
   4595   4596   4600     1   110.5600475 386.601600
   4596   4601   4602     1   110.1100470 384.091200
   4596   4601   4603     1   110.1100470 384.091200
   4596   4601   4604     1   110.1100470 384.091200
   4596   4595   4597     1   109.5600471 388.275200
   4596   4595   4598     1   109.5600471 388.275200
   4597   4595   4598     1   108.4600466 328.025600
   4599   4596   4601     1   108.0100461 406.684800
   4599   4596   4600     1   109.7500473 328.025600
   4600   4596   4601     1   108.0100461 406.684800
   4602   4601   4603     1   108.3000464 339.740800
   4602   4601   4604     1   108.3000464 339.740800
   4603   4601   4604     1   108.3000464 339.740800
   4605   4607   4609     1   108.8800464 416.726400
   4605   4607   4610     1   108.8800464 416.726400
   4606   4605   4607     1   117.6800502 383.254400
   4607   4608   4611     1   110.5600475 386.601600
   4607   4608   4612     1   110.5600475 386.601600
   4608   4607   4609     1   109.5600471 388.275200
   4608   4607   4610     1   109.5600471 388.275200
   4608   4613   4614     1   110.1100470 384.091200
   4608   4613   4615     1   110.1100470 384.091200
   4608   4613   4616     1   110.1100470 384.091200
   4609   4607   4610     1   108.4600466 328.025600
   4611   4608   4613     1   108.0100461 406.684800
   4611   4608   4612     1   109.7500473 328.025600
   4612   4608   4613     1   108.0100461 406.684800
   4614   4613   4615     1   108.3000464 339.740800
   4614   4613   4616     1   108.3000464 339.740800
   4615   4613   4616     1   108.3000464 339.740800
   4617   4619   4621     1   108.8800464 416.726400
   4617   4619   4622     1   108.8800464 416.726400
   4618   4617   4619     1   117.6800502 383.254400
   4619   4620   4623     1   110.5600475 386.601600
   4619   4620   4624     1   110.5600475 386.601600
   4620   4625   4626     1   110.1100470 384.091200
   4620   4625   4627     1   110.1100470 384.091200
   4620   4625   4628     1   110.1100470 384.091200
   4620   4619   4621     1   109.5600471 388.275200
   4620   4619   4622     1   109.5600471 388.275200
   4621   4619   4622     1   108.4600466 328.025600
   4623   4620   4625     1   108.0100461 406.684800
   4623   4620   4624     1   109.7500473 328.025600
   4624   4620   4625     1   108.0100461 406.684800
   4626   4625   4627     1   108.3000464 339.740800
   4626   4625   4628     1   108.3000464 339.740800
   4627   4625   4628     1   108.3000464 339.740800
   4629   4631   4633     1   108.8800464 416.726400
   4629   4631   4634     1   108.8800464 416.726400
   4630   4629   4631     1   117.6800502 383.254400
   4631   4632   4635     1   110.5600475 386.601600
   4631   4632   4636     1   110.5600475 386.601600
   4632   4631   4633     1   109.5600471 388.275200
   4632   4631   4634     1   109.5600471 388.275200
   4632   4637   4638     1   110.1100470 384.091200
   4632   4637   4639     1   110.1100470 384.091200
   4632   4637   4640     1   110.1100470 384.091200
   4633   4631   4634     1   108.4600466 328.025600
   4635   4632   4637     1   108.0100461 406.684800
   4635   4632   4636     1   109.7500473 328.025600
   4636   4632   4637     1   108.0100461 406.684800
   4638   4637   4639     1   108.3000464 339.740800
   4638   4637   4640     1   108.3000464 339.740800
   4639   4637   4640     1   108.3000464 339.740800
   4641   4643   4645     1   108.8800464 416.726400
   4641   4643   4646     1   108.8800464 416.726400
   4642   4641   4643     1   117.6800502 383.254400
   4643   4644   4647     1   110.5600475 386.601600
   4643   4644   4648     1   110.5600475 386.601600
   4644   4649   4650     1   110.1100470 384.091200
   4644   4649   4651     1   110.1100470 384.091200
   4644   4649   4652     1   110.1100470 384.091200
   4644   4643   4645     1   109.5600471 388.275200
   4644   4643   4646     1   109.5600471 388.275200
   4645   4643   4646     1   108.4600466 328.025600
   4647   4644   4649     1   108.0100461 406.684800
   4647   4644   4648     1   109.7500473 328.025600
   4648   4644   4649     1   108.0100461 406.684800
   4650   4649   4651     1   108.3000464 339.740800
   4650   4649   4652     1   108.3000464 339.740800
   4651   4649   4652     1   108.3000464 339.740800
   4653   4655   4657     1   108.8800464 416.726400
   4653   4655   4658     1   108.8800464 416.726400
   4654   4653   4655     1   117.6800502 383.254400
   4655   4656   4659     1   110.5600475 386.601600
   4655   4656   4660     1   110.5600475 386.601600
   4656   4655   4657     1   109.5600471 388.275200
   4656   4655   4658     1   109.5600471 388.275200
   4656   4661   4662     1   110.1100470 384.091200
   4656   4661   4663     1   110.1100470 384.091200
   4656   4661   4664     1   110.1100470 384.091200
   4657   4655   4658     1   108.4600466 328.025600
   4659   4656   4661     1   108.0100461 406.684800
   4659   4656   4660     1   109.7500473 328.025600
   4660   4656   4661     1   108.0100461 406.684800
   4662   4661   4663     1   108.3000464 339.740800
   4662   4661   4664     1   108.3000464 339.740800
   4663   4661   4664     1   108.3000464 339.740800
   4665   4667   4669     1   108.8800464 416.726400
   4665   4667   4670     1   108.8800464 416.726400
   4666   4665   4667     1   117.6800502 383.254400
   4667   4668   4671     1   110.5600475 386.601600
   4667   4668   4672     1   110.5600475 386.601600
   4668   4673   4674     1   110.1100470 384.091200
   4668   4673   4675     1   110.1100470 384.091200
   4668   4673   4676     1   110.1100470 384.091200
   4668   4667   4669     1   109.5600471 388.275200
   4668   4667   4670     1   109.5600471 388.275200
   4669   4667   4670     1   108.4600466 328.025600
   4671   4668   4673     1   108.0100461 406.684800
   4671   4668   4672     1   109.7500473 328.025600
   4672   4668   4673     1   108.0100461 406.684800
   4674   4673   4675     1   108.3000464 339.740800
   4674   4673   4676     1   108.3000464 339.740800
   4675   4673   4676     1   108.3000464 339.740800

[ dihedrals ]
;    ai     aj     ak     al funct         c0         c1         c2         c3         c4         c5
      1      4      7     15     1  180.0000771  2.0083200  2
      1      4      7     15     1  0.0000000  1.2552000  3
      1      4      7     18     1  180.0000771  2.0083200  2
      1      4      7     18     1  0.0000000  1.2552000  3
      1      8      9     30     1  180.0000771  2.0083200  2
      1      8      9     30     1  0.0000000  1.2552000  3
      1      8     12     27     1  180.0000771  2.0083200  2
      1      8     12     27     1  0.0000000  1.2552000  3
      4      1      8      9     1  180.0000771  2.0083200  2
      4      1      8      9     1  0.0000000  1.2552000  3
      4      1      8     12     1  180.0000771  2.0083200  2
      4      1      8     12     1  0.0000000  1.2552000  3
      4      7     15     21     1  180.0000771  2.0083200  2
      4      7     15     21     1  0.0000000  1.2552000  3
      4      7     18     24     1  180.0000771  2.0083200  2
      4      7     18     24     1  0.0000000  1.2552000  3
      8      1      4      7     1  0.0000000  0.6508444  3
      7     15     21     35     1  0.0000000  0.6508444  3
      7     18     24     36     1  0.0000000  0.6508444  3
      8      9     30     34     1  0.0000000  0.6508444  3
      8     12     27     33     1  0.0000000  0.6508444  3
      9      8     12     27     1  180.0000771  2.0083200  2
      9      8     12     27     1  0.0000000  1.2552000  3
      9     30     34     40     1  180.0000771  0.0000000  2
      9     30     34     89     1  0.0000000  0.2928800  2
      9     30     34     89     1  0.0000000  0.4184000  4
     12      8      9     30     1  180.0000771  2.0083200  2
     12      8      9     30     1  0.0000000  1.2552000  3
     12     27     33     37     1  180.0000771  0.0000000  2
     12     27     33     64     1  0.0000000  0.2928800  2
     12     27     33     64     1  0.0000000  0.4184000  4
     15      7     18     24     1  180.0000771  2.0083200  2
     15      7     18     24     1  0.0000000  1.2552000  3
     15     21     35     38     1  180.0000771  0.0000000  2
     15     21     35    114     1  0.0000000  0.2928800  2
     15     21     35    114     1  0.0000000  0.4184000  4
     18      7     15     21     1  180.0000771  2.0083200  2
     18      7     15     21     1  0.0000000  1.2552000  3
     18     24     36     39     1  180.0000771  0.0000000  2
     18     24     36    139     1  0.0000000  0.2928800  2
     18     24     36    139     1  0.0000000  0.4184000  4
     21     35    114     94     1  180.0000771  6.2760000  1
     21     35    114     94     1  0.0000000  0.0000000  2
     24     36    139    119     1  180.0000771  6.2760000  1
     24     36    139    119     1  0.0000000  0.0000000  2
     27     33     64     44     1  180.0000771  6.2760000  1
     27     33     64     44     1  0.0000000  0.0000000  2
     30     34     89     69     1  180.0000771  6.2760000  1
     30     34     89     69     1  0.0000000  0.0000000  2
     33     64     44     41     1  0.0000000  2.2175200  1
     33     64     44     41     1  0.0000000  0.0000000  2
     33     64     44     41     1  180.0000771  0.6276000  3
     33     64     44     41     1  180.0000771  2.0920000  4
     34     89     69     66     1  0.0000000  2.2175200  1
     34     89     69     66     1  0.0000000  0.0000000  2
     34     89     69     66     1  180.0000771  0.6276000  3
     34     89     69     66     1  180.0000771  2.0920000  4
     35    114     94     91     1  0.0000000  2.2175200  1
     35    114     94     91     1  0.0000000  0.0000000  2
     35    114     94     91     1  180.0000771  0.6276000  3
     35    114     94     91     1  180.0000771  2.0920000  4
     36    139    119    116     1  0.0000000  2.2175200  1
     36    139    119    116     1  0.0000000  0.0000000  2
     36    139    119    116     1  180.0000771  0.6276000  3
     36    139    119    116     1  180.0000771  2.0920000  4
     37     33     64     44     1  180.0000771  10.4600000  2
     38     35    114     94     1  180.0000771  10.4600000  2
     39     36    139    119     1  180.0000771  10.4600000  2
     40     34     89     69     1  180.0000771  10.4600000  2
     41     47     48     57     1  180.0000771  2.0083200  2
     41     47     48     57     1  0.0000000  1.2552000  3
     41     47     51     54     1  180.0000771  2.0083200  2
     41     47     51     54     1  0.0000000  1.2552000  3
     44     41     47     48     1  180.0000771  2.0083200  2
     44     41     47     48     1  0.0000000  1.2552000  3
     44     41     47     51     1  180.0000771  2.0083200  2
     44     41     47     51     1  0.0000000  1.2552000  3
     47     41     44     64     1  0.0000000  0.6508444  3
     47     48     57     61     1  0.0000000  0.6508444  3
     47     51     54     60     1  0.0000000  0.6508444  3
     48     47     51     54     1  180.0000771  2.0083200  2
     48     47     51     54     1  0.0000000  1.2552000  3
     48     57     61     63     1  180.0000771  0.0000000  2
     48     57     61    189     1  0.0000000  0.2928800  2
     48     57     61    189     1  0.0000000  0.4184000  4
     51     47     48     57     1  180.0000771  2.0083200  2
     51     47     48     57     1  0.0000000  1.2552000  3
     51     54     60     62     1  180.0000771  0.0000000  2
     51     54     60    164     1  0.0000000  0.2928800  2
     51     54     60    164     1  0.0000000  0.4184000  4
     54     60    164    144     1  180.0000771  6.2760000  1
     54     60    164    144     1  0.0000000  0.0000000  2
     57     61    189    169     1  180.0000771  6.2760000  1
     57     61    189    169     1  0.0000000  0.0000000  2
     60    164    144    141     1  0.0000000  2.2175200  1
     60    164    144    141     1  0.0000000  0.0000000  2
     60    164    144    141     1  180.0000771  0.6276000  3
     60    164    144    141     1  180.0000771  2.0920000  4
     61    189    169    166     1  0.0000000  2.2175200  1
     61    189    169    166     1  0.0000000  0.0000000  2
     61    189    169    166     1  180.0000771  0.6276000  3
     61    189    169    166     1  180.0000771  2.0920000  4
     62     60    164    144     1  180.0000771  10.4600000  2
     63     61    189    169     1  180.0000771  10.4600000  2
     66     72     73     82     1  180.0000771  2.0083200  2
     66     72     73     82     1  0.0000000  1.2552000  3
     66     72     76     79     1  180.0000771  2.0083200  2
     66     72     76     79     1  0.0000000  1.2552000  3
     69     66     72     73     1  180.0000771  2.0083200  2
     69     66     72     73     1  0.0000000  1.2552000  3
     69     66     72     76     1  180.0000771  2.0083200  2
     69     66     72     76     1  0.0000000  1.2552000  3
     72     66     69     89     1  0.0000000  0.6508444  3
     72     73     82     86     1  0.0000000  0.6508444  3
     72     76     79     85     1  0.0000000  0.6508444  3
     73     72     76     79     1  180.0000771  2.0083200  2
     73     72     76     79     1  0.0000000  1.2552000  3
     73     82     86     88     1  180.0000771  0.0000000  2
     73     82     86    239     1  0.0000000  0.2928800  2
     73     82     86    239     1  0.0000000  0.4184000  4
     76     72     73     82     1  180.0000771  2.0083200  2
     76     72     73     82     1  0.0000000  1.2552000  3
     76     79     85     87     1  180.0000771  0.0000000  2
     76     79     85    214     1  0.0000000  0.2928800  2
     76     79     85    214     1  0.0000000  0.4184000  4
     79     85    214    194     1  180.0000771  6.2760000  1
     79     85    214    194     1  0.0000000  0.0000000  2
     82     86    239    219     1  180.0000771  6.2760000  1
     82     86    239    219     1  0.0000000  0.0000000  2
     85    214    194    191     1  0.0000000  2.2175200  1
     85    214    194    191     1  0.0000000  0.0000000  2
     85    214    194    191     1  180.0000771  0.6276000  3
     85    214    194    191     1  180.0000771  2.0920000  4
     86    239    219    216     1  0.0000000  2.2175200  1
     86    239    219    216     1  0.0000000  0.0000000  2
     86    239    219    216     1  180.0000771  0.6276000  3
     86    239    219    216     1  180.0000771  2.0920000  4
     87     85    214    194     1  180.0000771  10.4600000  2
     88     86    239    219     1  180.0000771  10.4600000  2
     91     97     98    107     1  180.0000771  2.0083200  2
     91     97     98    107     1  0.0000000  1.2552000  3
     91     97    101    104     1  180.0000771  2.0083200  2
     91     97    101    104     1  0.0000000  1.2552000  3
     94     91     97     98     1  180.0000771  2.0083200  2
     94     91     97     98     1  0.0000000  1.2552000  3
     94     91     97    101     1  180.0000771  2.0083200  2
     94     91     97    101     1  0.0000000  1.2552000  3
     97     91     94    114     1  0.0000000  0.6508444  3
     97     98    107    111     1  0.0000000  0.6508444  3
     97    101    104    110     1  0.0000000  0.6508444  3
     98     97    101    104     1  180.0000771  2.0083200  2
     98     97    101    104     1  0.0000000  1.2552000  3
     98    107    111    113     1  180.0000771  0.0000000  2
     98    107    111    289     1  0.0000000  0.2928800  2
     98    107    111    289     1  0.0000000  0.4184000  4
    101     97     98    107     1  180.0000771  2.0083200  2
    101     97     98    107     1  0.0000000  1.2552000  3
    101    104    110    112     1  180.0000771  0.0000000  2
    101    104    110    264     1  0.0000000  0.2928800  2
    101    104    110    264     1  0.0000000  0.4184000  4
    104    110    264    244     1  180.0000771  6.2760000  1
    104    110    264    244     1  0.0000000  0.0000000  2
    107    111    289    269     1  180.0000771  6.2760000  1
    107    111    289    269     1  0.0000000  0.0000000  2
    110    264    244    241     1  0.0000000  2.2175200  1
    110    264    244    241     1  0.0000000  0.0000000  2
    110    264    244    241     1  180.0000771  0.6276000  3
    110    264    244    241     1  180.0000771  2.0920000  4
    111    289    269    266     1  0.0000000  2.2175200  1
    111    289    269    266     1  0.0000000  0.0000000  2
    111    289    269    266     1  180.0000771  0.6276000  3
    111    289    269    266     1  180.0000771  2.0920000  4
    112    110    264    244     1  180.0000771  10.4600000  2
    113    111    289    269     1  180.0000771  10.4600000  2
    116    122    123    132     1  180.0000771  2.0083200  2
    116    122    123    132     1  0.0000000  1.2552000  3
    116    122    126    129     1  180.0000771  2.0083200  2
    116    122    126    129     1  0.0000000  1.2552000  3
    119    116    122    123     1  180.0000771  2.0083200  2
    119    116    122    123     1  0.0000000  1.2552000  3
    119    116    122    126     1  180.0000771  2.0083200  2
    119    116    122    126     1  0.0000000  1.2552000  3
    122    116    119    139     1  0.0000000  0.6508444  3
    122    123    132    136     1  0.0000000  0.6508444  3
    122    126    129    135     1  0.0000000  0.6508444  3
    123    122    126    129     1  180.0000771  2.0083200  2
    123    122    126    129     1  0.0000000  1.2552000  3
    123    132    136    138     1  180.0000771  0.0000000  2
    123    132    136    339     1  0.0000000  0.2928800  2
    123    132    136    339     1  0.0000000  0.4184000  4
    126    122    123    132     1  180.0000771  2.0083200  2
    126    122    123    132     1  0.0000000  1.2552000  3
    126    129    135    137     1  180.0000771  0.0000000  2
    126    129    135    314     1  0.0000000  0.2928800  2
    126    129    135    314     1  0.0000000  0.4184000  4
    129    135    314    294     1  180.0000771  6.2760000  1
    129    135    314    294     1  0.0000000  0.0000000  2
    132    136    339    319     1  180.0000771  6.2760000  1
    132    136    339    319     1  0.0000000  0.0000000  2
    135    314    294    291     1  0.0000000  2.2175200  1
    135    314    294    291     1  0.0000000  0.0000000  2
    135    314    294    291     1  180.0000771  0.6276000  3
    135    314    294    291     1  180.0000771  2.0920000  4
    136    339    319    316     1  0.0000000  2.2175200  1
    136    339    319    316     1  0.0000000  0.0000000  2
    136    339    319    316     1  180.0000771  0.6276000  3
    136    339    319    316     1  180.0000771  2.0920000  4
    137    135    314    294     1  180.0000771  10.4600000  2
    138    136    339    319     1  180.0000771  10.4600000  2
    141    147    148    157     1  180.0000771  2.0083200  2
    141    147    148    157     1  0.0000000  1.2552000  3
    141    147    151    154     1  180.0000771  2.0083200  2
    141    147    151    154     1  0.0000000  1.2552000  3
    144    141    147    148     1  180.0000771  2.0083200  2
    144    141    147    148     1  0.0000000  1.2552000  3
    144    141    147    151     1  180.0000771  2.0083200  2
    144    141    147    151     1  0.0000000  1.2552000  3
    147    141    144    164     1  0.0000000  0.6508444  3
    147    148    157    161     1  0.0000000  0.6508444  3
    147    151    154    160     1  0.0000000  0.6508444  3
    148    147    151    154     1  180.0000771  2.0083200  2
    148    147    151    154     1  0.0000000  1.2552000  3
    148    157    161    163     1  180.0000771  0.0000000  2
    148    157    161    389     1  0.0000000  0.2928800  2
    148    157    161    389     1  0.0000000  0.4184000  4
    151    147    148    157     1  180.0000771  2.0083200  2
    151    147    148    157     1  0.0000000  1.2552000  3
    151    154    160    162     1  180.0000771  0.0000000  2
    151    154    160    364     1  0.0000000  0.2928800  2
    151    154    160    364     1  0.0000000  0.4184000  4
    154    160    364    344     1  180.0000771  6.2760000  1
    154    160    364    344     1  0.0000000  0.0000000  2
    157    161    389    369     1  180.0000771  6.2760000  1
    157    161    389    369     1  0.0000000  0.0000000  2
    160    364    344    341     1  0.0000000  2.2175200  1
    160    364    344    341     1  0.0000000  0.0000000  2
    160    364    344    341     1  180.0000771  0.6276000  3
    160    364    344    341     1  180.0000771  2.0920000  4
    161    389    369    366     1  0.0000000  2.2175200  1
    161    389    369    366     1  0.0000000  0.0000000  2
    161    389    369    366     1  180.0000771  0.6276000  3
    161    389    369    366     1  180.0000771  2.0920000  4
    162    160    364    344     1  180.0000771  10.4600000  2
    163    161    389    369     1  180.0000771  10.4600000  2
    166    172    173    182     1  180.0000771  2.0083200  2
    166    172    173    182     1  0.0000000  1.2552000  3
    166    172    176    179     1  180.0000771  2.0083200  2
    166    172    176    179     1  0.0000000  1.2552000  3
    169    166    172    173     1  180.0000771  2.0083200  2
    169    166    172    173     1  0.0000000  1.2552000  3
    169    166    172    176     1  180.0000771  2.0083200  2
    169    166    172    176     1  0.0000000  1.2552000  3
    172    166    169    189     1  0.0000000  0.6508444  3
    172    173    182    186     1  0.0000000  0.6508444  3
    172    176    179    185     1  0.0000000  0.6508444  3
    173    172    176    179     1  180.0000771  2.0083200  2
    173    172    176    179     1  0.0000000  1.2552000  3
    173    182    186    188     1  180.0000771  0.0000000  2
    173    182    186    439     1  0.0000000  0.2928800  2
    173    182    186    439     1  0.0000000  0.4184000  4
    176    172    173    182     1  180.0000771  2.0083200  2
    176    172    173    182     1  0.0000000  1.2552000  3
    176    179    185    187     1  180.0000771  0.0000000  2
    176    179    185    414     1  0.0000000  0.2928800  2
    176    179    185    414     1  0.0000000  0.4184000  4
    179    185    414    394     1  180.0000771  6.2760000  1
    179    185    414    394     1  0.0000000  0.0000000  2
    182    186    439    419     1  180.0000771  6.2760000  1
    182    186    439    419     1  0.0000000  0.0000000  2
    185    414    394    391     1  0.0000000  2.2175200  1
    185    414    394    391     1  0.0000000  0.0000000  2
    185    414    394    391     1  180.0000771  0.6276000  3
    185    414    394    391     1  180.0000771  2.0920000  4
    186    439    419    416     1  0.0000000  2.2175200  1
    186    439    419    416     1  0.0000000  0.0000000  2
    186    439    419    416     1  180.0000771  0.6276000  3
    186    439    419    416     1  180.0000771  2.0920000  4
    187    185    414    394     1  180.0000771  10.4600000  2
    188    186    439    419     1  180.0000771  10.4600000  2
    191    197    198    207     1  180.0000771  2.0083200  2
    191    197    198    207     1  0.0000000  1.2552000  3
    191    197    201    204     1  180.0000771  2.0083200  2
    191    197    201    204     1  0.0000000  1.2552000  3
    194    191    197    198     1  180.0000771  2.0083200  2
    194    191    197    198     1  0.0000000  1.2552000  3
    194    191    197    201     1  180.0000771  2.0083200  2
    194    191    197    201     1  0.0000000  1.2552000  3
    197    191    194    214     1  0.0000000  0.6508444  3
    197    198    207    211     1  0.0000000  0.6508444  3
    197    201    204    210     1  0.0000000  0.6508444  3
    198    197    201    204     1  180.0000771  2.0083200  2
    198    197    201    204     1  0.0000000  1.2552000  3
    198    207    211    213     1  180.0000771  0.0000000  2
    198    207    211    489     1  0.0000000  0.2928800  2
    198    207    211    489     1  0.0000000  0.4184000  4
    201    197    198    207     1  180.0000771  2.0083200  2
    201    197    198    207     1  0.0000000  1.2552000  3
    201    204    210    212     1  180.0000771  0.0000000  2
    201    204    210    464     1  0.0000000  0.2928800  2
    201    204    210    464     1  0.0000000  0.4184000  4
    204    210    464    444     1  180.0000771  6.2760000  1
    204    210    464    444     1  0.0000000  0.0000000  2
    207    211    489    469     1  180.0000771  6.2760000  1
    207    211    489    469     1  0.0000000  0.0000000  2
    210    464    444    441     1  0.0000000  2.2175200  1
    210    464    444    441     1  0.0000000  0.0000000  2
    210    464    444    441     1  180.0000771  0.6276000  3
    210    464    444    441     1  180.0000771  2.0920000  4
    211    489    469    466     1  0.0000000  2.2175200  1
    211    489    469    466     1  0.0000000  0.0000000  2
    211    489    469    466     1  180.0000771  0.6276000  3
    211    489    469    466     1  180.0000771  2.0920000  4
    212    210    464    444     1  180.0000771  10.4600000  2
    213    211    489    469     1  180.0000771  10.4600000  2
    216    222    223    232     1  180.0000771  2.0083200  2
    216    222    223    232     1  0.0000000  1.2552000  3
    216    222    226    229     1  180.0000771  2.0083200  2
    216    222    226    229     1  0.0000000  1.2552000  3
    219    216    222    223     1  180.0000771  2.0083200  2
    219    216    222    223     1  0.0000000  1.2552000  3
    219    216    222    226     1  180.0000771  2.0083200  2
    219    216    222    226     1  0.0000000  1.2552000  3
    222    216    219    239     1  0.0000000  0.6508444  3
    222    223    232    236     1  0.0000000  0.6508444  3
    222    226    229    235     1  0.0000000  0.6508444  3
    223    222    226    229     1  180.0000771  2.0083200  2
    223    222    226    229     1  0.0000000  1.2552000  3
    223    232    236    238     1  180.0000771  0.0000000  2
    223    232    236    539     1  0.0000000  0.2928800  2
    223    232    236    539     1  0.0000000  0.4184000  4
    226    222    223    232     1  180.0000771  2.0083200  2
    226    222    223    232     1  0.0000000  1.2552000  3
    226    229    235    237     1  180.0000771  0.0000000  2
    226    229    235    514     1  0.0000000  0.2928800  2
    226    229    235    514     1  0.0000000  0.4184000  4
    229    235    514    494     1  180.0000771  6.2760000  1
    229    235    514    494     1  0.0000000  0.0000000  2
    232    236    539    519     1  180.0000771  6.2760000  1
    232    236    539    519     1  0.0000000  0.0000000  2
    235    514    494    491     1  0.0000000  2.2175200  1
    235    514    494    491     1  0.0000000  0.0000000  2
    235    514    494    491     1  180.0000771  0.6276000  3
    235    514    494    491     1  180.0000771  2.0920000  4
    236    539    519    516     1  0.0000000  2.2175200  1
    236    539    519    516     1  0.0000000  0.0000000  2
    236    539    519    516     1  180.0000771  0.6276000  3
    236    539    519    516     1  180.0000771  2.0920000  4
    237    235    514    494     1  180.0000771  10.4600000  2
    238    236    539    519     1  180.0000771  10.4600000  2
    241    247    248    257     1  180.0000771  2.0083200  2
    241    247    248    257     1  0.0000000  1.2552000  3
    241    247    251    254     1  180.0000771  2.0083200  2
    241    247    251    254     1  0.0000000  1.2552000  3
    244    241    247    248     1  180.0000771  2.0083200  2
    244    241    247    248     1  0.0000000  1.2552000  3
    244    241    247    251     1  180.0000771  2.0083200  2
    244    241    247    251     1  0.0000000  1.2552000  3
    247    241    244    264     1  0.0000000  0.6508444  3
    247    248    257    261     1  0.0000000  0.6508444  3
    247    251    254    260     1  0.0000000  0.6508444  3
    248    247    251    254     1  180.0000771  2.0083200  2
    248    247    251    254     1  0.0000000  1.2552000  3
    248    257    261    263     1  180.0000771  0.0000000  2
    248    257    261    589     1  0.0000000  0.2928800  2
    248    257    261    589     1  0.0000000  0.4184000  4
    251    247    248    257     1  180.0000771  2.0083200  2
    251    247    248    257     1  0.0000000  1.2552000  3
    251    254    260    262     1  180.0000771  0.0000000  2
    251    254    260    564     1  0.0000000  0.2928800  2
    251    254    260    564     1  0.0000000  0.4184000  4
    254    260    564    544     1  180.0000771  6.2760000  1
    254    260    564    544     1  0.0000000  0.0000000  2
    257    261    589    569     1  180.0000771  6.2760000  1
    257    261    589    569     1  0.0000000  0.0000000  2
    260    564    544    541     1  0.0000000  2.2175200  1
    260    564    544    541     1  0.0000000  0.0000000  2
    260    564    544    541     1  180.0000771  0.6276000  3
    260    564    544    541     1  180.0000771  2.0920000  4
    261    589    569    566     1  0.0000000  2.2175200  1
    261    589    569    566     1  0.0000000  0.0000000  2
    261    589    569    566     1  180.0000771  0.6276000  3
    261    589    569    566     1  180.0000771  2.0920000  4
    262    260    564    544     1  180.0000771  10.4600000  2
    263    261    589    569     1  180.0000771  10.4600000  2
    266    272    273    282     1  180.0000771  2.0083200  2
    266    272    273    282     1  0.0000000  1.2552000  3
    266    272    276    279     1  180.0000771  2.0083200  2
    266    272    276    279     1  0.0000000  1.2552000  3
    269    266    272    273     1  180.0000771  2.0083200  2
    269    266    272    273     1  0.0000000  1.2552000  3
    269    266    272    276     1  180.0000771  2.0083200  2
    269    266    272    276     1  0.0000000  1.2552000  3
    272    266    269    289     1  0.0000000  0.6508444  3
    272    273    282    286     1  0.0000000  0.6508444  3
    272    276    279    285     1  0.0000000  0.6508444  3
    273    272    276    279     1  180.0000771  2.0083200  2
    273    272    276    279     1  0.0000000  1.2552000  3
    273    282    286    288     1  180.0000771  0.0000000  2
    273    282    286    639     1  0.0000000  0.2928800  2
    273    282    286    639     1  0.0000000  0.4184000  4
    276    272    273    282     1  180.0000771  2.0083200  2
    276    272    273    282     1  0.0000000  1.2552000  3
    276    279    285    287     1  180.0000771  0.0000000  2
    276    279    285    614     1  0.0000000  0.2928800  2
    276    279    285    614     1  0.0000000  0.4184000  4
    279    285    614    594     1  180.0000771  6.2760000  1
    279    285    614    594     1  0.0000000  0.0000000  2
    282    286    639    619     1  180.0000771  6.2760000  1
    282    286    639    619     1  0.0000000  0.0000000  2
    285    614    594    591     1  0.0000000  2.2175200  1
    285    614    594    591     1  0.0000000  0.0000000  2
    285    614    594    591     1  180.0000771  0.6276000  3
    285    614    594    591     1  180.0000771  2.0920000  4
    286    639    619    616     1  0.0000000  2.2175200  1
    286    639    619    616     1  0.0000000  0.0000000  2
    286    639    619    616     1  180.0000771  0.6276000  3
    286    639    619    616     1  180.0000771  2.0920000  4
    287    285    614    594     1  180.0000771  10.4600000  2
    288    286    639    619     1  180.0000771  10.4600000  2
    291    297    298    307     1  180.0000771  2.0083200  2
    291    297    298    307     1  0.0000000  1.2552000  3
    291    297    301    304     1  180.0000771  2.0083200  2
    291    297    301    304     1  0.0000000  1.2552000  3
    294    291    297    298     1  180.0000771  2.0083200  2
    294    291    297    298     1  0.0000000  1.2552000  3
    294    291    297    301     1  180.0000771  2.0083200  2
    294    291    297    301     1  0.0000000  1.2552000  3
    297    291    294    314     1  0.0000000  0.6508444  3
    297    298    307    311     1  0.0000000  0.6508444  3
    297    301    304    310     1  0.0000000  0.6508444  3
    298    297    301    304     1  180.0000771  2.0083200  2
    298    297    301    304     1  0.0000000  1.2552000  3
    298    307    311    313     1  180.0000771  0.0000000  2
    298    307    311    689     1  0.0000000  0.2928800  2
    298    307    311    689     1  0.0000000  0.4184000  4
    301    297    298    307     1  180.0000771  2.0083200  2
    301    297    298    307     1  0.0000000  1.2552000  3
    301    304    310    312     1  180.0000771  0.0000000  2
    301    304    310    664     1  0.0000000  0.2928800  2
    301    304    310    664     1  0.0000000  0.4184000  4
    304    310    664    644     1  180.0000771  6.2760000  1
    304    310    664    644     1  0.0000000  0.0000000  2
    307    311    689    669     1  180.0000771  6.2760000  1
    307    311    689    669     1  0.0000000  0.0000000  2
    310    664    644    641     1  0.0000000  2.2175200  1
    310    664    644    641     1  0.0000000  0.0000000  2
    310    664    644    641     1  180.0000771  0.6276000  3
    310    664    644    641     1  180.0000771  2.0920000  4
    311    689    669    666     1  0.0000000  2.2175200  1
    311    689    669    666     1  0.0000000  0.0000000  2
    311    689    669    666     1  180.0000771  0.6276000  3
    311    689    669    666     1  180.0000771  2.0920000  4
    312    310    664    644     1  180.0000771  10.4600000  2
    313    311    689    669     1  180.0000771  10.4600000  2
    316    322    323    332     1  180.0000771  2.0083200  2
    316    322    323    332     1  0.0000000  1.2552000  3
    316    322    326    329     1  180.0000771  2.0083200  2
    316    322    326    329     1  0.0000000  1.2552000  3
    319    316    322    323     1  180.0000771  2.0083200  2
    319    316    322    323     1  0.0000000  1.2552000  3
    319    316    322    326     1  180.0000771  2.0083200  2
    319    316    322    326     1  0.0000000  1.2552000  3
    322    316    319    339     1  0.0000000  0.6508444  3
    322    323    332    336     1  0.0000000  0.6508444  3
    322    326    329    335     1  0.0000000  0.6508444  3
    323    322    326    329     1  180.0000771  2.0083200  2
    323    322    326    329     1  0.0000000  1.2552000  3
    323    332    336    338     1  180.0000771  0.0000000  2
    323    332    336    739     1  0.0000000  0.2928800  2
    323    332    336    739     1  0.0000000  0.4184000  4
    326    322    323    332     1  180.0000771  2.0083200  2
    326    322    323    332     1  0.0000000  1.2552000  3
    326    329    335    337     1  180.0000771  0.0000000  2
    326    329    335    714     1  0.0000000  0.2928800  2
    326    329    335    714     1  0.0000000  0.4184000  4
    329    335    714    694     1  180.0000771  6.2760000  1
    329    335    714    694     1  0.0000000  0.0000000  2
    332    336    739    719     1  180.0000771  6.2760000  1
    332    336    739    719     1  0.0000000  0.0000000  2
    335    714    694    691     1  0.0000000  2.2175200  1
    335    714    694    691     1  0.0000000  0.0000000  2
    335    714    694    691     1  180.0000771  0.6276000  3
    335    714    694    691     1  180.0000771  2.0920000  4
    336    739    719    716     1  0.0000000  2.2175200  1
    336    739    719    716     1  0.0000000  0.0000000  2
    336    739    719    716     1  180.0000771  0.6276000  3
    336    739    719    716     1  180.0000771  2.0920000  4
    337    335    714    694     1  180.0000771  10.4600000  2
    338    336    739    719     1  180.0000771  10.4600000  2
    341    347    348    357     1  180.0000771  2.0083200  2
    341    347    348    357     1  0.0000000  1.2552000  3
    341    347    351    354     1  180.0000771  2.0083200  2
    341    347    351    354     1  0.0000000  1.2552000  3
    344    341    347    348     1  180.0000771  2.0083200  2
    344    341    347    348     1  0.0000000  1.2552000  3
    344    341    347    351     1  180.0000771  2.0083200  2
    344    341    347    351     1  0.0000000  1.2552000  3
    347    341    344    364     1  0.0000000  0.6508444  3
    347    348    357    361     1  0.0000000  0.6508444  3
    347    351    354    360     1  0.0000000  0.6508444  3
    348    347    351    354     1  180.0000771  2.0083200  2
    348    347    351    354     1  0.0000000  1.2552000  3
    348    357    361    363     1  180.0000771  0.0000000  2
    348    357    361    789     1  0.0000000  0.2928800  2
    348    357    361    789     1  0.0000000  0.4184000  4
    351    347    348    357     1  180.0000771  2.0083200  2
    351    347    348    357     1  0.0000000  1.2552000  3
    351    354    360    362     1  180.0000771  0.0000000  2
    351    354    360    764     1  0.0000000  0.2928800  2
    351    354    360    764     1  0.0000000  0.4184000  4
    354    360    764    744     1  180.0000771  6.2760000  1
    354    360    764    744     1  0.0000000  0.0000000  2
    357    361    789    769     1  180.0000771  6.2760000  1
    357    361    789    769     1  0.0000000  0.0000000  2
    360    764    744    741     1  0.0000000  2.2175200  1
    360    764    744    741     1  0.0000000  0.0000000  2
    360    764    744    741     1  180.0000771  0.6276000  3
    360    764    744    741     1  180.0000771  2.0920000  4
    361    789    769    766     1  0.0000000  2.2175200  1
    361    789    769    766     1  0.0000000  0.0000000  2
    361    789    769    766     1  180.0000771  0.6276000  3
    361    789    769    766     1  180.0000771  2.0920000  4
    362    360    764    744     1  180.0000771  10.4600000  2
    363    361    789    769     1  180.0000771  10.4600000  2
    366    372    373    382     1  180.0000771  2.0083200  2
    366    372    373    382     1  0.0000000  1.2552000  3
    366    372    376    379     1  180.0000771  2.0083200  2
    366    372    376    379     1  0.0000000  1.2552000  3
    369    366    372    373     1  180.0000771  2.0083200  2
    369    366    372    373     1  0.0000000  1.2552000  3
    369    366    372    376     1  180.0000771  2.0083200  2
    369    366    372    376     1  0.0000000  1.2552000  3
    372    366    369    389     1  0.0000000  0.6508444  3
    372    373    382    386     1  0.0000000  0.6508444  3
    372    376    379    385     1  0.0000000  0.6508444  3
    373    372    376    379     1  180.0000771  2.0083200  2
    373    372    376    379     1  0.0000000  1.2552000  3
    373    382    386    388     1  180.0000771  0.0000000  2
    373    382    386    839     1  0.0000000  0.2928800  2
    373    382    386    839     1  0.0000000  0.4184000  4
    376    372    373    382     1  180.0000771  2.0083200  2
    376    372    373    382     1  0.0000000  1.2552000  3
    376    379    385    387     1  180.0000771  0.0000000  2
    376    379    385    814     1  0.0000000  0.2928800  2
    376    379    385    814     1  0.0000000  0.4184000  4
    379    385    814    794     1  180.0000771  6.2760000  1
    379    385    814    794     1  0.0000000  0.0000000  2
    382    386    839    819     1  180.0000771  6.2760000  1
    382    386    839    819     1  0.0000000  0.0000000  2
    385    814    794    791     1  0.0000000  2.2175200  1
    385    814    794    791     1  0.0000000  0.0000000  2
    385    814    794    791     1  180.0000771  0.6276000  3
    385    814    794    791     1  180.0000771  2.0920000  4
    386    839    819    816     1  0.0000000  2.2175200  1
    386    839    819    816     1  0.0000000  0.0000000  2
    386    839    819    816     1  180.0000771  0.6276000  3
    386    839    819    816     1  180.0000771  2.0920000  4
    387    385    814    794     1  180.0000771  10.4600000  2
    388    386    839    819     1  180.0000771  10.4600000  2
    391    397    398    407     1  180.0000771  2.0083200  2
    391    397    398    407     1  0.0000000  1.2552000  3
    391    397    401    404     1  180.0000771  2.0083200  2
    391    397    401    404     1  0.0000000  1.2552000  3
    394    391    397    398     1  180.0000771  2.0083200  2
    394    391    397    398     1  0.0000000  1.2552000  3
    394    391    397    401     1  180.0000771  2.0083200  2
    394    391    397    401     1  0.0000000  1.2552000  3
    397    391    394    414     1  0.0000000  0.6508444  3
    397    398    407    411     1  0.0000000  0.6508444  3
    397    401    404    410     1  0.0000000  0.6508444  3
    398    397    401    404     1  180.0000771  2.0083200  2
    398    397    401    404     1  0.0000000  1.2552000  3
    398    407    411    413     1  180.0000771  0.0000000  2
    398    407    411    889     1  0.0000000  0.2928800  2
    398    407    411    889     1  0.0000000  0.4184000  4
    401    397    398    407     1  180.0000771  2.0083200  2
    401    397    398    407     1  0.0000000  1.2552000  3
    401    404    410    412     1  180.0000771  0.0000000  2
    401    404    410    864     1  0.0000000  0.2928800  2
    401    404    410    864     1  0.0000000  0.4184000  4
    404    410    864    844     1  180.0000771  6.2760000  1
    404    410    864    844     1  0.0000000  0.0000000  2
    407    411    889    869     1  180.0000771  6.2760000  1
    407    411    889    869     1  0.0000000  0.0000000  2
    410    864    844    841     1  0.0000000  2.2175200  1
    410    864    844    841     1  0.0000000  0.0000000  2
    410    864    844    841     1  180.0000771  0.6276000  3
    410    864    844    841     1  180.0000771  2.0920000  4
    411    889    869    866     1  0.0000000  2.2175200  1
    411    889    869    866     1  0.0000000  0.0000000  2
    411    889    869    866     1  180.0000771  0.6276000  3
    411    889    869    866     1  180.0000771  2.0920000  4
    412    410    864    844     1  180.0000771  10.4600000  2
    413    411    889    869     1  180.0000771  10.4600000  2
    416    422    423    432     1  180.0000771  2.0083200  2
    416    422    423    432     1  0.0000000  1.2552000  3
    416    422    426    429     1  180.0000771  2.0083200  2
    416    422    426    429     1  0.0000000  1.2552000  3
    419    416    422    423     1  180.0000771  2.0083200  2
    419    416    422    423     1  0.0000000  1.2552000  3
    419    416    422    426     1  180.0000771  2.0083200  2
    419    416    422    426     1  0.0000000  1.2552000  3
    422    416    419    439     1  0.0000000  0.6508444  3
    422    423    432    436     1  0.0000000  0.6508444  3
    422    426    429    435     1  0.0000000  0.6508444  3
    423    422    426    429     1  180.0000771  2.0083200  2
    423    422    426    429     1  0.0000000  1.2552000  3
    423    432    436    438     1  180.0000771  0.0000000  2
    423    432    436    939     1  0.0000000  0.2928800  2
    423    432    436    939     1  0.0000000  0.4184000  4
    426    422    423    432     1  180.0000771  2.0083200  2
    426    422    423    432     1  0.0000000  1.2552000  3
    426    429    435    437     1  180.0000771  0.0000000  2
    426    429    435    914     1  0.0000000  0.2928800  2
    426    429    435    914     1  0.0000000  0.4184000  4
    429    435    914    894     1  180.0000771  6.2760000  1
    429    435    914    894     1  0.0000000  0.0000000  2
    432    436    939    919     1  180.0000771  6.2760000  1
    432    436    939    919     1  0.0000000  0.0000000  2
    435    914    894    891     1  0.0000000  2.2175200  1
    435    914    894    891     1  0.0000000  0.0000000  2
    435    914    894    891     1  180.0000771  0.6276000  3
    435    914    894    891     1  180.0000771  2.0920000  4
    436    939    919    916     1  0.0000000  2.2175200  1
    436    939    919    916     1  0.0000000  0.0000000  2
    436    939    919    916     1  180.0000771  0.6276000  3
    436    939    919    916     1  180.0000771  2.0920000  4
    437    435    914    894     1  180.0000771  10.4600000  2
    438    436    939    919     1  180.0000771  10.4600000  2
    441    447    448    457     1  180.0000771  2.0083200  2
    441    447    448    457     1  0.0000000  1.2552000  3
    441    447    451    454     1  180.0000771  2.0083200  2
    441    447    451    454     1  0.0000000  1.2552000  3
    444    441    447    448     1  180.0000771  2.0083200  2
    444    441    447    448     1  0.0000000  1.2552000  3
    444    441    447    451     1  180.0000771  2.0083200  2
    444    441    447    451     1  0.0000000  1.2552000  3
    447    441    444    464     1  0.0000000  0.6508444  3
    447    448    457    461     1  0.0000000  0.6508444  3
    447    451    454    460     1  0.0000000  0.6508444  3
    448    447    451    454     1  180.0000771  2.0083200  2
    448    447    451    454     1  0.0000000  1.2552000  3
    448    457    461    463     1  180.0000771  0.0000000  2
    448    457    461    989     1  0.0000000  0.2928800  2
    448    457    461    989     1  0.0000000  0.4184000  4
    451    447    448    457     1  180.0000771  2.0083200  2
    451    447    448    457     1  0.0000000  1.2552000  3
    451    454    460    462     1  180.0000771  0.0000000  2
    451    454    460    964     1  0.0000000  0.2928800  2
    451    454    460    964     1  0.0000000  0.4184000  4
    454    460    964    944     1  180.0000771  6.2760000  1
    454    460    964    944     1  0.0000000  0.0000000  2
    457    461    989    969     1  180.0000771  6.2760000  1
    457    461    989    969     1  0.0000000  0.0000000  2
    460    964    944    941     1  0.0000000  2.2175200  1
    460    964    944    941     1  0.0000000  0.0000000  2
    460    964    944    941     1  180.0000771  0.6276000  3
    460    964    944    941     1  180.0000771  2.0920000  4
    461    989    969    966     1  0.0000000  2.2175200  1
    461    989    969    966     1  0.0000000  0.0000000  2
    461    989    969    966     1  180.0000771  0.6276000  3
    461    989    969    966     1  180.0000771  2.0920000  4
    462    460    964    944     1  180.0000771  10.4600000  2
    463    461    989    969     1  180.0000771  10.4600000  2
    466    472    473    482     1  180.0000771  2.0083200  2
    466    472    473    482     1  0.0000000  1.2552000  3
    466    472    476    479     1  180.0000771  2.0083200  2
    466    472    476    479     1  0.0000000  1.2552000  3
    469    466    472    473     1  180.0000771  2.0083200  2
    469    466    472    473     1  0.0000000  1.2552000  3
    469    466    472    476     1  180.0000771  2.0083200  2
    469    466    472    476     1  0.0000000  1.2552000  3
    472    466    469    489     1  0.0000000  0.6508444  3
    472    473    482    486     1  0.0000000  0.6508444  3
    472    476    479    485     1  0.0000000  0.6508444  3
    473    472    476    479     1  180.0000771  2.0083200  2
    473    472    476    479     1  0.0000000  1.2552000  3
    473    482    486    488     1  180.0000771  0.0000000  2
    473    482    486   1039     1  0.0000000  0.2928800  2
    473    482    486   1039     1  0.0000000  0.4184000  4
    476    472    473    482     1  180.0000771  2.0083200  2
    476    472    473    482     1  0.0000000  1.2552000  3
    476    479    485    487     1  180.0000771  0.0000000  2
    476    479    485   1014     1  0.0000000  0.2928800  2
    476    479    485   1014     1  0.0000000  0.4184000  4
    479    485   1014    994     1  180.0000771  6.2760000  1
    479    485   1014    994     1  0.0000000  0.0000000  2
    482    486   1039   1019     1  180.0000771  6.2760000  1
    482    486   1039   1019     1  0.0000000  0.0000000  2
    485   1014    994    991     1  0.0000000  2.2175200  1
    485   1014    994    991     1  0.0000000  0.0000000  2
    485   1014    994    991     1  180.0000771  0.6276000  3
    485   1014    994    991     1  180.0000771  2.0920000  4
    486   1039   1019   1016     1  0.0000000  2.2175200  1
    486   1039   1019   1016     1  0.0000000  0.0000000  2
    486   1039   1019   1016     1  180.0000771  0.6276000  3
    486   1039   1019   1016     1  180.0000771  2.0920000  4
    487    485   1014    994     1  180.0000771  10.4600000  2
    488    486   1039   1019     1  180.0000771  10.4600000  2
    491    497    498    507     1  180.0000771  2.0083200  2
    491    497    498    507     1  0.0000000  1.2552000  3
    491    497    501    504     1  180.0000771  2.0083200  2
    491    497    501    504     1  0.0000000  1.2552000  3
    494    491    497    498     1  180.0000771  2.0083200  2
    494    491    497    498     1  0.0000000  1.2552000  3
    494    491    497    501     1  180.0000771  2.0083200  2
    494    491    497    501     1  0.0000000  1.2552000  3
    497    491    494    514     1  0.0000000  0.6508444  3
    497    498    507    511     1  0.0000000  0.6508444  3
    497    501    504    510     1  0.0000000  0.6508444  3
    498    497    501    504     1  180.0000771  2.0083200  2
    498    497    501    504     1  0.0000000  1.2552000  3
    498    507    511    513     1  180.0000771  0.0000000  2
    498    507    511   1089     1  0.0000000  0.2928800  2
    498    507    511   1089     1  0.0000000  0.4184000  4
    501    497    498    507     1  180.0000771  2.0083200  2
    501    497    498    507     1  0.0000000  1.2552000  3
    501    504    510    512     1  180.0000771  0.0000000  2
    501    504    510   1064     1  0.0000000  0.2928800  2
    501    504    510   1064     1  0.0000000  0.4184000  4
    504    510   1064   1044     1  180.0000771  6.2760000  1
    504    510   1064   1044     1  0.0000000  0.0000000  2
    507    511   1089   1069     1  180.0000771  6.2760000  1
    507    511   1089   1069     1  0.0000000  0.0000000  2
    510   1064   1044   1041     1  0.0000000  2.2175200  1
    510   1064   1044   1041     1  0.0000000  0.0000000  2
    510   1064   1044   1041     1  180.0000771  0.6276000  3
    510   1064   1044   1041     1  180.0000771  2.0920000  4
    511   1089   1069   1066     1  0.0000000  2.2175200  1
    511   1089   1069   1066     1  0.0000000  0.0000000  2
    511   1089   1069   1066     1  180.0000771  0.6276000  3
    511   1089   1069   1066     1  180.0000771  2.0920000  4
    512    510   1064   1044     1  180.0000771  10.4600000  2
    513    511   1089   1069     1  180.0000771  10.4600000  2
    516    522    523    532     1  180.0000771  2.0083200  2
    516    522    523    532     1  0.0000000  1.2552000  3
    516    522    526    529     1  180.0000771  2.0083200  2
    516    522    526    529     1  0.0000000  1.2552000  3
    519    516    522    523     1  180.0000771  2.0083200  2
    519    516    522    523     1  0.0000000  1.2552000  3
    519    516    522    526     1  180.0000771  2.0083200  2
    519    516    522    526     1  0.0000000  1.2552000  3
    522    516    519    539     1  0.0000000  0.6508444  3
    522    523    532    536     1  0.0000000  0.6508444  3
    522    526    529    535     1  0.0000000  0.6508444  3
    523    522    526    529     1  180.0000771  2.0083200  2
    523    522    526    529     1  0.0000000  1.2552000  3
    523    532    536    538     1  180.0000771  0.0000000  2
    523    532    536   1139     1  0.0000000  0.2928800  2
    523    532    536   1139     1  0.0000000  0.4184000  4
    526    522    523    532     1  180.0000771  2.0083200  2
    526    522    523    532     1  0.0000000  1.2552000  3
    526    529    535    537     1  180.0000771  0.0000000  2
    526    529    535   1114     1  0.0000000  0.2928800  2
    526    529    535   1114     1  0.0000000  0.4184000  4
    529    535   1114   1094     1  180.0000771  6.2760000  1
    529    535   1114   1094     1  0.0000000  0.0000000  2
    532    536   1139   1119     1  180.0000771  6.2760000  1
    532    536   1139   1119     1  0.0000000  0.0000000  2
    535   1114   1094   1091     1  0.0000000  2.2175200  1
    535   1114   1094   1091     1  0.0000000  0.0000000  2
    535   1114   1094   1091     1  180.0000771  0.6276000  3
    535   1114   1094   1091     1  180.0000771  2.0920000  4
    536   1139   1119   1116     1  0.0000000  2.2175200  1
    536   1139   1119   1116     1  0.0000000  0.0000000  2
    536   1139   1119   1116     1  180.0000771  0.6276000  3
    536   1139   1119   1116     1  180.0000771  2.0920000  4
    537    535   1114   1094     1  180.0000771  10.4600000  2
    538    536   1139   1119     1  180.0000771  10.4600000  2
    541    547    548    557     1  180.0000771  2.0083200  2
    541    547    548    557     1  0.0000000  1.2552000  3
    541    547    551    554     1  180.0000771  2.0083200  2
    541    547    551    554     1  0.0000000  1.2552000  3
    544    541    547    548     1  180.0000771  2.0083200  2
    544    541    547    548     1  0.0000000  1.2552000  3
    544    541    547    551     1  180.0000771  2.0083200  2
    544    541    547    551     1  0.0000000  1.2552000  3
    547    541    544    564     1  0.0000000  0.6508444  3
    547    548    557    561     1  0.0000000  0.6508444  3
    547    551    554    560     1  0.0000000  0.6508444  3
    548    547    551    554     1  180.0000771  2.0083200  2
    548    547    551    554     1  0.0000000  1.2552000  3
    548    557    561    563     1  180.0000771  0.0000000  2
    548    557    561   1189     1  0.0000000  0.2928800  2
    548    557    561   1189     1  0.0000000  0.4184000  4
    551    547    548    557     1  180.0000771  2.0083200  2
    551    547    548    557     1  0.0000000  1.2552000  3
    551    554    560    562     1  180.0000771  0.0000000  2
    551    554    560   1164     1  0.0000000  0.2928800  2
    551    554    560   1164     1  0.0000000  0.4184000  4
    554    560   1164   1144     1  180.0000771  6.2760000  1
    554    560   1164   1144     1  0.0000000  0.0000000  2
    557    561   1189   1169     1  180.0000771  6.2760000  1
    557    561   1189   1169     1  0.0000000  0.0000000  2
    560   1164   1144   1141     1  0.0000000  2.2175200  1
    560   1164   1144   1141     1  0.0000000  0.0000000  2
    560   1164   1144   1141     1  180.0000771  0.6276000  3
    560   1164   1144   1141     1  180.0000771  2.0920000  4
    561   1189   1169   1166     1  0.0000000  2.2175200  1
    561   1189   1169   1166     1  0.0000000  0.0000000  2
    561   1189   1169   1166     1  180.0000771  0.6276000  3
    561   1189   1169   1166     1  180.0000771  2.0920000  4
    562    560   1164   1144     1  180.0000771  10.4600000  2
    563    561   1189   1169     1  180.0000771  10.4600000  2
    566    572    573    582     1  180.0000771  2.0083200  2
    566    572    573    582     1  0.0000000  1.2552000  3
    566    572    576    579     1  180.0000771  2.0083200  2
    566    572    576    579     1  0.0000000  1.2552000  3
    569    566    572    573     1  180.0000771  2.0083200  2
    569    566    572    573     1  0.0000000  1.2552000  3
    569    566    572    576     1  180.0000771  2.0083200  2
    569    566    572    576     1  0.0000000  1.2552000  3
    572    566    569    589     1  0.0000000  0.6508444  3
    572    573    582    586     1  0.0000000  0.6508444  3
    572    576    579    585     1  0.0000000  0.6508444  3
    573    572    576    579     1  180.0000771  2.0083200  2
    573    572    576    579     1  0.0000000  1.2552000  3
    573    582    586    588     1  180.0000771  0.0000000  2
    573    582    586   1239     1  0.0000000  0.2928800  2
    573    582    586   1239     1  0.0000000  0.4184000  4
    576    572    573    582     1  180.0000771  2.0083200  2
    576    572    573    582     1  0.0000000  1.2552000  3
    576    579    585    587     1  180.0000771  0.0000000  2
    576    579    585   1214     1  0.0000000  0.2928800  2
    576    579    585   1214     1  0.0000000  0.4184000  4
    579    585   1214   1194     1  180.0000771  6.2760000  1
    579    585   1214   1194     1  0.0000000  0.0000000  2
    582    586   1239   1219     1  180.0000771  6.2760000  1
    582    586   1239   1219     1  0.0000000  0.0000000  2
    585   1214   1194   1191     1  0.0000000  2.2175200  1
    585   1214   1194   1191     1  0.0000000  0.0000000  2
    585   1214   1194   1191     1  180.0000771  0.6276000  3
    585   1214   1194   1191     1  180.0000771  2.0920000  4
    586   1239   1219   1216     1  0.0000000  2.2175200  1
    586   1239   1219   1216     1  0.0000000  0.0000000  2
    586   1239   1219   1216     1  180.0000771  0.6276000  3
    586   1239   1219   1216     1  180.0000771  2.0920000  4
    587    585   1214   1194     1  180.0000771  10.4600000  2
    588    586   1239   1219     1  180.0000771  10.4600000  2
    591    597    598    607     1  180.0000771  2.0083200  2
    591    597    598    607     1  0.0000000  1.2552000  3
    591    597    601    604     1  180.0000771  2.0083200  2
    591    597    601    604     1  0.0000000  1.2552000  3
    594    591    597    598     1  180.0000771  2.0083200  2
    594    591    597    598     1  0.0000000  1.2552000  3
    594    591    597    601     1  180.0000771  2.0083200  2
    594    591    597    601     1  0.0000000  1.2552000  3
    597    591    594    614     1  0.0000000  0.6508444  3
    597    598    607    611     1  0.0000000  0.6508444  3
    597    601    604    610     1  0.0000000  0.6508444  3
    598    597    601    604     1  180.0000771  2.0083200  2
    598    597    601    604     1  0.0000000  1.2552000  3
    598    607    611    613     1  180.0000771  0.0000000  2
    598    607    611   1289     1  0.0000000  0.2928800  2
    598    607    611   1289     1  0.0000000  0.4184000  4
    601    597    598    607     1  180.0000771  2.0083200  2
    601    597    598    607     1  0.0000000  1.2552000  3
    601    604    610    612     1  180.0000771  0.0000000  2
    601    604    610   1264     1  0.0000000  0.2928800  2
    601    604    610   1264     1  0.0000000  0.4184000  4
    604    610   1264   1244     1  180.0000771  6.2760000  1
    604    610   1264   1244     1  0.0000000  0.0000000  2
    607    611   1289   1269     1  180.0000771  6.2760000  1
    607    611   1289   1269     1  0.0000000  0.0000000  2
    610   1264   1244   1241     1  0.0000000  2.2175200  1
    610   1264   1244   1241     1  0.0000000  0.0000000  2
    610   1264   1244   1241     1  180.0000771  0.6276000  3
    610   1264   1244   1241     1  180.0000771  2.0920000  4
    611   1289   1269   1266     1  0.0000000  2.2175200  1
    611   1289   1269   1266     1  0.0000000  0.0000000  2
    611   1289   1269   1266     1  180.0000771  0.6276000  3
    611   1289   1269   1266     1  180.0000771  2.0920000  4
    612    610   1264   1244     1  180.0000771  10.4600000  2
    613    611   1289   1269     1  180.0000771  10.4600000  2
    616    622    623    632     1  180.0000771  2.0083200  2
    616    622    623    632     1  0.0000000  1.2552000  3
    616    622    626    629     1  180.0000771  2.0083200  2
    616    622    626    629     1  0.0000000  1.2552000  3
    619    616    622    623     1  180.0000771  2.0083200  2
    619    616    622    623     1  0.0000000  1.2552000  3
    619    616    622    626     1  180.0000771  2.0083200  2
    619    616    622    626     1  0.0000000  1.2552000  3
    622    616    619    639     1  0.0000000  0.6508444  3
    622    623    632    636     1  0.0000000  0.6508444  3
    622    626    629    635     1  0.0000000  0.6508444  3
    623    622    626    629     1  180.0000771  2.0083200  2
    623    622    626    629     1  0.0000000  1.2552000  3
    623    632    636    638     1  180.0000771  0.0000000  2
    623    632    636   1339     1  0.0000000  0.2928800  2
    623    632    636   1339     1  0.0000000  0.4184000  4
    626    622    623    632     1  180.0000771  2.0083200  2
    626    622    623    632     1  0.0000000  1.2552000  3
    626    629    635    637     1  180.0000771  0.0000000  2
    626    629    635   1314     1  0.0000000  0.2928800  2
    626    629    635   1314     1  0.0000000  0.4184000  4
    629    635   1314   1294     1  180.0000771  6.2760000  1
    629    635   1314   1294     1  0.0000000  0.0000000  2
    632    636   1339   1319     1  180.0000771  6.2760000  1
    632    636   1339   1319     1  0.0000000  0.0000000  2
    635   1314   1294   1291     1  0.0000000  2.2175200  1
    635   1314   1294   1291     1  0.0000000  0.0000000  2
    635   1314   1294   1291     1  180.0000771  0.6276000  3
    635   1314   1294   1291     1  180.0000771  2.0920000  4
    636   1339   1319   1316     1  0.0000000  2.2175200  1
    636   1339   1319   1316     1  0.0000000  0.0000000  2
    636   1339   1319   1316     1  180.0000771  0.6276000  3
    636   1339   1319   1316     1  180.0000771  2.0920000  4
    637    635   1314   1294     1  180.0000771  10.4600000  2
    638    636   1339   1319     1  180.0000771  10.4600000  2
    641    647    648    657     1  180.0000771  2.0083200  2
    641    647    648    657     1  0.0000000  1.2552000  3
    641    647    651    654     1  180.0000771  2.0083200  2
    641    647    651    654     1  0.0000000  1.2552000  3
    644    641    647    648     1  180.0000771  2.0083200  2
    644    641    647    648     1  0.0000000  1.2552000  3
    644    641    647    651     1  180.0000771  2.0083200  2
    644    641    647    651     1  0.0000000  1.2552000  3
    647    641    644    664     1  0.0000000  0.6508444  3
    647    648    657    661     1  0.0000000  0.6508444  3
    647    651    654    660     1  0.0000000  0.6508444  3
    648    647    651    654     1  180.0000771  2.0083200  2
    648    647    651    654     1  0.0000000  1.2552000  3
    648    657    661    663     1  180.0000771  0.0000000  2
    648    657    661   1389     1  0.0000000  0.2928800  2
    648    657    661   1389     1  0.0000000  0.4184000  4
    651    647    648    657     1  180.0000771  2.0083200  2
    651    647    648    657     1  0.0000000  1.2552000  3
    651    654    660    662     1  180.0000771  0.0000000  2
    651    654    660   1364     1  0.0000000  0.2928800  2
    651    654    660   1364     1  0.0000000  0.4184000  4
    654    660   1364   1344     1  180.0000771  6.2760000  1
    654    660   1364   1344     1  0.0000000  0.0000000  2
    657    661   1389   1369     1  180.0000771  6.2760000  1
    657    661   1389   1369     1  0.0000000  0.0000000  2
    660   1364   1344   1341     1  0.0000000  2.2175200  1
    660   1364   1344   1341     1  0.0000000  0.0000000  2
    660   1364   1344   1341     1  180.0000771  0.6276000  3
    660   1364   1344   1341     1  180.0000771  2.0920000  4
    661   1389   1369   1366     1  0.0000000  2.2175200  1
    661   1389   1369   1366     1  0.0000000  0.0000000  2
    661   1389   1369   1366     1  180.0000771  0.6276000  3
    661   1389   1369   1366     1  180.0000771  2.0920000  4
    662    660   1364   1344     1  180.0000771  10.4600000  2
    663    661   1389   1369     1  180.0000771  10.4600000  2
    666    672    673    682     1  180.0000771  2.0083200  2
    666    672    673    682     1  0.0000000  1.2552000  3
    666    672    676    679     1  180.0000771  2.0083200  2
    666    672    676    679     1  0.0000000  1.2552000  3
    669    666    672    673     1  180.0000771  2.0083200  2
    669    666    672    673     1  0.0000000  1.2552000  3
    669    666    672    676     1  180.0000771  2.0083200  2
    669    666    672    676     1  0.0000000  1.2552000  3
    672    666    669    689     1  0.0000000  0.6508444  3
    672    673    682    686     1  0.0000000  0.6508444  3
    672    676    679    685     1  0.0000000  0.6508444  3
    673    672    676    679     1  180.0000771  2.0083200  2
    673    672    676    679     1  0.0000000  1.2552000  3
    673    682    686    688     1  180.0000771  0.0000000  2
    673    682    686   1439     1  0.0000000  0.2928800  2
    673    682    686   1439     1  0.0000000  0.4184000  4
    676    672    673    682     1  180.0000771  2.0083200  2
    676    672    673    682     1  0.0000000  1.2552000  3
    676    679    685    687     1  180.0000771  0.0000000  2
    676    679    685   1414     1  0.0000000  0.2928800  2
    676    679    685   1414     1  0.0000000  0.4184000  4
    679    685   1414   1394     1  180.0000771  6.2760000  1
    679    685   1414   1394     1  0.0000000  0.0000000  2
    682    686   1439   1419     1  180.0000771  6.2760000  1
    682    686   1439   1419     1  0.0000000  0.0000000  2
    685   1414   1394   1391     1  0.0000000  2.2175200  1
    685   1414   1394   1391     1  0.0000000  0.0000000  2
    685   1414   1394   1391     1  180.0000771  0.6276000  3
    685   1414   1394   1391     1  180.0000771  2.0920000  4
    686   1439   1419   1416     1  0.0000000  2.2175200  1
    686   1439   1419   1416     1  0.0000000  0.0000000  2
    686   1439   1419   1416     1  180.0000771  0.6276000  3
    686   1439   1419   1416     1  180.0000771  2.0920000  4
    687    685   1414   1394     1  180.0000771  10.4600000  2
    688    686   1439   1419     1  180.0000771  10.4600000  2
    691    697    698    707     1  180.0000771  2.0083200  2
    691    697    698    707     1  0.0000000  1.2552000  3
    691    697    701    704     1  180.0000771  2.0083200  2
    691    697    701    704     1  0.0000000  1.2552000  3
    694    691    697    698     1  180.0000771  2.0083200  2
    694    691    697    698     1  0.0000000  1.2552000  3
    694    691    697    701     1  180.0000771  2.0083200  2
    694    691    697    701     1  0.0000000  1.2552000  3
    697    691    694    714     1  0.0000000  0.6508444  3
    697    698    707    711     1  0.0000000  0.6508444  3
    697    701    704    710     1  0.0000000  0.6508444  3
    698    697    701    704     1  180.0000771  2.0083200  2
    698    697    701    704     1  0.0000000  1.2552000  3
    698    707    711    713     1  180.0000771  0.0000000  2
    698    707    711   1489     1  0.0000000  0.2928800  2
    698    707    711   1489     1  0.0000000  0.4184000  4
    701    697    698    707     1  180.0000771  2.0083200  2
    701    697    698    707     1  0.0000000  1.2552000  3
    701    704    710    712     1  180.0000771  0.0000000  2
    701    704    710   1464     1  0.0000000  0.2928800  2
    701    704    710   1464     1  0.0000000  0.4184000  4
    704    710   1464   1444     1  180.0000771  6.2760000  1
    704    710   1464   1444     1  0.0000000  0.0000000  2
    707    711   1489   1469     1  180.0000771  6.2760000  1
    707    711   1489   1469     1  0.0000000  0.0000000  2
    710   1464   1444   1441     1  0.0000000  2.2175200  1
    710   1464   1444   1441     1  0.0000000  0.0000000  2
    710   1464   1444   1441     1  180.0000771  0.6276000  3
    710   1464   1444   1441     1  180.0000771  2.0920000  4
    711   1489   1469   1466     1  0.0000000  2.2175200  1
    711   1489   1469   1466     1  0.0000000  0.0000000  2
    711   1489   1469   1466     1  180.0000771  0.6276000  3
    711   1489   1469   1466     1  180.0000771  2.0920000  4
    712    710   1464   1444     1  180.0000771  10.4600000  2
    713    711   1489   1469     1  180.0000771  10.4600000  2
    716    722    723    732     1  180.0000771  2.0083200  2
    716    722    723    732     1  0.0000000  1.2552000  3
    716    722    726    729     1  180.0000771  2.0083200  2
    716    722    726    729     1  0.0000000  1.2552000  3
    719    716    722    723     1  180.0000771  2.0083200  2
    719    716    722    723     1  0.0000000  1.2552000  3
    719    716    722    726     1  180.0000771  2.0083200  2
    719    716    722    726     1  0.0000000  1.2552000  3
    722    716    719    739     1  0.0000000  0.6508444  3
    722    723    732    736     1  0.0000000  0.6508444  3
    722    726    729    735     1  0.0000000  0.6508444  3
    723    722    726    729     1  180.0000771  2.0083200  2
    723    722    726    729     1  0.0000000  1.2552000  3
    723    732    736    738     1  180.0000771  0.0000000  2
    723    732    736   1539     1  0.0000000  0.2928800  2
    723    732    736   1539     1  0.0000000  0.4184000  4
    726    722    723    732     1  180.0000771  2.0083200  2
    726    722    723    732     1  0.0000000  1.2552000  3
    726    729    735    737     1  180.0000771  0.0000000  2
    726    729    735   1514     1  0.0000000  0.2928800  2
    726    729    735   1514     1  0.0000000  0.4184000  4
    729    735   1514   1494     1  180.0000771  6.2760000  1
    729    735   1514   1494     1  0.0000000  0.0000000  2
    732    736   1539   1519     1  180.0000771  6.2760000  1
    732    736   1539   1519     1  0.0000000  0.0000000  2
    735   1514   1494   1491     1  0.0000000  2.2175200  1
    735   1514   1494   1491     1  0.0000000  0.0000000  2
    735   1514   1494   1491     1  180.0000771  0.6276000  3
    735   1514   1494   1491     1  180.0000771  2.0920000  4
    736   1539   1519   1516     1  0.0000000  2.2175200  1
    736   1539   1519   1516     1  0.0000000  0.0000000  2
    736   1539   1519   1516     1  180.0000771  0.6276000  3
    736   1539   1519   1516     1  180.0000771  2.0920000  4
    737    735   1514   1494     1  180.0000771  10.4600000  2
    738    736   1539   1519     1  180.0000771  10.4600000  2
    741    747    748    757     1  180.0000771  2.0083200  2
    741    747    748    757     1  0.0000000  1.2552000  3
    741    747    751    754     1  180.0000771  2.0083200  2
    741    747    751    754     1  0.0000000  1.2552000  3
    744    741    747    748     1  180.0000771  2.0083200  2
    744    741    747    748     1  0.0000000  1.2552000  3
    744    741    747    751     1  180.0000771  2.0083200  2
    744    741    747    751     1  0.0000000  1.2552000  3
    747    741    744    764     1  0.0000000  0.6508444  3
    747    748    757    761     1  0.0000000  0.6508444  3
    747    751    754    760     1  0.0000000  0.6508444  3
    748    747    751    754     1  180.0000771  2.0083200  2
    748    747    751    754     1  0.0000000  1.2552000  3
    748    757    761    763     1  180.0000771  0.0000000  2
    748    757    761   1589     1  0.0000000  0.2928800  2
    748    757    761   1589     1  0.0000000  0.4184000  4
    751    747    748    757     1  180.0000771  2.0083200  2
    751    747    748    757     1  0.0000000  1.2552000  3
    751    754    760    762     1  180.0000771  0.0000000  2
    751    754    760   1564     1  0.0000000  0.2928800  2
    751    754    760   1564     1  0.0000000  0.4184000  4
    754    760   1564   1544     1  180.0000771  6.2760000  1
    754    760   1564   1544     1  0.0000000  0.0000000  2
    757    761   1589   1569     1  180.0000771  6.2760000  1
    757    761   1589   1569     1  0.0000000  0.0000000  2
    760   1564   1544   1541     1  0.0000000  2.2175200  1
    760   1564   1544   1541     1  0.0000000  0.0000000  2
    760   1564   1544   1541     1  180.0000771  0.6276000  3
    760   1564   1544   1541     1  180.0000771  2.0920000  4
    761   1589   1569   1566     1  0.0000000  2.2175200  1
    761   1589   1569   1566     1  0.0000000  0.0000000  2
    761   1589   1569   1566     1  180.0000771  0.6276000  3
    761   1589   1569   1566     1  180.0000771  2.0920000  4
    762    760   1564   1544     1  180.0000771  10.4600000  2
    763    761   1589   1569     1  180.0000771  10.4600000  2
    766    772    773    782     1  180.0000771  2.0083200  2
    766    772    773    782     1  0.0000000  1.2552000  3
    766    772    776    779     1  180.0000771  2.0083200  2
    766    772    776    779     1  0.0000000  1.2552000  3
    769    766    772    773     1  180.0000771  2.0083200  2
    769    766    772    773     1  0.0000000  1.2552000  3
    769    766    772    776     1  180.0000771  2.0083200  2
    769    766    772    776     1  0.0000000  1.2552000  3
    772    766    769    789     1  0.0000000  0.6508444  3
    772    773    782    786     1  0.0000000  0.6508444  3
    772    776    779    785     1  0.0000000  0.6508444  3
    773    772    776    779     1  180.0000771  2.0083200  2
    773    772    776    779     1  0.0000000  1.2552000  3
    773    782    786    788     1  180.0000771  0.0000000  2
    773    782    786   1639     1  0.0000000  0.2928800  2
    773    782    786   1639     1  0.0000000  0.4184000  4
    776    772    773    782     1  180.0000771  2.0083200  2
    776    772    773    782     1  0.0000000  1.2552000  3
    776    779    785    787     1  180.0000771  0.0000000  2
    776    779    785   1614     1  0.0000000  0.2928800  2
    776    779    785   1614     1  0.0000000  0.4184000  4
    779    785   1614   1594     1  180.0000771  6.2760000  1
    779    785   1614   1594     1  0.0000000  0.0000000  2
    782    786   1639   1619     1  180.0000771  6.2760000  1
    782    786   1639   1619     1  0.0000000  0.0000000  2
    785   1614   1594   1591     1  0.0000000  2.2175200  1
    785   1614   1594   1591     1  0.0000000  0.0000000  2
    785   1614   1594   1591     1  180.0000771  0.6276000  3
    785   1614   1594   1591     1  180.0000771  2.0920000  4
    786   1639   1619   1616     1  0.0000000  2.2175200  1
    786   1639   1619   1616     1  0.0000000  0.0000000  2
    786   1639   1619   1616     1  180.0000771  0.6276000  3
    786   1639   1619   1616     1  180.0000771  2.0920000  4
    787    785   1614   1594     1  180.0000771  10.4600000  2
    788    786   1639   1619     1  180.0000771  10.4600000  2
    791    797    798    807     1  180.0000771  2.0083200  2
    791    797    798    807     1  0.0000000  1.2552000  3
    791    797    801    804     1  180.0000771  2.0083200  2
    791    797    801    804     1  0.0000000  1.2552000  3
    794    791    797    798     1  180.0000771  2.0083200  2
    794    791    797    798     1  0.0000000  1.2552000  3
    794    791    797    801     1  180.0000771  2.0083200  2
    794    791    797    801     1  0.0000000  1.2552000  3
    797    791    794    814     1  0.0000000  0.6508444  3
    797    798    807    811     1  0.0000000  0.6508444  3
    797    801    804    810     1  0.0000000  0.6508444  3
    798    797    801    804     1  180.0000771  2.0083200  2
    798    797    801    804     1  0.0000000  1.2552000  3
    798    807    811    813     1  180.0000771  0.0000000  2
    798    807    811   1689     1  0.0000000  0.2928800  2
    798    807    811   1689     1  0.0000000  0.4184000  4
    801    797    798    807     1  180.0000771  2.0083200  2
    801    797    798    807     1  0.0000000  1.2552000  3
    801    804    810    812     1  180.0000771  0.0000000  2
    801    804    810   1664     1  0.0000000  0.2928800  2
    801    804    810   1664     1  0.0000000  0.4184000  4
    804    810   1664   1644     1  180.0000771  6.2760000  1
    804    810   1664   1644     1  0.0000000  0.0000000  2
    807    811   1689   1669     1  180.0000771  6.2760000  1
    807    811   1689   1669     1  0.0000000  0.0000000  2
    810   1664   1644   1641     1  0.0000000  2.2175200  1
    810   1664   1644   1641     1  0.0000000  0.0000000  2
    810   1664   1644   1641     1  180.0000771  0.6276000  3
    810   1664   1644   1641     1  180.0000771  2.0920000  4
    811   1689   1669   1666     1  0.0000000  2.2175200  1
    811   1689   1669   1666     1  0.0000000  0.0000000  2
    811   1689   1669   1666     1  180.0000771  0.6276000  3
    811   1689   1669   1666     1  180.0000771  2.0920000  4
    812    810   1664   1644     1  180.0000771  10.4600000  2
    813    811   1689   1669     1  180.0000771  10.4600000  2
    816    822    823    832     1  180.0000771  2.0083200  2
    816    822    823    832     1  0.0000000  1.2552000  3
    816    822    826    829     1  180.0000771  2.0083200  2
    816    822    826    829     1  0.0000000  1.2552000  3
    819    816    822    823     1  180.0000771  2.0083200  2
    819    816    822    823     1  0.0000000  1.2552000  3
    819    816    822    826     1  180.0000771  2.0083200  2
    819    816    822    826     1  0.0000000  1.2552000  3
    822    816    819    839     1  0.0000000  0.6508444  3
    822    823    832    836     1  0.0000000  0.6508444  3
    822    826    829    835     1  0.0000000  0.6508444  3
    823    822    826    829     1  180.0000771  2.0083200  2
    823    822    826    829     1  0.0000000  1.2552000  3
    823    832    836    838     1  180.0000771  0.0000000  2
    823    832    836   1739     1  0.0000000  0.2928800  2
    823    832    836   1739     1  0.0000000  0.4184000  4
    826    822    823    832     1  180.0000771  2.0083200  2
    826    822    823    832     1  0.0000000  1.2552000  3
    826    829    835    837     1  180.0000771  0.0000000  2
    826    829    835   1714     1  0.0000000  0.2928800  2
    826    829    835   1714     1  0.0000000  0.4184000  4
    829    835   1714   1694     1  180.0000771  6.2760000  1
    829    835   1714   1694     1  0.0000000  0.0000000  2
    832    836   1739   1719     1  180.0000771  6.2760000  1
    832    836   1739   1719     1  0.0000000  0.0000000  2
    835   1714   1694   1691     1  0.0000000  2.2175200  1
    835   1714   1694   1691     1  0.0000000  0.0000000  2
    835   1714   1694   1691     1  180.0000771  0.6276000  3
    835   1714   1694   1691     1  180.0000771  2.0920000  4
    836   1739   1719   1716     1  0.0000000  2.2175200  1
    836   1739   1719   1716     1  0.0000000  0.0000000  2
    836   1739   1719   1716     1  180.0000771  0.6276000  3
    836   1739   1719   1716     1  180.0000771  2.0920000  4
    837    835   1714   1694     1  180.0000771  10.4600000  2
    838    836   1739   1719     1  180.0000771  10.4600000  2
    841    847    848    857     1  180.0000771  2.0083200  2
    841    847    848    857     1  0.0000000  1.2552000  3
    841    847    851    854     1  180.0000771  2.0083200  2
    841    847    851    854     1  0.0000000  1.2552000  3
    844    841    847    848     1  180.0000771  2.0083200  2
    844    841    847    848     1  0.0000000  1.2552000  3
    844    841    847    851     1  180.0000771  2.0083200  2
    844    841    847    851     1  0.0000000  1.2552000  3
    847    841    844    864     1  0.0000000  0.6508444  3
    847    848    857    861     1  0.0000000  0.6508444  3
    847    851    854    860     1  0.0000000  0.6508444  3
    848    847    851    854     1  180.0000771  2.0083200  2
    848    847    851    854     1  0.0000000  1.2552000  3
    848    857    861    863     1  180.0000771  0.0000000  2
    848    857    861   1789     1  0.0000000  0.2928800  2
    848    857    861   1789     1  0.0000000  0.4184000  4
    851    847    848    857     1  180.0000771  2.0083200  2
    851    847    848    857     1  0.0000000  1.2552000  3
    851    854    860    862     1  180.0000771  0.0000000  2
    851    854    860   1764     1  0.0000000  0.2928800  2
    851    854    860   1764     1  0.0000000  0.4184000  4
    854    860   1764   1744     1  180.0000771  6.2760000  1
    854    860   1764   1744     1  0.0000000  0.0000000  2
    857    861   1789   1769     1  180.0000771  6.2760000  1
    857    861   1789   1769     1  0.0000000  0.0000000  2
    860   1764   1744   1741     1  0.0000000  2.2175200  1
    860   1764   1744   1741     1  0.0000000  0.0000000  2
    860   1764   1744   1741     1  180.0000771  0.6276000  3
    860   1764   1744   1741     1  180.0000771  2.0920000  4
    861   1789   1769   1766     1  0.0000000  2.2175200  1
    861   1789   1769   1766     1  0.0000000  0.0000000  2
    861   1789   1769   1766     1  180.0000771  0.6276000  3
    861   1789   1769   1766     1  180.0000771  2.0920000  4
    862    860   1764   1744     1  180.0000771  10.4600000  2
    863    861   1789   1769     1  180.0000771  10.4600000  2
    866    872    873    882     1  180.0000771  2.0083200  2
    866    872    873    882     1  0.0000000  1.2552000  3
    866    872    876    879     1  180.0000771  2.0083200  2
    866    872    876    879     1  0.0000000  1.2552000  3
    869    866    872    873     1  180.0000771  2.0083200  2
    869    866    872    873     1  0.0000000  1.2552000  3
    869    866    872    876     1  180.0000771  2.0083200  2
    869    866    872    876     1  0.0000000  1.2552000  3
    872    866    869    889     1  0.0000000  0.6508444  3
    872    873    882    886     1  0.0000000  0.6508444  3
    872    876    879    885     1  0.0000000  0.6508444  3
    873    872    876    879     1  180.0000771  2.0083200  2
    873    872    876    879     1  0.0000000  1.2552000  3
    873    882    886    888     1  180.0000771  0.0000000  2
    873    882    886   1839     1  0.0000000  0.2928800  2
    873    882    886   1839     1  0.0000000  0.4184000  4
    876    872    873    882     1  180.0000771  2.0083200  2
    876    872    873    882     1  0.0000000  1.2552000  3
    876    879    885    887     1  180.0000771  0.0000000  2
    876    879    885   1814     1  0.0000000  0.2928800  2
    876    879    885   1814     1  0.0000000  0.4184000  4
    879    885   1814   1794     1  180.0000771  6.2760000  1
    879    885   1814   1794     1  0.0000000  0.0000000  2
    882    886   1839   1819     1  180.0000771  6.2760000  1
    882    886   1839   1819     1  0.0000000  0.0000000  2
    885   1814   1794   1791     1  0.0000000  2.2175200  1
    885   1814   1794   1791     1  0.0000000  0.0000000  2
    885   1814   1794   1791     1  180.0000771  0.6276000  3
    885   1814   1794   1791     1  180.0000771  2.0920000  4
    886   1839   1819   1816     1  0.0000000  2.2175200  1
    886   1839   1819   1816     1  0.0000000  0.0000000  2
    886   1839   1819   1816     1  180.0000771  0.6276000  3
    886   1839   1819   1816     1  180.0000771  2.0920000  4
    887    885   1814   1794     1  180.0000771  10.4600000  2
    888    886   1839   1819     1  180.0000771  10.4600000  2
    891    897    898    907     1  180.0000771  2.0083200  2
    891    897    898    907     1  0.0000000  1.2552000  3
    891    897    901    904     1  180.0000771  2.0083200  2
    891    897    901    904     1  0.0000000  1.2552000  3
    894    891    897    898     1  180.0000771  2.0083200  2
    894    891    897    898     1  0.0000000  1.2552000  3
    894    891    897    901     1  180.0000771  2.0083200  2
    894    891    897    901     1  0.0000000  1.2552000  3
    897    891    894    914     1  0.0000000  0.6508444  3
    897    898    907    911     1  0.0000000  0.6508444  3
    897    901    904    910     1  0.0000000  0.6508444  3
    898    897    901    904     1  180.0000771  2.0083200  2
    898    897    901    904     1  0.0000000  1.2552000  3
    898    907    911    913     1  180.0000771  0.0000000  2
    898    907    911   1889     1  0.0000000  0.2928800  2
    898    907    911   1889     1  0.0000000  0.4184000  4
    901    897    898    907     1  180.0000771  2.0083200  2
    901    897    898    907     1  0.0000000  1.2552000  3
    901    904    910    912     1  180.0000771  0.0000000  2
    901    904    910   1864     1  0.0000000  0.2928800  2
    901    904    910   1864     1  0.0000000  0.4184000  4
    904    910   1864   1844     1  180.0000771  6.2760000  1
    904    910   1864   1844     1  0.0000000  0.0000000  2
    907    911   1889   1869     1  180.0000771  6.2760000  1
    907    911   1889   1869     1  0.0000000  0.0000000  2
    910   1864   1844   1841     1  0.0000000  2.2175200  1
    910   1864   1844   1841     1  0.0000000  0.0000000  2
    910   1864   1844   1841     1  180.0000771  0.6276000  3
    910   1864   1844   1841     1  180.0000771  2.0920000  4
    911   1889   1869   1866     1  0.0000000  2.2175200  1
    911   1889   1869   1866     1  0.0000000  0.0000000  2
    911   1889   1869   1866     1  180.0000771  0.6276000  3
    911   1889   1869   1866     1  180.0000771  2.0920000  4
    912    910   1864   1844     1  180.0000771  10.4600000  2
    913    911   1889   1869     1  180.0000771  10.4600000  2
    916    922    923    932     1  180.0000771  2.0083200  2
    916    922    923    932     1  0.0000000  1.2552000  3
    916    922    926    929     1  180.0000771  2.0083200  2
    916    922    926    929     1  0.0000000  1.2552000  3
    919    916    922    923     1  180.0000771  2.0083200  2
    919    916    922    923     1  0.0000000  1.2552000  3
    919    916    922    926     1  180.0000771  2.0083200  2
    919    916    922    926     1  0.0000000  1.2552000  3
    922    916    919    939     1  0.0000000  0.6508444  3
    922    923    932    936     1  0.0000000  0.6508444  3
    922    926    929    935     1  0.0000000  0.6508444  3
    923    922    926    929     1  180.0000771  2.0083200  2
    923    922    926    929     1  0.0000000  1.2552000  3
    923    932    936    938     1  180.0000771  0.0000000  2
    923    932    936   1939     1  0.0000000  0.2928800  2
    923    932    936   1939     1  0.0000000  0.4184000  4
    926    922    923    932     1  180.0000771  2.0083200  2
    926    922    923    932     1  0.0000000  1.2552000  3
    926    929    935    937     1  180.0000771  0.0000000  2
    926    929    935   1914     1  0.0000000  0.2928800  2
    926    929    935   1914     1  0.0000000  0.4184000  4
    929    935   1914   1894     1  180.0000771  6.2760000  1
    929    935   1914   1894     1  0.0000000  0.0000000  2
    932    936   1939   1919     1  180.0000771  6.2760000  1
    932    936   1939   1919     1  0.0000000  0.0000000  2
    935   1914   1894   1891     1  0.0000000  2.2175200  1
    935   1914   1894   1891     1  0.0000000  0.0000000  2
    935   1914   1894   1891     1  180.0000771  0.6276000  3
    935   1914   1894   1891     1  180.0000771  2.0920000  4
    936   1939   1919   1916     1  0.0000000  2.2175200  1
    936   1939   1919   1916     1  0.0000000  0.0000000  2
    936   1939   1919   1916     1  180.0000771  0.6276000  3
    936   1939   1919   1916     1  180.0000771  2.0920000  4
    937    935   1914   1894     1  180.0000771  10.4600000  2
    938    936   1939   1919     1  180.0000771  10.4600000  2
    941    947    948    957     1  180.0000771  2.0083200  2
    941    947    948    957     1  0.0000000  1.2552000  3
    941    947    951    954     1  180.0000771  2.0083200  2
    941    947    951    954     1  0.0000000  1.2552000  3
    944    941    947    948     1  180.0000771  2.0083200  2
    944    941    947    948     1  0.0000000  1.2552000  3
    944    941    947    951     1  180.0000771  2.0083200  2
    944    941    947    951     1  0.0000000  1.2552000  3
    947    941    944    964     1  0.0000000  0.6508444  3
    947    948    957    961     1  0.0000000  0.6508444  3
    947    951    954    960     1  0.0000000  0.6508444  3
    948    947    951    954     1  180.0000771  2.0083200  2
    948    947    951    954     1  0.0000000  1.2552000  3
    948    957    961    963     1  180.0000771  0.0000000  2
    948    957    961   1989     1  0.0000000  0.2928800  2
    948    957    961   1989     1  0.0000000  0.4184000  4
    951    947    948    957     1  180.0000771  2.0083200  2
    951    947    948    957     1  0.0000000  1.2552000  3
    951    954    960    962     1  180.0000771  0.0000000  2
    951    954    960   1964     1  0.0000000  0.2928800  2
    951    954    960   1964     1  0.0000000  0.4184000  4
    954    960   1964   1944     1  180.0000771  6.2760000  1
    954    960   1964   1944     1  0.0000000  0.0000000  2
    957    961   1989   1969     1  180.0000771  6.2760000  1
    957    961   1989   1969     1  0.0000000  0.0000000  2
    960   1964   1944   1941     1  0.0000000  2.2175200  1
    960   1964   1944   1941     1  0.0000000  0.0000000  2
    960   1964   1944   1941     1  180.0000771  0.6276000  3
    960   1964   1944   1941     1  180.0000771  2.0920000  4
    961   1989   1969   1966     1  0.0000000  2.2175200  1
    961   1989   1969   1966     1  0.0000000  0.0000000  2
    961   1989   1969   1966     1  180.0000771  0.6276000  3
    961   1989   1969   1966     1  180.0000771  2.0920000  4
    962    960   1964   1944     1  180.0000771  10.4600000  2
    963    961   1989   1969     1  180.0000771  10.4600000  2
    966    972    973    982     1  180.0000771  2.0083200  2
    966    972    973    982     1  0.0000000  1.2552000  3
    966    972    976    979     1  180.0000771  2.0083200  2
    966    972    976    979     1  0.0000000  1.2552000  3
    969    966    972    973     1  180.0000771  2.0083200  2
    969    966    972    973     1  0.0000000  1.2552000  3
    969    966    972    976     1  180.0000771  2.0083200  2
    969    966    972    976     1  0.0000000  1.2552000  3
    972    966    969    989     1  0.0000000  0.6508444  3
    972    973    982    986     1  0.0000000  0.6508444  3
    972    976    979    985     1  0.0000000  0.6508444  3
    973    972    976    979     1  180.0000771  2.0083200  2
    973    972    976    979     1  0.0000000  1.2552000  3
    973    982    986    988     1  180.0000771  0.0000000  2
    973    982    986   2039     1  0.0000000  0.2928800  2
    973    982    986   2039     1  0.0000000  0.4184000  4
    976    972    973    982     1  180.0000771  2.0083200  2
    976    972    973    982     1  0.0000000  1.2552000  3
    976    979    985    987     1  180.0000771  0.0000000  2
    976    979    985   2014     1  0.0000000  0.2928800  2
    976    979    985   2014     1  0.0000000  0.4184000  4
    979    985   2014   1994     1  180.0000771  6.2760000  1
    979    985   2014   1994     1  0.0000000  0.0000000  2
    982    986   2039   2019     1  180.0000771  6.2760000  1
    982    986   2039   2019     1  0.0000000  0.0000000  2
    985   2014   1994   1991     1  0.0000000  2.2175200  1
    985   2014   1994   1991     1  0.0000000  0.0000000  2
    985   2014   1994   1991     1  180.0000771  0.6276000  3
    985   2014   1994   1991     1  180.0000771  2.0920000  4
    986   2039   2019   2016     1  0.0000000  2.2175200  1
    986   2039   2019   2016     1  0.0000000  0.0000000  2
    986   2039   2019   2016     1  180.0000771  0.6276000  3
    986   2039   2019   2016     1  180.0000771  2.0920000  4
    987    985   2014   1994     1  180.0000771  10.4600000  2
    988    986   2039   2019     1  180.0000771  10.4600000  2
    991    997    998   1007     1  180.0000771  2.0083200  2
    991    997    998   1007     1  0.0000000  1.2552000  3
    991    997   1001   1004     1  180.0000771  2.0083200  2
    991    997   1001   1004     1  0.0000000  1.2552000  3
    994    991    997    998     1  180.0000771  2.0083200  2
    994    991    997    998     1  0.0000000  1.2552000  3
    994    991    997   1001     1  180.0000771  2.0083200  2
    994    991    997   1001     1  0.0000000  1.2552000  3
    997    991    994   1014     1  0.0000000  0.6508444  3
    997    998   1007   1011     1  0.0000000  0.6508444  3
    997   1001   1004   1010     1  0.0000000  0.6508444  3
    998    997   1001   1004     1  180.0000771  2.0083200  2
    998    997   1001   1004     1  0.0000000  1.2552000  3
    998   1007   1011   1013     1  180.0000771  0.0000000  2
    998   1007   1011   2089     1  0.0000000  0.2928800  2
    998   1007   1011   2089     1  0.0000000  0.4184000  4
   1001    997    998   1007     1  180.0000771  2.0083200  2
   1001    997    998   1007     1  0.0000000  1.2552000  3
   1001   1004   1010   1012     1  180.0000771  0.0000000  2
   1001   1004   1010   2064     1  0.0000000  0.2928800  2
   1001   1004   1010   2064     1  0.0000000  0.4184000  4
   1004   1010   2064   2044     1  180.0000771  6.2760000  1
   1004   1010   2064   2044     1  0.0000000  0.0000000  2
   1007   1011   2089   2069     1  180.0000771  6.2760000  1
   1007   1011   2089   2069     1  0.0000000  0.0000000  2
   1010   2064   2044   2041     1  0.0000000  2.2175200  1
   1010   2064   2044   2041     1  0.0000000  0.0000000  2
   1010   2064   2044   2041     1  180.0000771  0.6276000  3
   1010   2064   2044   2041     1  180.0000771  2.0920000  4
   1011   2089   2069   2066     1  0.0000000  2.2175200  1
   1011   2089   2069   2066     1  0.0000000  0.0000000  2
   1011   2089   2069   2066     1  180.0000771  0.6276000  3
   1011   2089   2069   2066     1  180.0000771  2.0920000  4
   1012   1010   2064   2044     1  180.0000771  10.4600000  2
   1013   1011   2089   2069     1  180.0000771  10.4600000  2
   1016   1022   1023   1032     1  180.0000771  2.0083200  2
   1016   1022   1023   1032     1  0.0000000  1.2552000  3
   1016   1022   1026   1029     1  180.0000771  2.0083200  2
   1016   1022   1026   1029     1  0.0000000  1.2552000  3
   1019   1016   1022   1023     1  180.0000771  2.0083200  2
   1019   1016   1022   1023     1  0.0000000  1.2552000  3
   1019   1016   1022   1026     1  180.0000771  2.0083200  2
   1019   1016   1022   1026     1  0.0000000  1.2552000  3
   1022   1016   1019   1039     1  0.0000000  0.6508444  3
   1022   1023   1032   1036     1  0.0000000  0.6508444  3
   1022   1026   1029   1035     1  0.0000000  0.6508444  3
   1023   1022   1026   1029     1  180.0000771  2.0083200  2
   1023   1022   1026   1029     1  0.0000000  1.2552000  3
   1023   1032   1036   1038     1  180.0000771  0.0000000  2
   1023   1032   1036   2139     1  0.0000000  0.2928800  2
   1023   1032   1036   2139     1  0.0000000  0.4184000  4
   1026   1022   1023   1032     1  180.0000771  2.0083200  2
   1026   1022   1023   1032     1  0.0000000  1.2552000  3
   1026   1029   1035   1037     1  180.0000771  0.0000000  2
   1026   1029   1035   2114     1  0.0000000  0.2928800  2
   1026   1029   1035   2114     1  0.0000000  0.4184000  4
   1029   1035   2114   2094     1  180.0000771  6.2760000  1
   1029   1035   2114   2094     1  0.0000000  0.0000000  2
   1032   1036   2139   2119     1  180.0000771  6.2760000  1
   1032   1036   2139   2119     1  0.0000000  0.0000000  2
   1035   2114   2094   2091     1  0.0000000  2.2175200  1
   1035   2114   2094   2091     1  0.0000000  0.0000000  2
   1035   2114   2094   2091     1  180.0000771  0.6276000  3
   1035   2114   2094   2091     1  180.0000771  2.0920000  4
   1036   2139   2119   2116     1  0.0000000  2.2175200  1
   1036   2139   2119   2116     1  0.0000000  0.0000000  2
   1036   2139   2119   2116     1  180.0000771  0.6276000  3
   1036   2139   2119   2116     1  180.0000771  2.0920000  4
   1037   1035   2114   2094     1  180.0000771  10.4600000  2
   1038   1036   2139   2119     1  180.0000771  10.4600000  2
   1041   1047   1048   1057     1  180.0000771  2.0083200  2
   1041   1047   1048   1057     1  0.0000000  1.2552000  3
   1041   1047   1051   1054     1  180.0000771  2.0083200  2
   1041   1047   1051   1054     1  0.0000000  1.2552000  3
   1044   1041   1047   1048     1  180.0000771  2.0083200  2
   1044   1041   1047   1048     1  0.0000000  1.2552000  3
   1044   1041   1047   1051     1  180.0000771  2.0083200  2
   1044   1041   1047   1051     1  0.0000000  1.2552000  3
   1047   1041   1044   1064     1  0.0000000  0.6508444  3
   1047   1048   1057   1061     1  0.0000000  0.6508444  3
   1047   1051   1054   1060     1  0.0000000  0.6508444  3
   1048   1047   1051   1054     1  180.0000771  2.0083200  2
   1048   1047   1051   1054     1  0.0000000  1.2552000  3
   1048   1057   1061   1063     1  180.0000771  0.0000000  2
   1048   1057   1061   2189     1  0.0000000  0.2928800  2
   1048   1057   1061   2189     1  0.0000000  0.4184000  4
   1051   1047   1048   1057     1  180.0000771  2.0083200  2
   1051   1047   1048   1057     1  0.0000000  1.2552000  3
   1051   1054   1060   1062     1  180.0000771  0.0000000  2
   1051   1054   1060   2164     1  0.0000000  0.2928800  2
   1051   1054   1060   2164     1  0.0000000  0.4184000  4
   1054   1060   2164   2144     1  180.0000771  6.2760000  1
   1054   1060   2164   2144     1  0.0000000  0.0000000  2
   1057   1061   2189   2169     1  180.0000771  6.2760000  1
   1057   1061   2189   2169     1  0.0000000  0.0000000  2
   1060   2164   2144   2141     1  0.0000000  2.2175200  1
   1060   2164   2144   2141     1  0.0000000  0.0000000  2
   1060   2164   2144   2141     1  180.0000771  0.6276000  3
   1060   2164   2144   2141     1  180.0000771  2.0920000  4
   1061   2189   2169   2166     1  0.0000000  2.2175200  1
   1061   2189   2169   2166     1  0.0000000  0.0000000  2
   1061   2189   2169   2166     1  180.0000771  0.6276000  3
   1061   2189   2169   2166     1  180.0000771  2.0920000  4
   1062   1060   2164   2144     1  180.0000771  10.4600000  2
   1063   1061   2189   2169     1  180.0000771  10.4600000  2
   1066   1072   1073   1082     1  180.0000771  2.0083200  2
   1066   1072   1073   1082     1  0.0000000  1.2552000  3
   1066   1072   1076   1079     1  180.0000771  2.0083200  2
   1066   1072   1076   1079     1  0.0000000  1.2552000  3
   1069   1066   1072   1073     1  180.0000771  2.0083200  2
   1069   1066   1072   1073     1  0.0000000  1.2552000  3
   1069   1066   1072   1076     1  180.0000771  2.0083200  2
   1069   1066   1072   1076     1  0.0000000  1.2552000  3
   1072   1066   1069   1089     1  0.0000000  0.6508444  3
   1072   1073   1082   1086     1  0.0000000  0.6508444  3
   1072   1076   1079   1085     1  0.0000000  0.6508444  3
   1073   1072   1076   1079     1  180.0000771  2.0083200  2
   1073   1072   1076   1079     1  0.0000000  1.2552000  3
   1073   1082   1086   1088     1  180.0000771  0.0000000  2
   1073   1082   1086   2239     1  0.0000000  0.2928800  2
   1073   1082   1086   2239     1  0.0000000  0.4184000  4
   1076   1072   1073   1082     1  180.0000771  2.0083200  2
   1076   1072   1073   1082     1  0.0000000  1.2552000  3
   1076   1079   1085   1087     1  180.0000771  0.0000000  2
   1076   1079   1085   2214     1  0.0000000  0.2928800  2
   1076   1079   1085   2214     1  0.0000000  0.4184000  4
   1079   1085   2214   2194     1  180.0000771  6.2760000  1
   1079   1085   2214   2194     1  0.0000000  0.0000000  2
   1082   1086   2239   2219     1  180.0000771  6.2760000  1
   1082   1086   2239   2219     1  0.0000000  0.0000000  2
   1085   2214   2194   2191     1  0.0000000  2.2175200  1
   1085   2214   2194   2191     1  0.0000000  0.0000000  2
   1085   2214   2194   2191     1  180.0000771  0.6276000  3
   1085   2214   2194   2191     1  180.0000771  2.0920000  4
   1086   2239   2219   2216     1  0.0000000  2.2175200  1
   1086   2239   2219   2216     1  0.0000000  0.0000000  2
   1086   2239   2219   2216     1  180.0000771  0.6276000  3
   1086   2239   2219   2216     1  180.0000771  2.0920000  4
   1087   1085   2214   2194     1  180.0000771  10.4600000  2
   1088   1086   2239   2219     1  180.0000771  10.4600000  2
   1091   1097   1098   1107     1  180.0000771  2.0083200  2
   1091   1097   1098   1107     1  0.0000000  1.2552000  3
   1091   1097   1101   1104     1  180.0000771  2.0083200  2
   1091   1097   1101   1104     1  0.0000000  1.2552000  3
   1094   1091   1097   1098     1  180.0000771  2.0083200  2
   1094   1091   1097   1098     1  0.0000000  1.2552000  3
   1094   1091   1097   1101     1  180.0000771  2.0083200  2
   1094   1091   1097   1101     1  0.0000000  1.2552000  3
   1097   1091   1094   1114     1  0.0000000  0.6508444  3
   1097   1098   1107   1111     1  0.0000000  0.6508444  3
   1097   1101   1104   1110     1  0.0000000  0.6508444  3
   1098   1097   1101   1104     1  180.0000771  2.0083200  2
   1098   1097   1101   1104     1  0.0000000  1.2552000  3
   1098   1107   1111   1113     1  180.0000771  0.0000000  2
   1098   1107   1111   2289     1  0.0000000  0.2928800  2
   1098   1107   1111   2289     1  0.0000000  0.4184000  4
   1101   1097   1098   1107     1  180.0000771  2.0083200  2
   1101   1097   1098   1107     1  0.0000000  1.2552000  3
   1101   1104   1110   1112     1  180.0000771  0.0000000  2
   1101   1104   1110   2264     1  0.0000000  0.2928800  2
   1101   1104   1110   2264     1  0.0000000  0.4184000  4
   1104   1110   2264   2244     1  180.0000771  6.2760000  1
   1104   1110   2264   2244     1  0.0000000  0.0000000  2
   1107   1111   2289   2269     1  180.0000771  6.2760000  1
   1107   1111   2289   2269     1  0.0000000  0.0000000  2
   1110   2264   2244   2241     1  0.0000000  2.2175200  1
   1110   2264   2244   2241     1  0.0000000  0.0000000  2
   1110   2264   2244   2241     1  180.0000771  0.6276000  3
   1110   2264   2244   2241     1  180.0000771  2.0920000  4
   1111   2289   2269   2266     1  0.0000000  2.2175200  1
   1111   2289   2269   2266     1  0.0000000  0.0000000  2
   1111   2289   2269   2266     1  180.0000771  0.6276000  3
   1111   2289   2269   2266     1  180.0000771  2.0920000  4
   1112   1110   2264   2244     1  180.0000771  10.4600000  2
   1113   1111   2289   2269     1  180.0000771  10.4600000  2
   1116   1122   1123   1132     1  180.0000771  2.0083200  2
   1116   1122   1123   1132     1  0.0000000  1.2552000  3
   1116   1122   1126   1129     1  180.0000771  2.0083200  2
   1116   1122   1126   1129     1  0.0000000  1.2552000  3
   1119   1116   1122   1123     1  180.0000771  2.0083200  2
   1119   1116   1122   1123     1  0.0000000  1.2552000  3
   1119   1116   1122   1126     1  180.0000771  2.0083200  2
   1119   1116   1122   1126     1  0.0000000  1.2552000  3
   1122   1116   1119   1139     1  0.0000000  0.6508444  3
   1122   1123   1132   1136     1  0.0000000  0.6508444  3
   1122   1126   1129   1135     1  0.0000000  0.6508444  3
   1123   1122   1126   1129     1  180.0000771  2.0083200  2
   1123   1122   1126   1129     1  0.0000000  1.2552000  3
   1123   1132   1136   1138     1  180.0000771  0.0000000  2
   1123   1132   1136   2339     1  0.0000000  0.2928800  2
   1123   1132   1136   2339     1  0.0000000  0.4184000  4
   1126   1122   1123   1132     1  180.0000771  2.0083200  2
   1126   1122   1123   1132     1  0.0000000  1.2552000  3
   1126   1129   1135   1137     1  180.0000771  0.0000000  2
   1126   1129   1135   2314     1  0.0000000  0.2928800  2
   1126   1129   1135   2314     1  0.0000000  0.4184000  4
   1129   1135   2314   2294     1  180.0000771  6.2760000  1
   1129   1135   2314   2294     1  0.0000000  0.0000000  2
   1132   1136   2339   2319     1  180.0000771  6.2760000  1
   1132   1136   2339   2319     1  0.0000000  0.0000000  2
   1135   2314   2294   2291     1  0.0000000  2.2175200  1
   1135   2314   2294   2291     1  0.0000000  0.0000000  2
   1135   2314   2294   2291     1  180.0000771  0.6276000  3
   1135   2314   2294   2291     1  180.0000771  2.0920000  4
   1136   2339   2319   2316     1  0.0000000  2.2175200  1
   1136   2339   2319   2316     1  0.0000000  0.0000000  2
   1136   2339   2319   2316     1  180.0000771  0.6276000  3
   1136   2339   2319   2316     1  180.0000771  2.0920000  4
   1137   1135   2314   2294     1  180.0000771  10.4600000  2
   1138   1136   2339   2319     1  180.0000771  10.4600000  2
   1141   1147   1148   1157     1  180.0000771  2.0083200  2
   1141   1147   1148   1157     1  0.0000000  1.2552000  3
   1141   1147   1151   1154     1  180.0000771  2.0083200  2
   1141   1147   1151   1154     1  0.0000000  1.2552000  3
   1144   1141   1147   1148     1  180.0000771  2.0083200  2
   1144   1141   1147   1148     1  0.0000000  1.2552000  3
   1144   1141   1147   1151     1  180.0000771  2.0083200  2
   1144   1141   1147   1151     1  0.0000000  1.2552000  3
   1147   1141   1144   1164     1  0.0000000  0.6508444  3
   1147   1148   1157   1161     1  0.0000000  0.6508444  3
   1147   1151   1154   1160     1  0.0000000  0.6508444  3
   1148   1147   1151   1154     1  180.0000771  2.0083200  2
   1148   1147   1151   1154     1  0.0000000  1.2552000  3
   1148   1157   1161   1163     1  180.0000771  0.0000000  2
   1148   1157   1161   2389     1  0.0000000  0.2928800  2
   1148   1157   1161   2389     1  0.0000000  0.4184000  4
   1151   1147   1148   1157     1  180.0000771  2.0083200  2
   1151   1147   1148   1157     1  0.0000000  1.2552000  3
   1151   1154   1160   1162     1  180.0000771  0.0000000  2
   1151   1154   1160   2364     1  0.0000000  0.2928800  2
   1151   1154   1160   2364     1  0.0000000  0.4184000  4
   1154   1160   2364   2344     1  180.0000771  6.2760000  1
   1154   1160   2364   2344     1  0.0000000  0.0000000  2
   1157   1161   2389   2369     1  180.0000771  6.2760000  1
   1157   1161   2389   2369     1  0.0000000  0.0000000  2
   1160   2364   2344   2341     1  0.0000000  2.2175200  1
   1160   2364   2344   2341     1  0.0000000  0.0000000  2
   1160   2364   2344   2341     1  180.0000771  0.6276000  3
   1160   2364   2344   2341     1  180.0000771  2.0920000  4
   1161   2389   2369   2366     1  0.0000000  2.2175200  1
   1161   2389   2369   2366     1  0.0000000  0.0000000  2
   1161   2389   2369   2366     1  180.0000771  0.6276000  3
   1161   2389   2369   2366     1  180.0000771  2.0920000  4
   1162   1160   2364   2344     1  180.0000771  10.4600000  2
   1163   1161   2389   2369     1  180.0000771  10.4600000  2
   1166   1172   1173   1182     1  180.0000771  2.0083200  2
   1166   1172   1173   1182     1  0.0000000  1.2552000  3
   1166   1172   1176   1179     1  180.0000771  2.0083200  2
   1166   1172   1176   1179     1  0.0000000  1.2552000  3
   1169   1166   1172   1173     1  180.0000771  2.0083200  2
   1169   1166   1172   1173     1  0.0000000  1.2552000  3
   1169   1166   1172   1176     1  180.0000771  2.0083200  2
   1169   1166   1172   1176     1  0.0000000  1.2552000  3
   1172   1166   1169   1189     1  0.0000000  0.6508444  3
   1172   1173   1182   1186     1  0.0000000  0.6508444  3
   1172   1176   1179   1185     1  0.0000000  0.6508444  3
   1173   1172   1176   1179     1  180.0000771  2.0083200  2
   1173   1172   1176   1179     1  0.0000000  1.2552000  3
   1173   1182   1186   1188     1  180.0000771  0.0000000  2
   1173   1182   1186   2439     1  0.0000000  0.2928800  2
   1173   1182   1186   2439     1  0.0000000  0.4184000  4
   1176   1172   1173   1182     1  180.0000771  2.0083200  2
   1176   1172   1173   1182     1  0.0000000  1.2552000  3
   1176   1179   1185   1187     1  180.0000771  0.0000000  2
   1176   1179   1185   2414     1  0.0000000  0.2928800  2
   1176   1179   1185   2414     1  0.0000000  0.4184000  4
   1179   1185   2414   2394     1  180.0000771  6.2760000  1
   1179   1185   2414   2394     1  0.0000000  0.0000000  2
   1182   1186   2439   2419     1  180.0000771  6.2760000  1
   1182   1186   2439   2419     1  0.0000000  0.0000000  2
   1185   2414   2394   2391     1  0.0000000  2.2175200  1
   1185   2414   2394   2391     1  0.0000000  0.0000000  2
   1185   2414   2394   2391     1  180.0000771  0.6276000  3
   1185   2414   2394   2391     1  180.0000771  2.0920000  4
   1186   2439   2419   2416     1  0.0000000  2.2175200  1
   1186   2439   2419   2416     1  0.0000000  0.0000000  2
   1186   2439   2419   2416     1  180.0000771  0.6276000  3
   1186   2439   2419   2416     1  180.0000771  2.0920000  4
   1187   1185   2414   2394     1  180.0000771  10.4600000  2
   1188   1186   2439   2419     1  180.0000771  10.4600000  2
   1191   1197   1198   1207     1  180.0000771  2.0083200  2
   1191   1197   1198   1207     1  0.0000000  1.2552000  3
   1191   1197   1201   1204     1  180.0000771  2.0083200  2
   1191   1197   1201   1204     1  0.0000000  1.2552000  3
   1194   1191   1197   1198     1  180.0000771  2.0083200  2
   1194   1191   1197   1198     1  0.0000000  1.2552000  3
   1194   1191   1197   1201     1  180.0000771  2.0083200  2
   1194   1191   1197   1201     1  0.0000000  1.2552000  3
   1197   1191   1194   1214     1  0.0000000  0.6508444  3
   1197   1198   1207   1211     1  0.0000000  0.6508444  3
   1197   1201   1204   1210     1  0.0000000  0.6508444  3
   1198   1197   1201   1204     1  180.0000771  2.0083200  2
   1198   1197   1201   1204     1  0.0000000  1.2552000  3
   1198   1207   1211   1213     1  180.0000771  0.0000000  2
   1198   1207   1211   2489     1  0.0000000  0.2928800  2
   1198   1207   1211   2489     1  0.0000000  0.4184000  4
   1201   1197   1198   1207     1  180.0000771  2.0083200  2
   1201   1197   1198   1207     1  0.0000000  1.2552000  3
   1201   1204   1210   1212     1  180.0000771  0.0000000  2
   1201   1204   1210   2464     1  0.0000000  0.2928800  2
   1201   1204   1210   2464     1  0.0000000  0.4184000  4
   1204   1210   2464   2444     1  180.0000771  6.2760000  1
   1204   1210   2464   2444     1  0.0000000  0.0000000  2
   1207   1211   2489   2469     1  180.0000771  6.2760000  1
   1207   1211   2489   2469     1  0.0000000  0.0000000  2
   1210   2464   2444   2441     1  0.0000000  2.2175200  1
   1210   2464   2444   2441     1  0.0000000  0.0000000  2
   1210   2464   2444   2441     1  180.0000771  0.6276000  3
   1210   2464   2444   2441     1  180.0000771  2.0920000  4
   1211   2489   2469   2466     1  0.0000000  2.2175200  1
   1211   2489   2469   2466     1  0.0000000  0.0000000  2
   1211   2489   2469   2466     1  180.0000771  0.6276000  3
   1211   2489   2469   2466     1  180.0000771  2.0920000  4
   1212   1210   2464   2444     1  180.0000771  10.4600000  2
   1213   1211   2489   2469     1  180.0000771  10.4600000  2
   1216   1222   1223   1232     1  180.0000771  2.0083200  2
   1216   1222   1223   1232     1  0.0000000  1.2552000  3
   1216   1222   1226   1229     1  180.0000771  2.0083200  2
   1216   1222   1226   1229     1  0.0000000  1.2552000  3
   1219   1216   1222   1223     1  180.0000771  2.0083200  2
   1219   1216   1222   1223     1  0.0000000  1.2552000  3
   1219   1216   1222   1226     1  180.0000771  2.0083200  2
   1219   1216   1222   1226     1  0.0000000  1.2552000  3
   1222   1216   1219   1239     1  0.0000000  0.6508444  3
   1222   1223   1232   1236     1  0.0000000  0.6508444  3
   1222   1226   1229   1235     1  0.0000000  0.6508444  3
   1223   1222   1226   1229     1  180.0000771  2.0083200  2
   1223   1222   1226   1229     1  0.0000000  1.2552000  3
   1223   1232   1236   1238     1  180.0000771  0.0000000  2
   1223   1232   1236   2539     1  0.0000000  0.2928800  2
   1223   1232   1236   2539     1  0.0000000  0.4184000  4
   1226   1222   1223   1232     1  180.0000771  2.0083200  2
   1226   1222   1223   1232     1  0.0000000  1.2552000  3
   1226   1229   1235   1237     1  180.0000771  0.0000000  2
   1226   1229   1235   2514     1  0.0000000  0.2928800  2
   1226   1229   1235   2514     1  0.0000000  0.4184000  4
   1229   1235   2514   2494     1  180.0000771  6.2760000  1
   1229   1235   2514   2494     1  0.0000000  0.0000000  2
   1232   1236   2539   2519     1  180.0000771  6.2760000  1
   1232   1236   2539   2519     1  0.0000000  0.0000000  2
   1235   2514   2494   2491     1  0.0000000  2.2175200  1
   1235   2514   2494   2491     1  0.0000000  0.0000000  2
   1235   2514   2494   2491     1  180.0000771  0.6276000  3
   1235   2514   2494   2491     1  180.0000771  2.0920000  4
   1236   2539   2519   2516     1  0.0000000  2.2175200  1
   1236   2539   2519   2516     1  0.0000000  0.0000000  2
   1236   2539   2519   2516     1  180.0000771  0.6276000  3
   1236   2539   2519   2516     1  180.0000771  2.0920000  4
   1237   1235   2514   2494     1  180.0000771  10.4600000  2
   1238   1236   2539   2519     1  180.0000771  10.4600000  2
   1241   1247   1248   1257     1  180.0000771  2.0083200  2
   1241   1247   1248   1257     1  0.0000000  1.2552000  3
   1241   1247   1251   1254     1  180.0000771  2.0083200  2
   1241   1247   1251   1254     1  0.0000000  1.2552000  3
   1244   1241   1247   1248     1  180.0000771  2.0083200  2
   1244   1241   1247   1248     1  0.0000000  1.2552000  3
   1244   1241   1247   1251     1  180.0000771  2.0083200  2
   1244   1241   1247   1251     1  0.0000000  1.2552000  3
   1247   1241   1244   1264     1  0.0000000  0.6508444  3
   1247   1248   1257   1261     1  0.0000000  0.6508444  3
   1247   1251   1254   1260     1  0.0000000  0.6508444  3
   1248   1247   1251   1254     1  180.0000771  2.0083200  2
   1248   1247   1251   1254     1  0.0000000  1.2552000  3
   1248   1257   1261   1263     1  180.0000771  0.0000000  2
   1248   1257   1261   2589     1  0.0000000  0.2928800  2
   1248   1257   1261   2589     1  0.0000000  0.4184000  4
   1251   1247   1248   1257     1  180.0000771  2.0083200  2
   1251   1247   1248   1257     1  0.0000000  1.2552000  3
   1251   1254   1260   1262     1  180.0000771  0.0000000  2
   1251   1254   1260   2564     1  0.0000000  0.2928800  2
   1251   1254   1260   2564     1  0.0000000  0.4184000  4
   1254   1260   2564   2544     1  180.0000771  6.2760000  1
   1254   1260   2564   2544     1  0.0000000  0.0000000  2
   1257   1261   2589   2569     1  180.0000771  6.2760000  1
   1257   1261   2589   2569     1  0.0000000  0.0000000  2
   1260   2564   2544   2541     1  0.0000000  2.2175200  1
   1260   2564   2544   2541     1  0.0000000  0.0000000  2
   1260   2564   2544   2541     1  180.0000771  0.6276000  3
   1260   2564   2544   2541     1  180.0000771  2.0920000  4
   1261   2589   2569   2566     1  0.0000000  2.2175200  1
   1261   2589   2569   2566     1  0.0000000  0.0000000  2
   1261   2589   2569   2566     1  180.0000771  0.6276000  3
   1261   2589   2569   2566     1  180.0000771  2.0920000  4
   1262   1260   2564   2544     1  180.0000771  10.4600000  2
   1263   1261   2589   2569     1  180.0000771  10.4600000  2
   1266   1272   1273   1282     1  180.0000771  2.0083200  2
   1266   1272   1273   1282     1  0.0000000  1.2552000  3
   1266   1272   1276   1279     1  180.0000771  2.0083200  2
   1266   1272   1276   1279     1  0.0000000  1.2552000  3
   1269   1266   1272   1273     1  180.0000771  2.0083200  2
   1269   1266   1272   1273     1  0.0000000  1.2552000  3
   1269   1266   1272   1276     1  180.0000771  2.0083200  2
   1269   1266   1272   1276     1  0.0000000  1.2552000  3
   1272   1266   1269   1289     1  0.0000000  0.6508444  3
   1272   1273   1282   1286     1  0.0000000  0.6508444  3
   1272   1276   1279   1285     1  0.0000000  0.6508444  3
   1273   1272   1276   1279     1  180.0000771  2.0083200  2
   1273   1272   1276   1279     1  0.0000000  1.2552000  3
   1273   1282   1286   1288     1  180.0000771  0.0000000  2
   1273   1282   1286   2639     1  0.0000000  0.2928800  2
   1273   1282   1286   2639     1  0.0000000  0.4184000  4
   1276   1272   1273   1282     1  180.0000771  2.0083200  2
   1276   1272   1273   1282     1  0.0000000  1.2552000  3
   1276   1279   1285   1287     1  180.0000771  0.0000000  2
   1276   1279   1285   2614     1  0.0000000  0.2928800  2
   1276   1279   1285   2614     1  0.0000000  0.4184000  4
   1279   1285   2614   2594     1  180.0000771  6.2760000  1
   1279   1285   2614   2594     1  0.0000000  0.0000000  2
   1282   1286   2639   2619     1  180.0000771  6.2760000  1
   1282   1286   2639   2619     1  0.0000000  0.0000000  2
   1285   2614   2594   2591     1  0.0000000  2.2175200  1
   1285   2614   2594   2591     1  0.0000000  0.0000000  2
   1285   2614   2594   2591     1  180.0000771  0.6276000  3
   1285   2614   2594   2591     1  180.0000771  2.0920000  4
   1286   2639   2619   2616     1  0.0000000  2.2175200  1
   1286   2639   2619   2616     1  0.0000000  0.0000000  2
   1286   2639   2619   2616     1  180.0000771  0.6276000  3
   1286   2639   2619   2616     1  180.0000771  2.0920000  4
   1287   1285   2614   2594     1  180.0000771  10.4600000  2
   1288   1286   2639   2619     1  180.0000771  10.4600000  2
   1291   1297   1298   1307     1  180.0000771  2.0083200  2
   1291   1297   1298   1307     1  0.0000000  1.2552000  3
   1291   1297   1301   1304     1  180.0000771  2.0083200  2
   1291   1297   1301   1304     1  0.0000000  1.2552000  3
   1294   1291   1297   1298     1  180.0000771  2.0083200  2
   1294   1291   1297   1298     1  0.0000000  1.2552000  3
   1294   1291   1297   1301     1  180.0000771  2.0083200  2
   1294   1291   1297   1301     1  0.0000000  1.2552000  3
   1297   1291   1294   1314     1  0.0000000  0.6508444  3
   1297   1298   1307   1311     1  0.0000000  0.6508444  3
   1297   1301   1304   1310     1  0.0000000  0.6508444  3
   1298   1297   1301   1304     1  180.0000771  2.0083200  2
   1298   1297   1301   1304     1  0.0000000  1.2552000  3
   1298   1307   1311   1313     1  180.0000771  0.0000000  2
   1298   1307   1311   2689     1  0.0000000  0.2928800  2
   1298   1307   1311   2689     1  0.0000000  0.4184000  4
   1301   1297   1298   1307     1  180.0000771  2.0083200  2
   1301   1297   1298   1307     1  0.0000000  1.2552000  3
   1301   1304   1310   1312     1  180.0000771  0.0000000  2
   1301   1304   1310   2664     1  0.0000000  0.2928800  2
   1301   1304   1310   2664     1  0.0000000  0.4184000  4
   1304   1310   2664   2644     1  180.0000771  6.2760000  1
   1304   1310   2664   2644     1  0.0000000  0.0000000  2
   1307   1311   2689   2669     1  180.0000771  6.2760000  1
   1307   1311   2689   2669     1  0.0000000  0.0000000  2
   1310   2664   2644   2641     1  0.0000000  2.2175200  1
   1310   2664   2644   2641     1  0.0000000  0.0000000  2
   1310   2664   2644   2641     1  180.0000771  0.6276000  3
   1310   2664   2644   2641     1  180.0000771  2.0920000  4
   1311   2689   2669   2666     1  0.0000000  2.2175200  1
   1311   2689   2669   2666     1  0.0000000  0.0000000  2
   1311   2689   2669   2666     1  180.0000771  0.6276000  3
   1311   2689   2669   2666     1  180.0000771  2.0920000  4
   1312   1310   2664   2644     1  180.0000771  10.4600000  2
   1313   1311   2689   2669     1  180.0000771  10.4600000  2
   1316   1322   1323   1332     1  180.0000771  2.0083200  2
   1316   1322   1323   1332     1  0.0000000  1.2552000  3
   1316   1322   1326   1329     1  180.0000771  2.0083200  2
   1316   1322   1326   1329     1  0.0000000  1.2552000  3
   1319   1316   1322   1323     1  180.0000771  2.0083200  2
   1319   1316   1322   1323     1  0.0000000  1.2552000  3
   1319   1316   1322   1326     1  180.0000771  2.0083200  2
   1319   1316   1322   1326     1  0.0000000  1.2552000  3
   1322   1316   1319   1339     1  0.0000000  0.6508444  3
   1322   1323   1332   1336     1  0.0000000  0.6508444  3
   1322   1326   1329   1335     1  0.0000000  0.6508444  3
   1323   1322   1326   1329     1  180.0000771  2.0083200  2
   1323   1322   1326   1329     1  0.0000000  1.2552000  3
   1323   1332   1336   1338     1  180.0000771  0.0000000  2
   1323   1332   1336   2739     1  0.0000000  0.2928800  2
   1323   1332   1336   2739     1  0.0000000  0.4184000  4
   1326   1322   1323   1332     1  180.0000771  2.0083200  2
   1326   1322   1323   1332     1  0.0000000  1.2552000  3
   1326   1329   1335   1337     1  180.0000771  0.0000000  2
   1326   1329   1335   2714     1  0.0000000  0.2928800  2
   1326   1329   1335   2714     1  0.0000000  0.4184000  4
   1329   1335   2714   2694     1  180.0000771  6.2760000  1
   1329   1335   2714   2694     1  0.0000000  0.0000000  2
   1332   1336   2739   2719     1  180.0000771  6.2760000  1
   1332   1336   2739   2719     1  0.0000000  0.0000000  2
   1335   2714   2694   2691     1  0.0000000  2.2175200  1
   1335   2714   2694   2691     1  0.0000000  0.0000000  2
   1335   2714   2694   2691     1  180.0000771  0.6276000  3
   1335   2714   2694   2691     1  180.0000771  2.0920000  4
   1336   2739   2719   2716     1  0.0000000  2.2175200  1
   1336   2739   2719   2716     1  0.0000000  0.0000000  2
   1336   2739   2719   2716     1  180.0000771  0.6276000  3
   1336   2739   2719   2716     1  180.0000771  2.0920000  4
   1337   1335   2714   2694     1  180.0000771  10.4600000  2
   1338   1336   2739   2719     1  180.0000771  10.4600000  2
   1341   1347   1348   1357     1  180.0000771  2.0083200  2
   1341   1347   1348   1357     1  0.0000000  1.2552000  3
   1341   1347   1351   1354     1  180.0000771  2.0083200  2
   1341   1347   1351   1354     1  0.0000000  1.2552000  3
   1344   1341   1347   1348     1  180.0000771  2.0083200  2
   1344   1341   1347   1348     1  0.0000000  1.2552000  3
   1344   1341   1347   1351     1  180.0000771  2.0083200  2
   1344   1341   1347   1351     1  0.0000000  1.2552000  3
   1347   1341   1344   1364     1  0.0000000  0.6508444  3
   1347   1348   1357   1361     1  0.0000000  0.6508444  3
   1347   1351   1354   1360     1  0.0000000  0.6508444  3
   1348   1347   1351   1354     1  180.0000771  2.0083200  2
   1348   1347   1351   1354     1  0.0000000  1.2552000  3
   1348   1357   1361   1363     1  180.0000771  0.0000000  2
   1348   1357   1361   2789     1  0.0000000  0.2928800  2
   1348   1357   1361   2789     1  0.0000000  0.4184000  4
   1351   1347   1348   1357     1  180.0000771  2.0083200  2
   1351   1347   1348   1357     1  0.0000000  1.2552000  3
   1351   1354   1360   1362     1  180.0000771  0.0000000  2
   1351   1354   1360   2764     1  0.0000000  0.2928800  2
   1351   1354   1360   2764     1  0.0000000  0.4184000  4
   1354   1360   2764   2744     1  180.0000771  6.2760000  1
   1354   1360   2764   2744     1  0.0000000  0.0000000  2
   1357   1361   2789   2769     1  180.0000771  6.2760000  1
   1357   1361   2789   2769     1  0.0000000  0.0000000  2
   1360   2764   2744   2741     1  0.0000000  2.2175200  1
   1360   2764   2744   2741     1  0.0000000  0.0000000  2
   1360   2764   2744   2741     1  180.0000771  0.6276000  3
   1360   2764   2744   2741     1  180.0000771  2.0920000  4
   1361   2789   2769   2766     1  0.0000000  2.2175200  1
   1361   2789   2769   2766     1  0.0000000  0.0000000  2
   1361   2789   2769   2766     1  180.0000771  0.6276000  3
   1361   2789   2769   2766     1  180.0000771  2.0920000  4
   1362   1360   2764   2744     1  180.0000771  10.4600000  2
   1363   1361   2789   2769     1  180.0000771  10.4600000  2
   1366   1372   1373   1382     1  180.0000771  2.0083200  2
   1366   1372   1373   1382     1  0.0000000  1.2552000  3
   1366   1372   1376   1379     1  180.0000771  2.0083200  2
   1366   1372   1376   1379     1  0.0000000  1.2552000  3
   1369   1366   1372   1373     1  180.0000771  2.0083200  2
   1369   1366   1372   1373     1  0.0000000  1.2552000  3
   1369   1366   1372   1376     1  180.0000771  2.0083200  2
   1369   1366   1372   1376     1  0.0000000  1.2552000  3
   1372   1366   1369   1389     1  0.0000000  0.6508444  3
   1372   1373   1382   1386     1  0.0000000  0.6508444  3
   1372   1376   1379   1385     1  0.0000000  0.6508444  3
   1373   1372   1376   1379     1  180.0000771  2.0083200  2
   1373   1372   1376   1379     1  0.0000000  1.2552000  3
   1373   1382   1386   1388     1  180.0000771  0.0000000  2
   1373   1382   1386   2839     1  0.0000000  0.2928800  2
   1373   1382   1386   2839     1  0.0000000  0.4184000  4
   1376   1372   1373   1382     1  180.0000771  2.0083200  2
   1376   1372   1373   1382     1  0.0000000  1.2552000  3
   1376   1379   1385   1387     1  180.0000771  0.0000000  2
   1376   1379   1385   2814     1  0.0000000  0.2928800  2
   1376   1379   1385   2814     1  0.0000000  0.4184000  4
   1379   1385   2814   2794     1  180.0000771  6.2760000  1
   1379   1385   2814   2794     1  0.0000000  0.0000000  2
   1382   1386   2839   2819     1  180.0000771  6.2760000  1
   1382   1386   2839   2819     1  0.0000000  0.0000000  2
   1385   2814   2794   2791     1  0.0000000  2.2175200  1
   1385   2814   2794   2791     1  0.0000000  0.0000000  2
   1385   2814   2794   2791     1  180.0000771  0.6276000  3
   1385   2814   2794   2791     1  180.0000771  2.0920000  4
   1386   2839   2819   2816     1  0.0000000  2.2175200  1
   1386   2839   2819   2816     1  0.0000000  0.0000000  2
   1386   2839   2819   2816     1  180.0000771  0.6276000  3
   1386   2839   2819   2816     1  180.0000771  2.0920000  4
   1387   1385   2814   2794     1  180.0000771  10.4600000  2
   1388   1386   2839   2819     1  180.0000771  10.4600000  2
   1391   1397   1398   1407     1  180.0000771  2.0083200  2
   1391   1397   1398   1407     1  0.0000000  1.2552000  3
   1391   1397   1401   1404     1  180.0000771  2.0083200  2
   1391   1397   1401   1404     1  0.0000000  1.2552000  3
   1394   1391   1397   1398     1  180.0000771  2.0083200  2
   1394   1391   1397   1398     1  0.0000000  1.2552000  3
   1394   1391   1397   1401     1  180.0000771  2.0083200  2
   1394   1391   1397   1401     1  0.0000000  1.2552000  3
   1397   1391   1394   1414     1  0.0000000  0.6508444  3
   1397   1398   1407   1411     1  0.0000000  0.6508444  3
   1397   1401   1404   1410     1  0.0000000  0.6508444  3
   1398   1397   1401   1404     1  180.0000771  2.0083200  2
   1398   1397   1401   1404     1  0.0000000  1.2552000  3
   1398   1407   1411   1413     1  180.0000771  0.0000000  2
   1398   1407   1411   2889     1  0.0000000  0.2928800  2
   1398   1407   1411   2889     1  0.0000000  0.4184000  4
   1401   1397   1398   1407     1  180.0000771  2.0083200  2
   1401   1397   1398   1407     1  0.0000000  1.2552000  3
   1401   1404   1410   1412     1  180.0000771  0.0000000  2
   1401   1404   1410   2864     1  0.0000000  0.2928800  2
   1401   1404   1410   2864     1  0.0000000  0.4184000  4
   1404   1410   2864   2844     1  180.0000771  6.2760000  1
   1404   1410   2864   2844     1  0.0000000  0.0000000  2
   1407   1411   2889   2869     1  180.0000771  6.2760000  1
   1407   1411   2889   2869     1  0.0000000  0.0000000  2
   1410   2864   2844   2841     1  0.0000000  2.2175200  1
   1410   2864   2844   2841     1  0.0000000  0.0000000  2
   1410   2864   2844   2841     1  180.0000771  0.6276000  3
   1410   2864   2844   2841     1  180.0000771  2.0920000  4
   1411   2889   2869   2866     1  0.0000000  2.2175200  1
   1411   2889   2869   2866     1  0.0000000  0.0000000  2
   1411   2889   2869   2866     1  180.0000771  0.6276000  3
   1411   2889   2869   2866     1  180.0000771  2.0920000  4
   1412   1410   2864   2844     1  180.0000771  10.4600000  2
   1413   1411   2889   2869     1  180.0000771  10.4600000  2
   1416   1422   1423   1432     1  180.0000771  2.0083200  2
   1416   1422   1423   1432     1  0.0000000  1.2552000  3
   1416   1422   1426   1429     1  180.0000771  2.0083200  2
   1416   1422   1426   1429     1  0.0000000  1.2552000  3
   1419   1416   1422   1423     1  180.0000771  2.0083200  2
   1419   1416   1422   1423     1  0.0000000  1.2552000  3
   1419   1416   1422   1426     1  180.0000771  2.0083200  2
   1419   1416   1422   1426     1  0.0000000  1.2552000  3
   1422   1416   1419   1439     1  0.0000000  0.6508444  3
   1422   1423   1432   1436     1  0.0000000  0.6508444  3
   1422   1426   1429   1435     1  0.0000000  0.6508444  3
   1423   1422   1426   1429     1  180.0000771  2.0083200  2
   1423   1422   1426   1429     1  0.0000000  1.2552000  3
   1423   1432   1436   1438     1  180.0000771  0.0000000  2
   1423   1432   1436   2939     1  0.0000000  0.2928800  2
   1423   1432   1436   2939     1  0.0000000  0.4184000  4
   1426   1422   1423   1432     1  180.0000771  2.0083200  2
   1426   1422   1423   1432     1  0.0000000  1.2552000  3
   1426   1429   1435   1437     1  180.0000771  0.0000000  2
   1426   1429   1435   2914     1  0.0000000  0.2928800  2
   1426   1429   1435   2914     1  0.0000000  0.4184000  4
   1429   1435   2914   2894     1  180.0000771  6.2760000  1
   1429   1435   2914   2894     1  0.0000000  0.0000000  2
   1432   1436   2939   2919     1  180.0000771  6.2760000  1
   1432   1436   2939   2919     1  0.0000000  0.0000000  2
   1435   2914   2894   2891     1  0.0000000  2.2175200  1
   1435   2914   2894   2891     1  0.0000000  0.0000000  2
   1435   2914   2894   2891     1  180.0000771  0.6276000  3
   1435   2914   2894   2891     1  180.0000771  2.0920000  4
   1436   2939   2919   2916     1  0.0000000  2.2175200  1
   1436   2939   2919   2916     1  0.0000000  0.0000000  2
   1436   2939   2919   2916     1  180.0000771  0.6276000  3
   1436   2939   2919   2916     1  180.0000771  2.0920000  4
   1437   1435   2914   2894     1  180.0000771  10.4600000  2
   1438   1436   2939   2919     1  180.0000771  10.4600000  2
   1441   1447   1448   1457     1  180.0000771  2.0083200  2
   1441   1447   1448   1457     1  0.0000000  1.2552000  3
   1441   1447   1451   1454     1  180.0000771  2.0083200  2
   1441   1447   1451   1454     1  0.0000000  1.2552000  3
   1444   1441   1447   1448     1  180.0000771  2.0083200  2
   1444   1441   1447   1448     1  0.0000000  1.2552000  3
   1444   1441   1447   1451     1  180.0000771  2.0083200  2
   1444   1441   1447   1451     1  0.0000000  1.2552000  3
   1447   1441   1444   1464     1  0.0000000  0.6508444  3
   1447   1448   1457   1461     1  0.0000000  0.6508444  3
   1447   1451   1454   1460     1  0.0000000  0.6508444  3
   1448   1447   1451   1454     1  180.0000771  2.0083200  2
   1448   1447   1451   1454     1  0.0000000  1.2552000  3
   1448   1457   1461   1463     1  180.0000771  0.0000000  2
   1448   1457   1461   2989     1  0.0000000  0.2928800  2
   1448   1457   1461   2989     1  0.0000000  0.4184000  4
   1451   1447   1448   1457     1  180.0000771  2.0083200  2
   1451   1447   1448   1457     1  0.0000000  1.2552000  3
   1451   1454   1460   1462     1  180.0000771  0.0000000  2
   1451   1454   1460   2964     1  0.0000000  0.2928800  2
   1451   1454   1460   2964     1  0.0000000  0.4184000  4
   1454   1460   2964   2944     1  180.0000771  6.2760000  1
   1454   1460   2964   2944     1  0.0000000  0.0000000  2
   1457   1461   2989   2969     1  180.0000771  6.2760000  1
   1457   1461   2989   2969     1  0.0000000  0.0000000  2
   1460   2964   2944   2941     1  0.0000000  2.2175200  1
   1460   2964   2944   2941     1  0.0000000  0.0000000  2
   1460   2964   2944   2941     1  180.0000771  0.6276000  3
   1460   2964   2944   2941     1  180.0000771  2.0920000  4
   1461   2989   2969   2966     1  0.0000000  2.2175200  1
   1461   2989   2969   2966     1  0.0000000  0.0000000  2
   1461   2989   2969   2966     1  180.0000771  0.6276000  3
   1461   2989   2969   2966     1  180.0000771  2.0920000  4
   1462   1460   2964   2944     1  180.0000771  10.4600000  2
   1463   1461   2989   2969     1  180.0000771  10.4600000  2
   1466   1472   1473   1482     1  180.0000771  2.0083200  2
   1466   1472   1473   1482     1  0.0000000  1.2552000  3
   1466   1472   1476   1479     1  180.0000771  2.0083200  2
   1466   1472   1476   1479     1  0.0000000  1.2552000  3
   1469   1466   1472   1473     1  180.0000771  2.0083200  2
   1469   1466   1472   1473     1  0.0000000  1.2552000  3
   1469   1466   1472   1476     1  180.0000771  2.0083200  2
   1469   1466   1472   1476     1  0.0000000  1.2552000  3
   1472   1466   1469   1489     1  0.0000000  0.6508444  3
   1472   1473   1482   1486     1  0.0000000  0.6508444  3
   1472   1476   1479   1485     1  0.0000000  0.6508444  3
   1473   1472   1476   1479     1  180.0000771  2.0083200  2
   1473   1472   1476   1479     1  0.0000000  1.2552000  3
   1473   1482   1486   1488     1  180.0000771  0.0000000  2
   1473   1482   1486   3039     1  0.0000000  0.2928800  2
   1473   1482   1486   3039     1  0.0000000  0.4184000  4
   1476   1472   1473   1482     1  180.0000771  2.0083200  2
   1476   1472   1473   1482     1  0.0000000  1.2552000  3
   1476   1479   1485   1487     1  180.0000771  0.0000000  2
   1476   1479   1485   3014     1  0.0000000  0.2928800  2
   1476   1479   1485   3014     1  0.0000000  0.4184000  4
   1479   1485   3014   2994     1  180.0000771  6.2760000  1
   1479   1485   3014   2994     1  0.0000000  0.0000000  2
   1482   1486   3039   3019     1  180.0000771  6.2760000  1
   1482   1486   3039   3019     1  0.0000000  0.0000000  2
   1485   3014   2994   2991     1  0.0000000  2.2175200  1
   1485   3014   2994   2991     1  0.0000000  0.0000000  2
   1485   3014   2994   2991     1  180.0000771  0.6276000  3
   1485   3014   2994   2991     1  180.0000771  2.0920000  4
   1486   3039   3019   3016     1  0.0000000  2.2175200  1
   1486   3039   3019   3016     1  0.0000000  0.0000000  2
   1486   3039   3019   3016     1  180.0000771  0.6276000  3
   1486   3039   3019   3016     1  180.0000771  2.0920000  4
   1487   1485   3014   2994     1  180.0000771  10.4600000  2
   1488   1486   3039   3019     1  180.0000771  10.4600000  2
   1491   1497   1498   1507     1  180.0000771  2.0083200  2
   1491   1497   1498   1507     1  0.0000000  1.2552000  3
   1491   1497   1501   1504     1  180.0000771  2.0083200  2
   1491   1497   1501   1504     1  0.0000000  1.2552000  3
   1494   1491   1497   1498     1  180.0000771  2.0083200  2
   1494   1491   1497   1498     1  0.0000000  1.2552000  3
   1494   1491   1497   1501     1  180.0000771  2.0083200  2
   1494   1491   1497   1501     1  0.0000000  1.2552000  3
   1497   1491   1494   1514     1  0.0000000  0.6508444  3
   1497   1498   1507   1511     1  0.0000000  0.6508444  3
   1497   1501   1504   1510     1  0.0000000  0.6508444  3
   1498   1497   1501   1504     1  180.0000771  2.0083200  2
   1498   1497   1501   1504     1  0.0000000  1.2552000  3
   1498   1507   1511   1513     1  180.0000771  0.0000000  2
   1498   1507   1511   3089     1  0.0000000  0.2928800  2
   1498   1507   1511   3089     1  0.0000000  0.4184000  4
   1501   1497   1498   1507     1  180.0000771  2.0083200  2
   1501   1497   1498   1507     1  0.0000000  1.2552000  3
   1501   1504   1510   1512     1  180.0000771  0.0000000  2
   1501   1504   1510   3064     1  0.0000000  0.2928800  2
   1501   1504   1510   3064     1  0.0000000  0.4184000  4
   1504   1510   3064   3044     1  180.0000771  6.2760000  1
   1504   1510   3064   3044     1  0.0000000  0.0000000  2
   1507   1511   3089   3069     1  180.0000771  6.2760000  1
   1507   1511   3089   3069     1  0.0000000  0.0000000  2
   1510   3064   3044   3041     1  0.0000000  2.2175200  1
   1510   3064   3044   3041     1  0.0000000  0.0000000  2
   1510   3064   3044   3041     1  180.0000771  0.6276000  3
   1510   3064   3044   3041     1  180.0000771  2.0920000  4
   1511   3089   3069   3066     1  0.0000000  2.2175200  1
   1511   3089   3069   3066     1  0.0000000  0.0000000  2
   1511   3089   3069   3066     1  180.0000771  0.6276000  3
   1511   3089   3069   3066     1  180.0000771  2.0920000  4
   1512   1510   3064   3044     1  180.0000771  10.4600000  2
   1513   1511   3089   3069     1  180.0000771  10.4600000  2
   1516   1522   1523   1532     1  180.0000771  2.0083200  2
   1516   1522   1523   1532     1  0.0000000  1.2552000  3
   1516   1522   1526   1529     1  180.0000771  2.0083200  2
   1516   1522   1526   1529     1  0.0000000  1.2552000  3
   1519   1516   1522   1523     1  180.0000771  2.0083200  2
   1519   1516   1522   1523     1  0.0000000  1.2552000  3
   1519   1516   1522   1526     1  180.0000771  2.0083200  2
   1519   1516   1522   1526     1  0.0000000  1.2552000  3
   1522   1516   1519   1539     1  0.0000000  0.6508444  3
   1522   1523   1532   1536     1  0.0000000  0.6508444  3
   1522   1526   1529   1535     1  0.0000000  0.6508444  3
   1523   1522   1526   1529     1  180.0000771  2.0083200  2
   1523   1522   1526   1529     1  0.0000000  1.2552000  3
   1523   1532   1536   1538     1  180.0000771  0.0000000  2
   1523   1532   1536   3139     1  0.0000000  0.2928800  2
   1523   1532   1536   3139     1  0.0000000  0.4184000  4
   1526   1522   1523   1532     1  180.0000771  2.0083200  2
   1526   1522   1523   1532     1  0.0000000  1.2552000  3
   1526   1529   1535   1537     1  180.0000771  0.0000000  2
   1526   1529   1535   3114     1  0.0000000  0.2928800  2
   1526   1529   1535   3114     1  0.0000000  0.4184000  4
   1529   1535   3114   3094     1  180.0000771  6.2760000  1
   1529   1535   3114   3094     1  0.0000000  0.0000000  2
   1532   1536   3139   3119     1  180.0000771  6.2760000  1
   1532   1536   3139   3119     1  0.0000000  0.0000000  2
   1535   3114   3094   3091     1  0.0000000  2.2175200  1
   1535   3114   3094   3091     1  0.0000000  0.0000000  2
   1535   3114   3094   3091     1  180.0000771  0.6276000  3
   1535   3114   3094   3091     1  180.0000771  2.0920000  4
   1536   3139   3119   3116     1  0.0000000  2.2175200  1
   1536   3139   3119   3116     1  0.0000000  0.0000000  2
   1536   3139   3119   3116     1  180.0000771  0.6276000  3
   1536   3139   3119   3116     1  180.0000771  2.0920000  4
   1537   1535   3114   3094     1  180.0000771  10.4600000  2
   1538   1536   3139   3119     1  180.0000771  10.4600000  2
   1541   1547   1548   1557     1  180.0000771  2.0083200  2
   1541   1547   1548   1557     1  0.0000000  1.2552000  3
   1541   1547   1551   1554     1  180.0000771  2.0083200  2
   1541   1547   1551   1554     1  0.0000000  1.2552000  3
   1544   1541   1547   1548     1  180.0000771  2.0083200  2
   1544   1541   1547   1548     1  0.0000000  1.2552000  3
   1544   1541   1547   1551     1  180.0000771  2.0083200  2
   1544   1541   1547   1551     1  0.0000000  1.2552000  3
   1547   1541   1544   1564     1  0.0000000  0.6508444  3
   1547   1548   1557   1561     1  0.0000000  0.6508444  3
   1547   1551   1554   1560     1  0.0000000  0.6508444  3
   1548   1547   1551   1554     1  180.0000771  2.0083200  2
   1548   1547   1551   1554     1  0.0000000  1.2552000  3
   1548   1557   1561   1563     1  180.0000771  0.0000000  2
   1548   1557   1561   3153     1  0.0000000  0.2928800  2
   1548   1557   1561   3153     1  0.0000000  0.4184000  4
   1551   1547   1548   1557     1  180.0000771  2.0083200  2
   1551   1547   1548   1557     1  0.0000000  1.2552000  3
   1551   1554   1560   3141     1  0.0000000  0.2928800  2
   1551   1554   1560   3141     1  0.0000000  0.4184000  4
   1551   1554   1560   1562     1  180.0000771  0.0000000  2
   1554   1560   3141   3143     1  180.0000771  6.2760000  1
   1554   1560   3141   3143     1  0.0000000  0.0000000  2
   1557   1561   3153   3155     1  180.0000771  6.2760000  1
   1557   1561   3153   3155     1  0.0000000  0.0000000  2
   1560   3141   3143   3144     1  0.0000000  2.2175200  1
   1560   3141   3143   3144     1  0.0000000  0.0000000  2
   1560   3141   3143   3144     1  180.0000771  0.6276000  3
   1560   3141   3143   3144     1  180.0000771  2.0920000  4
   1561   3153   3155   3156     1  0.0000000  2.2175200  1
   1561   3153   3155   3156     1  0.0000000  0.0000000  2
   1561   3153   3155   3156     1  180.0000771  0.6276000  3
   1561   3153   3155   3156     1  180.0000771  2.0920000  4
   1562   1560   3141   3143     1  180.0000771  10.4600000  2
   1563   1561   3153   3155     1  180.0000771  10.4600000  2
   1566   1572   1573   1582     1  180.0000771  2.0083200  2
   1566   1572   1573   1582     1  0.0000000  1.2552000  3
   1566   1572   1576   1579     1  180.0000771  2.0083200  2
   1566   1572   1576   1579     1  0.0000000  1.2552000  3
   1569   1566   1572   1573     1  180.0000771  2.0083200  2
   1569   1566   1572   1573     1  0.0000000  1.2552000  3
   1569   1566   1572   1576     1  180.0000771  2.0083200  2
   1569   1566   1572   1576     1  0.0000000  1.2552000  3
   1572   1566   1569   1589     1  0.0000000  0.6508444  3
   1572   1573   1582   1586     1  0.0000000  0.6508444  3
   1572   1576   1579   1585     1  0.0000000  0.6508444  3
   1573   1572   1576   1579     1  180.0000771  2.0083200  2
   1573   1572   1576   1579     1  0.0000000  1.2552000  3
   1573   1582   1586   1588     1  180.0000771  0.0000000  2
   1573   1582   1586   3177     1  0.0000000  0.2928800  2
   1573   1582   1586   3177     1  0.0000000  0.4184000  4
   1576   1572   1573   1582     1  180.0000771  2.0083200  2
   1576   1572   1573   1582     1  0.0000000  1.2552000  3
   1576   1579   1585   3165     1  0.0000000  0.2928800  2
   1576   1579   1585   3165     1  0.0000000  0.4184000  4
   1576   1579   1585   1587     1  180.0000771  0.0000000  2
   1579   1585   3165   3167     1  180.0000771  6.2760000  1
   1579   1585   3165   3167     1  0.0000000  0.0000000  2
   1582   1586   3177   3179     1  180.0000771  6.2760000  1
   1582   1586   3177   3179     1  0.0000000  0.0000000  2
   1585   3165   3167   3168     1  0.0000000  2.2175200  1
   1585   3165   3167   3168     1  0.0000000  0.0000000  2
   1585   3165   3167   3168     1  180.0000771  0.6276000  3
   1585   3165   3167   3168     1  180.0000771  2.0920000  4
   1586   3177   3179   3180     1  0.0000000  2.2175200  1
   1586   3177   3179   3180     1  0.0000000  0.0000000  2
   1586   3177   3179   3180     1  180.0000771  0.6276000  3
   1586   3177   3179   3180     1  180.0000771  2.0920000  4
   1587   1585   3165   3167     1  180.0000771  10.4600000  2
   1588   1586   3177   3179     1  180.0000771  10.4600000  2
   1591   1597   1598   1607     1  180.0000771  2.0083200  2
   1591   1597   1598   1607     1  0.0000000  1.2552000  3
   1591   1597   1601   1604     1  180.0000771  2.0083200  2
   1591   1597   1601   1604     1  0.0000000  1.2552000  3
   1594   1591   1597   1598     1  180.0000771  2.0083200  2
   1594   1591   1597   1598     1  0.0000000  1.2552000  3
   1594   1591   1597   1601     1  180.0000771  2.0083200  2
   1594   1591   1597   1601     1  0.0000000  1.2552000  3
   1597   1591   1594   1614     1  0.0000000  0.6508444  3
   1597   1598   1607   1611     1  0.0000000  0.6508444  3
   1597   1601   1604   1610     1  0.0000000  0.6508444  3
   1598   1597   1601   1604     1  180.0000771  2.0083200  2
   1598   1597   1601   1604     1  0.0000000  1.2552000  3
   1598   1607   1611   1613     1  180.0000771  0.0000000  2
   1598   1607   1611   3201     1  0.0000000  0.2928800  2
   1598   1607   1611   3201     1  0.0000000  0.4184000  4
   1601   1597   1598   1607     1  180.0000771  2.0083200  2
   1601   1597   1598   1607     1  0.0000000  1.2552000  3
   1601   1604   1610   3189     1  0.0000000  0.2928800  2
   1601   1604   1610   3189     1  0.0000000  0.4184000  4
   1601   1604   1610   1612     1  180.0000771  0.0000000  2
   1604   1610   3189   3191     1  180.0000771  6.2760000  1
   1604   1610   3189   3191     1  0.0000000  0.0000000  2
   1607   1611   3201   3203     1  180.0000771  6.2760000  1
   1607   1611   3201   3203     1  0.0000000  0.0000000  2
   1610   3189   3191   3192     1  0.0000000  2.2175200  1
   1610   3189   3191   3192     1  0.0000000  0.0000000  2
   1610   3189   3191   3192     1  180.0000771  0.6276000  3
   1610   3189   3191   3192     1  180.0000771  2.0920000  4
   1611   3201   3203   3204     1  0.0000000  2.2175200  1
   1611   3201   3203   3204     1  0.0000000  0.0000000  2
   1611   3201   3203   3204     1  180.0000771  0.6276000  3
   1611   3201   3203   3204     1  180.0000771  2.0920000  4
   1612   1610   3189   3191     1  180.0000771  10.4600000  2
   1613   1611   3201   3203     1  180.0000771  10.4600000  2
   1616   1622   1623   1632     1  180.0000771  2.0083200  2
   1616   1622   1623   1632     1  0.0000000  1.2552000  3
   1616   1622   1626   1629     1  180.0000771  2.0083200  2
   1616   1622   1626   1629     1  0.0000000  1.2552000  3
   1619   1616   1622   1623     1  180.0000771  2.0083200  2
   1619   1616   1622   1623     1  0.0000000  1.2552000  3
   1619   1616   1622   1626     1  180.0000771  2.0083200  2
   1619   1616   1622   1626     1  0.0000000  1.2552000  3
   1622   1616   1619   1639     1  0.0000000  0.6508444  3
   1622   1623   1632   1636     1  0.0000000  0.6508444  3
   1622   1626   1629   1635     1  0.0000000  0.6508444  3
   1623   1622   1626   1629     1  180.0000771  2.0083200  2
   1623   1622   1626   1629     1  0.0000000  1.2552000  3
   1623   1632   1636   1638     1  180.0000771  0.0000000  2
   1623   1632   1636   3225     1  0.0000000  0.2928800  2
   1623   1632   1636   3225     1  0.0000000  0.4184000  4
   1626   1622   1623   1632     1  180.0000771  2.0083200  2
   1626   1622   1623   1632     1  0.0000000  1.2552000  3
   1626   1629   1635   3213     1  0.0000000  0.2928800  2
   1626   1629   1635   3213     1  0.0000000  0.4184000  4
   1626   1629   1635   1637     1  180.0000771  0.0000000  2
   1629   1635   3213   3215     1  180.0000771  6.2760000  1
   1629   1635   3213   3215     1  0.0000000  0.0000000  2
   1632   1636   3225   3227     1  180.0000771  6.2760000  1
   1632   1636   3225   3227     1  0.0000000  0.0000000  2
   1635   3213   3215   3216     1  0.0000000  2.2175200  1
   1635   3213   3215   3216     1  0.0000000  0.0000000  2
   1635   3213   3215   3216     1  180.0000771  0.6276000  3
   1635   3213   3215   3216     1  180.0000771  2.0920000  4
   1636   3225   3227   3228     1  0.0000000  2.2175200  1
   1636   3225   3227   3228     1  0.0000000  0.0000000  2
   1636   3225   3227   3228     1  180.0000771  0.6276000  3
   1636   3225   3227   3228     1  180.0000771  2.0920000  4
   1637   1635   3213   3215     1  180.0000771  10.4600000  2
   1638   1636   3225   3227     1  180.0000771  10.4600000  2
   1641   1647   1648   1657     1  180.0000771  2.0083200  2
   1641   1647   1648   1657     1  0.0000000  1.2552000  3
   1641   1647   1651   1654     1  180.0000771  2.0083200  2
   1641   1647   1651   1654     1  0.0000000  1.2552000  3
   1644   1641   1647   1648     1  180.0000771  2.0083200  2
   1644   1641   1647   1648     1  0.0000000  1.2552000  3
   1644   1641   1647   1651     1  180.0000771  2.0083200  2
   1644   1641   1647   1651     1  0.0000000  1.2552000  3
   1647   1641   1644   1664     1  0.0000000  0.6508444  3
   1647   1648   1657   1661     1  0.0000000  0.6508444  3
   1647   1651   1654   1660     1  0.0000000  0.6508444  3
   1648   1647   1651   1654     1  180.0000771  2.0083200  2
   1648   1647   1651   1654     1  0.0000000  1.2552000  3
   1648   1657   1661   1663     1  180.0000771  0.0000000  2
   1648   1657   1661   3249     1  0.0000000  0.2928800  2
   1648   1657   1661   3249     1  0.0000000  0.4184000  4
   1651   1647   1648   1657     1  180.0000771  2.0083200  2
   1651   1647   1648   1657     1  0.0000000  1.2552000  3
   1651   1654   1660   3237     1  0.0000000  0.2928800  2
   1651   1654   1660   3237     1  0.0000000  0.4184000  4
   1651   1654   1660   1662     1  180.0000771  0.0000000  2
   1654   1660   3237   3239     1  180.0000771  6.2760000  1
   1654   1660   3237   3239     1  0.0000000  0.0000000  2
   1657   1661   3249   3251     1  180.0000771  6.2760000  1
   1657   1661   3249   3251     1  0.0000000  0.0000000  2
   1660   3237   3239   3240     1  0.0000000  2.2175200  1
   1660   3237   3239   3240     1  0.0000000  0.0000000  2
   1660   3237   3239   3240     1  180.0000771  0.6276000  3
   1660   3237   3239   3240     1  180.0000771  2.0920000  4
   1661   3249   3251   3252     1  0.0000000  2.2175200  1
   1661   3249   3251   3252     1  0.0000000  0.0000000  2
   1661   3249   3251   3252     1  180.0000771  0.6276000  3
   1661   3249   3251   3252     1  180.0000771  2.0920000  4
   1662   1660   3237   3239     1  180.0000771  10.4600000  2
   1663   1661   3249   3251     1  180.0000771  10.4600000  2
   1666   1672   1673   1682     1  180.0000771  2.0083200  2
   1666   1672   1673   1682     1  0.0000000  1.2552000  3
   1666   1672   1676   1679     1  180.0000771  2.0083200  2
   1666   1672   1676   1679     1  0.0000000  1.2552000  3
   1669   1666   1672   1673     1  180.0000771  2.0083200  2
   1669   1666   1672   1673     1  0.0000000  1.2552000  3
   1669   1666   1672   1676     1  180.0000771  2.0083200  2
   1669   1666   1672   1676     1  0.0000000  1.2552000  3
   1672   1666   1669   1689     1  0.0000000  0.6508444  3
   1672   1673   1682   1686     1  0.0000000  0.6508444  3
   1672   1676   1679   1685     1  0.0000000  0.6508444  3
   1673   1672   1676   1679     1  180.0000771  2.0083200  2
   1673   1672   1676   1679     1  0.0000000  1.2552000  3
   1673   1682   1686   1688     1  180.0000771  0.0000000  2
   1673   1682   1686   3273     1  0.0000000  0.2928800  2
   1673   1682   1686   3273     1  0.0000000  0.4184000  4
   1676   1672   1673   1682     1  180.0000771  2.0083200  2
   1676   1672   1673   1682     1  0.0000000  1.2552000  3
   1676   1679   1685   3261     1  0.0000000  0.2928800  2
   1676   1679   1685   3261     1  0.0000000  0.4184000  4
   1676   1679   1685   1687     1  180.0000771  0.0000000  2
   1679   1685   3261   3263     1  180.0000771  6.2760000  1
   1679   1685   3261   3263     1  0.0000000  0.0000000  2
   1682   1686   3273   3275     1  180.0000771  6.2760000  1
   1682   1686   3273   3275     1  0.0000000  0.0000000  2
   1685   3261   3263   3264     1  0.0000000  2.2175200  1
   1685   3261   3263   3264     1  0.0000000  0.0000000  2
   1685   3261   3263   3264     1  180.0000771  0.6276000  3
   1685   3261   3263   3264     1  180.0000771  2.0920000  4
   1686   3273   3275   3276     1  0.0000000  2.2175200  1
   1686   3273   3275   3276     1  0.0000000  0.0000000  2
   1686   3273   3275   3276     1  180.0000771  0.6276000  3
   1686   3273   3275   3276     1  180.0000771  2.0920000  4
   1687   1685   3261   3263     1  180.0000771  10.4600000  2
   1688   1686   3273   3275     1  180.0000771  10.4600000  2
   1691   1697   1698   1707     1  180.0000771  2.0083200  2
   1691   1697   1698   1707     1  0.0000000  1.2552000  3
   1691   1697   1701   1704     1  180.0000771  2.0083200  2
   1691   1697   1701   1704     1  0.0000000  1.2552000  3
   1694   1691   1697   1698     1  180.0000771  2.0083200  2
   1694   1691   1697   1698     1  0.0000000  1.2552000  3
   1694   1691   1697   1701     1  180.0000771  2.0083200  2
   1694   1691   1697   1701     1  0.0000000  1.2552000  3
   1697   1691   1694   1714     1  0.0000000  0.6508444  3
   1697   1698   1707   1711     1  0.0000000  0.6508444  3
   1697   1701   1704   1710     1  0.0000000  0.6508444  3
   1698   1697   1701   1704     1  180.0000771  2.0083200  2
   1698   1697   1701   1704     1  0.0000000  1.2552000  3
   1698   1707   1711   1713     1  180.0000771  0.0000000  2
   1698   1707   1711   3297     1  0.0000000  0.2928800  2
   1698   1707   1711   3297     1  0.0000000  0.4184000  4
   1701   1697   1698   1707     1  180.0000771  2.0083200  2
   1701   1697   1698   1707     1  0.0000000  1.2552000  3
   1701   1704   1710   3285     1  0.0000000  0.2928800  2
   1701   1704   1710   3285     1  0.0000000  0.4184000  4
   1701   1704   1710   1712     1  180.0000771  0.0000000  2
   1704   1710   3285   3287     1  180.0000771  6.2760000  1
   1704   1710   3285   3287     1  0.0000000  0.0000000  2
   1707   1711   3297   3299     1  180.0000771  6.2760000  1
   1707   1711   3297   3299     1  0.0000000  0.0000000  2
   1710   3285   3287   3288     1  0.0000000  2.2175200  1
   1710   3285   3287   3288     1  0.0000000  0.0000000  2
   1710   3285   3287   3288     1  180.0000771  0.6276000  3
   1710   3285   3287   3288     1  180.0000771  2.0920000  4
   1711   3297   3299   3300     1  0.0000000  2.2175200  1
   1711   3297   3299   3300     1  0.0000000  0.0000000  2
   1711   3297   3299   3300     1  180.0000771  0.6276000  3
   1711   3297   3299   3300     1  180.0000771  2.0920000  4
   1712   1710   3285   3287     1  180.0000771  10.4600000  2
   1713   1711   3297   3299     1  180.0000771  10.4600000  2
   1716   1722   1723   1732     1  180.0000771  2.0083200  2
   1716   1722   1723   1732     1  0.0000000  1.2552000  3
   1716   1722   1726   1729     1  180.0000771  2.0083200  2
   1716   1722   1726   1729     1  0.0000000  1.2552000  3
   1719   1716   1722   1723     1  180.0000771  2.0083200  2
   1719   1716   1722   1723     1  0.0000000  1.2552000  3
   1719   1716   1722   1726     1  180.0000771  2.0083200  2
   1719   1716   1722   1726     1  0.0000000  1.2552000  3
   1722   1716   1719   1739     1  0.0000000  0.6508444  3
   1722   1723   1732   1736     1  0.0000000  0.6508444  3
   1722   1726   1729   1735     1  0.0000000  0.6508444  3
   1723   1722   1726   1729     1  180.0000771  2.0083200  2
   1723   1722   1726   1729     1  0.0000000  1.2552000  3
   1723   1732   1736   1738     1  180.0000771  0.0000000  2
   1723   1732   1736   3321     1  0.0000000  0.2928800  2
   1723   1732   1736   3321     1  0.0000000  0.4184000  4
   1726   1722   1723   1732     1  180.0000771  2.0083200  2
   1726   1722   1723   1732     1  0.0000000  1.2552000  3
   1726   1729   1735   3309     1  0.0000000  0.2928800  2
   1726   1729   1735   3309     1  0.0000000  0.4184000  4
   1726   1729   1735   1737     1  180.0000771  0.0000000  2
   1729   1735   3309   3311     1  180.0000771  6.2760000  1
   1729   1735   3309   3311     1  0.0000000  0.0000000  2
   1732   1736   3321   3323     1  180.0000771  6.2760000  1
   1732   1736   3321   3323     1  0.0000000  0.0000000  2
   1735   3309   3311   3312     1  0.0000000  2.2175200  1
   1735   3309   3311   3312     1  0.0000000  0.0000000  2
   1735   3309   3311   3312     1  180.0000771  0.6276000  3
   1735   3309   3311   3312     1  180.0000771  2.0920000  4
   1736   3321   3323   3324     1  0.0000000  2.2175200  1
   1736   3321   3323   3324     1  0.0000000  0.0000000  2
   1736   3321   3323   3324     1  180.0000771  0.6276000  3
   1736   3321   3323   3324     1  180.0000771  2.0920000  4
   1737   1735   3309   3311     1  180.0000771  10.4600000  2
   1738   1736   3321   3323     1  180.0000771  10.4600000  2
   1741   1747   1748   1757     1  180.0000771  2.0083200  2
   1741   1747   1748   1757     1  0.0000000  1.2552000  3
   1741   1747   1751   1754     1  180.0000771  2.0083200  2
   1741   1747   1751   1754     1  0.0000000  1.2552000  3
   1744   1741   1747   1748     1  180.0000771  2.0083200  2
   1744   1741   1747   1748     1  0.0000000  1.2552000  3
   1744   1741   1747   1751     1  180.0000771  2.0083200  2
   1744   1741   1747   1751     1  0.0000000  1.2552000  3
   1747   1741   1744   1764     1  0.0000000  0.6508444  3
   1747   1748   1757   1761     1  0.0000000  0.6508444  3
   1747   1751   1754   1760     1  0.0000000  0.6508444  3
   1748   1747   1751   1754     1  180.0000771  2.0083200  2
   1748   1747   1751   1754     1  0.0000000  1.2552000  3
   1748   1757   1761   1763     1  180.0000771  0.0000000  2
   1748   1757   1761   3345     1  0.0000000  0.2928800  2
   1748   1757   1761   3345     1  0.0000000  0.4184000  4
   1751   1747   1748   1757     1  180.0000771  2.0083200  2
   1751   1747   1748   1757     1  0.0000000  1.2552000  3
   1751   1754   1760   3333     1  0.0000000  0.2928800  2
   1751   1754   1760   3333     1  0.0000000  0.4184000  4
   1751   1754   1760   1762     1  180.0000771  0.0000000  2
   1754   1760   3333   3335     1  180.0000771  6.2760000  1
   1754   1760   3333   3335     1  0.0000000  0.0000000  2
   1757   1761   3345   3347     1  180.0000771  6.2760000  1
   1757   1761   3345   3347     1  0.0000000  0.0000000  2
   1760   3333   3335   3336     1  0.0000000  2.2175200  1
   1760   3333   3335   3336     1  0.0000000  0.0000000  2
   1760   3333   3335   3336     1  180.0000771  0.6276000  3
   1760   3333   3335   3336     1  180.0000771  2.0920000  4
   1761   3345   3347   3348     1  0.0000000  2.2175200  1
   1761   3345   3347   3348     1  0.0000000  0.0000000  2
   1761   3345   3347   3348     1  180.0000771  0.6276000  3
   1761   3345   3347   3348     1  180.0000771  2.0920000  4
   1762   1760   3333   3335     1  180.0000771  10.4600000  2
   1763   1761   3345   3347     1  180.0000771  10.4600000  2
   1766   1772   1773   1782     1  180.0000771  2.0083200  2
   1766   1772   1773   1782     1  0.0000000  1.2552000  3
   1766   1772   1776   1779     1  180.0000771  2.0083200  2
   1766   1772   1776   1779     1  0.0000000  1.2552000  3
   1769   1766   1772   1773     1  180.0000771  2.0083200  2
   1769   1766   1772   1773     1  0.0000000  1.2552000  3
   1769   1766   1772   1776     1  180.0000771  2.0083200  2
   1769   1766   1772   1776     1  0.0000000  1.2552000  3
   1772   1766   1769   1789     1  0.0000000  0.6508444  3
   1772   1773   1782   1786     1  0.0000000  0.6508444  3
   1772   1776   1779   1785     1  0.0000000  0.6508444  3
   1773   1772   1776   1779     1  180.0000771  2.0083200  2
   1773   1772   1776   1779     1  0.0000000  1.2552000  3
   1773   1782   1786   1788     1  180.0000771  0.0000000  2
   1773   1782   1786   3369     1  0.0000000  0.2928800  2
   1773   1782   1786   3369     1  0.0000000  0.4184000  4
   1776   1772   1773   1782     1  180.0000771  2.0083200  2
   1776   1772   1773   1782     1  0.0000000  1.2552000  3
   1776   1779   1785   3357     1  0.0000000  0.2928800  2
   1776   1779   1785   3357     1  0.0000000  0.4184000  4
   1776   1779   1785   1787     1  180.0000771  0.0000000  2
   1779   1785   3357   3359     1  180.0000771  6.2760000  1
   1779   1785   3357   3359     1  0.0000000  0.0000000  2
   1782   1786   3369   3371     1  180.0000771  6.2760000  1
   1782   1786   3369   3371     1  0.0000000  0.0000000  2
   1785   3357   3359   3360     1  0.0000000  2.2175200  1
   1785   3357   3359   3360     1  0.0000000  0.0000000  2
   1785   3357   3359   3360     1  180.0000771  0.6276000  3
   1785   3357   3359   3360     1  180.0000771  2.0920000  4
   1786   3369   3371   3372     1  0.0000000  2.2175200  1
   1786   3369   3371   3372     1  0.0000000  0.0000000  2
   1786   3369   3371   3372     1  180.0000771  0.6276000  3
   1786   3369   3371   3372     1  180.0000771  2.0920000  4
   1787   1785   3357   3359     1  180.0000771  10.4600000  2
   1788   1786   3369   3371     1  180.0000771  10.4600000  2
   1791   1797   1798   1807     1  180.0000771  2.0083200  2
   1791   1797   1798   1807     1  0.0000000  1.2552000  3
   1791   1797   1801   1804     1  180.0000771  2.0083200  2
   1791   1797   1801   1804     1  0.0000000  1.2552000  3
   1794   1791   1797   1798     1  180.0000771  2.0083200  2
   1794   1791   1797   1798     1  0.0000000  1.2552000  3
   1794   1791   1797   1801     1  180.0000771  2.0083200  2
   1794   1791   1797   1801     1  0.0000000  1.2552000  3
   1797   1791   1794   1814     1  0.0000000  0.6508444  3
   1797   1798   1807   1811     1  0.0000000  0.6508444  3
   1797   1801   1804   1810     1  0.0000000  0.6508444  3
   1798   1797   1801   1804     1  180.0000771  2.0083200  2
   1798   1797   1801   1804     1  0.0000000  1.2552000  3
   1798   1807   1811   1813     1  180.0000771  0.0000000  2
   1798   1807   1811   3393     1  0.0000000  0.2928800  2
   1798   1807   1811   3393     1  0.0000000  0.4184000  4
   1801   1797   1798   1807     1  180.0000771  2.0083200  2
   1801   1797   1798   1807     1  0.0000000  1.2552000  3
   1801   1804   1810   3381     1  0.0000000  0.2928800  2
   1801   1804   1810   3381     1  0.0000000  0.4184000  4
   1801   1804   1810   1812     1  180.0000771  0.0000000  2
   1804   1810   3381   3383     1  180.0000771  6.2760000  1
   1804   1810   3381   3383     1  0.0000000  0.0000000  2
   1807   1811   3393   3395     1  180.0000771  6.2760000  1
   1807   1811   3393   3395     1  0.0000000  0.0000000  2
   1810   3381   3383   3384     1  0.0000000  2.2175200  1
   1810   3381   3383   3384     1  0.0000000  0.0000000  2
   1810   3381   3383   3384     1  180.0000771  0.6276000  3
   1810   3381   3383   3384     1  180.0000771  2.0920000  4
   1811   3393   3395   3396     1  0.0000000  2.2175200  1
   1811   3393   3395   3396     1  0.0000000  0.0000000  2
   1811   3393   3395   3396     1  180.0000771  0.6276000  3
   1811   3393   3395   3396     1  180.0000771  2.0920000  4
   1812   1810   3381   3383     1  180.0000771  10.4600000  2
   1813   1811   3393   3395     1  180.0000771  10.4600000  2
   1816   1822   1823   1832     1  180.0000771  2.0083200  2
   1816   1822   1823   1832     1  0.0000000  1.2552000  3
   1816   1822   1826   1829     1  180.0000771  2.0083200  2
   1816   1822   1826   1829     1  0.0000000  1.2552000  3
   1819   1816   1822   1823     1  180.0000771  2.0083200  2
   1819   1816   1822   1823     1  0.0000000  1.2552000  3
   1819   1816   1822   1826     1  180.0000771  2.0083200  2
   1819   1816   1822   1826     1  0.0000000  1.2552000  3
   1822   1816   1819   1839     1  0.0000000  0.6508444  3
   1822   1823   1832   1836     1  0.0000000  0.6508444  3
   1822   1826   1829   1835     1  0.0000000  0.6508444  3
   1823   1822   1826   1829     1  180.0000771  2.0083200  2
   1823   1822   1826   1829     1  0.0000000  1.2552000  3
   1823   1832   1836   1838     1  180.0000771  0.0000000  2
   1823   1832   1836   3417     1  0.0000000  0.2928800  2
   1823   1832   1836   3417     1  0.0000000  0.4184000  4
   1826   1822   1823   1832     1  180.0000771  2.0083200  2
   1826   1822   1823   1832     1  0.0000000  1.2552000  3
   1826   1829   1835   3405     1  0.0000000  0.2928800  2
   1826   1829   1835   3405     1  0.0000000  0.4184000  4
   1826   1829   1835   1837     1  180.0000771  0.0000000  2
   1829   1835   3405   3407     1  180.0000771  6.2760000  1
   1829   1835   3405   3407     1  0.0000000  0.0000000  2
   1832   1836   3417   3419     1  180.0000771  6.2760000  1
   1832   1836   3417   3419     1  0.0000000  0.0000000  2
   1835   3405   3407   3408     1  0.0000000  2.2175200  1
   1835   3405   3407   3408     1  0.0000000  0.0000000  2
   1835   3405   3407   3408     1  180.0000771  0.6276000  3
   1835   3405   3407   3408     1  180.0000771  2.0920000  4
   1836   3417   3419   3420     1  0.0000000  2.2175200  1
   1836   3417   3419   3420     1  0.0000000  0.0000000  2
   1836   3417   3419   3420     1  180.0000771  0.6276000  3
   1836   3417   3419   3420     1  180.0000771  2.0920000  4
   1837   1835   3405   3407     1  180.0000771  10.4600000  2
   1838   1836   3417   3419     1  180.0000771  10.4600000  2
   1841   1847   1848   1857     1  180.0000771  2.0083200  2
   1841   1847   1848   1857     1  0.0000000  1.2552000  3
   1841   1847   1851   1854     1  180.0000771  2.0083200  2
   1841   1847   1851   1854     1  0.0000000  1.2552000  3
   1844   1841   1847   1848     1  180.0000771  2.0083200  2
   1844   1841   1847   1848     1  0.0000000  1.2552000  3
   1844   1841   1847   1851     1  180.0000771  2.0083200  2
   1844   1841   1847   1851     1  0.0000000  1.2552000  3
   1847   1841   1844   1864     1  0.0000000  0.6508444  3
   1847   1848   1857   1861     1  0.0000000  0.6508444  3
   1847   1851   1854   1860     1  0.0000000  0.6508444  3
   1848   1847   1851   1854     1  180.0000771  2.0083200  2
   1848   1847   1851   1854     1  0.0000000  1.2552000  3
   1848   1857   1861   1863     1  180.0000771  0.0000000  2
   1848   1857   1861   3441     1  0.0000000  0.2928800  2
   1848   1857   1861   3441     1  0.0000000  0.4184000  4
   1851   1847   1848   1857     1  180.0000771  2.0083200  2
   1851   1847   1848   1857     1  0.0000000  1.2552000  3
   1851   1854   1860   3429     1  0.0000000  0.2928800  2
   1851   1854   1860   3429     1  0.0000000  0.4184000  4
   1851   1854   1860   1862     1  180.0000771  0.0000000  2
   1854   1860   3429   3431     1  180.0000771  6.2760000  1
   1854   1860   3429   3431     1  0.0000000  0.0000000  2
   1857   1861   3441   3443     1  180.0000771  6.2760000  1
   1857   1861   3441   3443     1  0.0000000  0.0000000  2
   1860   3429   3431   3432     1  0.0000000  2.2175200  1
   1860   3429   3431   3432     1  0.0000000  0.0000000  2
   1860   3429   3431   3432     1  180.0000771  0.6276000  3
   1860   3429   3431   3432     1  180.0000771  2.0920000  4
   1861   3441   3443   3444     1  0.0000000  2.2175200  1
   1861   3441   3443   3444     1  0.0000000  0.0000000  2
   1861   3441   3443   3444     1  180.0000771  0.6276000  3
   1861   3441   3443   3444     1  180.0000771  2.0920000  4
   1862   1860   3429   3431     1  180.0000771  10.4600000  2
   1863   1861   3441   3443     1  180.0000771  10.4600000  2
   1866   1872   1873   1882     1  180.0000771  2.0083200  2
   1866   1872   1873   1882     1  0.0000000  1.2552000  3
   1866   1872   1876   1879     1  180.0000771  2.0083200  2
   1866   1872   1876   1879     1  0.0000000  1.2552000  3
   1869   1866   1872   1873     1  180.0000771  2.0083200  2
   1869   1866   1872   1873     1  0.0000000  1.2552000  3
   1869   1866   1872   1876     1  180.0000771  2.0083200  2
   1869   1866   1872   1876     1  0.0000000  1.2552000  3
   1872   1866   1869   1889     1  0.0000000  0.6508444  3
   1872   1873   1882   1886     1  0.0000000  0.6508444  3
   1872   1876   1879   1885     1  0.0000000  0.6508444  3
   1873   1872   1876   1879     1  180.0000771  2.0083200  2
   1873   1872   1876   1879     1  0.0000000  1.2552000  3
   1873   1882   1886   1888     1  180.0000771  0.0000000  2
   1873   1882   1886   3465     1  0.0000000  0.2928800  2
   1873   1882   1886   3465     1  0.0000000  0.4184000  4
   1876   1872   1873   1882     1  180.0000771  2.0083200  2
   1876   1872   1873   1882     1  0.0000000  1.2552000  3
   1876   1879   1885   3453     1  0.0000000  0.2928800  2
   1876   1879   1885   3453     1  0.0000000  0.4184000  4
   1876   1879   1885   1887     1  180.0000771  0.0000000  2
   1879   1885   3453   3455     1  180.0000771  6.2760000  1
   1879   1885   3453   3455     1  0.0000000  0.0000000  2
   1882   1886   3465   3467     1  180.0000771  6.2760000  1
   1882   1886   3465   3467     1  0.0000000  0.0000000  2
   1885   3453   3455   3456     1  0.0000000  2.2175200  1
   1885   3453   3455   3456     1  0.0000000  0.0000000  2
   1885   3453   3455   3456     1  180.0000771  0.6276000  3
   1885   3453   3455   3456     1  180.0000771  2.0920000  4
   1886   3465   3467   3468     1  0.0000000  2.2175200  1
   1886   3465   3467   3468     1  0.0000000  0.0000000  2
   1886   3465   3467   3468     1  180.0000771  0.6276000  3
   1886   3465   3467   3468     1  180.0000771  2.0920000  4
   1887   1885   3453   3455     1  180.0000771  10.4600000  2
   1888   1886   3465   3467     1  180.0000771  10.4600000  2
   1891   1897   1898   1907     1  180.0000771  2.0083200  2
   1891   1897   1898   1907     1  0.0000000  1.2552000  3
   1891   1897   1901   1904     1  180.0000771  2.0083200  2
   1891   1897   1901   1904     1  0.0000000  1.2552000  3
   1894   1891   1897   1898     1  180.0000771  2.0083200  2
   1894   1891   1897   1898     1  0.0000000  1.2552000  3
   1894   1891   1897   1901     1  180.0000771  2.0083200  2
   1894   1891   1897   1901     1  0.0000000  1.2552000  3
   1897   1891   1894   1914     1  0.0000000  0.6508444  3
   1897   1898   1907   1911     1  0.0000000  0.6508444  3
   1897   1901   1904   1910     1  0.0000000  0.6508444  3
   1898   1897   1901   1904     1  180.0000771  2.0083200  2
   1898   1897   1901   1904     1  0.0000000  1.2552000  3
   1898   1907   1911   1913     1  180.0000771  0.0000000  2
   1898   1907   1911   3489     1  0.0000000  0.2928800  2
   1898   1907   1911   3489     1  0.0000000  0.4184000  4
   1901   1897   1898   1907     1  180.0000771  2.0083200  2
   1901   1897   1898   1907     1  0.0000000  1.2552000  3
   1901   1904   1910   3477     1  0.0000000  0.2928800  2
   1901   1904   1910   3477     1  0.0000000  0.4184000  4
   1901   1904   1910   1912     1  180.0000771  0.0000000  2
   1904   1910   3477   3479     1  180.0000771  6.2760000  1
   1904   1910   3477   3479     1  0.0000000  0.0000000  2
   1907   1911   3489   3491     1  180.0000771  6.2760000  1
   1907   1911   3489   3491     1  0.0000000  0.0000000  2
   1910   3477   3479   3480     1  0.0000000  2.2175200  1
   1910   3477   3479   3480     1  0.0000000  0.0000000  2
   1910   3477   3479   3480     1  180.0000771  0.6276000  3
   1910   3477   3479   3480     1  180.0000771  2.0920000  4
   1911   3489   3491   3492     1  0.0000000  2.2175200  1
   1911   3489   3491   3492     1  0.0000000  0.0000000  2
   1911   3489   3491   3492     1  180.0000771  0.6276000  3
   1911   3489   3491   3492     1  180.0000771  2.0920000  4
   1912   1910   3477   3479     1  180.0000771  10.4600000  2
   1913   1911   3489   3491     1  180.0000771  10.4600000  2
   1916   1922   1923   1932     1  180.0000771  2.0083200  2
   1916   1922   1923   1932     1  0.0000000  1.2552000  3
   1916   1922   1926   1929     1  180.0000771  2.0083200  2
   1916   1922   1926   1929     1  0.0000000  1.2552000  3
   1919   1916   1922   1923     1  180.0000771  2.0083200  2
   1919   1916   1922   1923     1  0.0000000  1.2552000  3
   1919   1916   1922   1926     1  180.0000771  2.0083200  2
   1919   1916   1922   1926     1  0.0000000  1.2552000  3
   1922   1916   1919   1939     1  0.0000000  0.6508444  3
   1922   1923   1932   1936     1  0.0000000  0.6508444  3
   1922   1926   1929   1935     1  0.0000000  0.6508444  3
   1923   1922   1926   1929     1  180.0000771  2.0083200  2
   1923   1922   1926   1929     1  0.0000000  1.2552000  3
   1923   1932   1936   1938     1  180.0000771  0.0000000  2
   1923   1932   1936   3513     1  0.0000000  0.2928800  2
   1923   1932   1936   3513     1  0.0000000  0.4184000  4
   1926   1922   1923   1932     1  180.0000771  2.0083200  2
   1926   1922   1923   1932     1  0.0000000  1.2552000  3
   1926   1929   1935   3501     1  0.0000000  0.2928800  2
   1926   1929   1935   3501     1  0.0000000  0.4184000  4
   1926   1929   1935   1937     1  180.0000771  0.0000000  2
   1929   1935   3501   3503     1  180.0000771  6.2760000  1
   1929   1935   3501   3503     1  0.0000000  0.0000000  2
   1932   1936   3513   3515     1  180.0000771  6.2760000  1
   1932   1936   3513   3515     1  0.0000000  0.0000000  2
   1935   3501   3503   3504     1  0.0000000  2.2175200  1
   1935   3501   3503   3504     1  0.0000000  0.0000000  2
   1935   3501   3503   3504     1  180.0000771  0.6276000  3
   1935   3501   3503   3504     1  180.0000771  2.0920000  4
   1936   3513   3515   3516     1  0.0000000  2.2175200  1
   1936   3513   3515   3516     1  0.0000000  0.0000000  2
   1936   3513   3515   3516     1  180.0000771  0.6276000  3
   1936   3513   3515   3516     1  180.0000771  2.0920000  4
   1937   1935   3501   3503     1  180.0000771  10.4600000  2
   1938   1936   3513   3515     1  180.0000771  10.4600000  2
   1941   1947   1948   1957     1  180.0000771  2.0083200  2
   1941   1947   1948   1957     1  0.0000000  1.2552000  3
   1941   1947   1951   1954     1  180.0000771  2.0083200  2
   1941   1947   1951   1954     1  0.0000000  1.2552000  3
   1944   1941   1947   1948     1  180.0000771  2.0083200  2
   1944   1941   1947   1948     1  0.0000000  1.2552000  3
   1944   1941   1947   1951     1  180.0000771  2.0083200  2
   1944   1941   1947   1951     1  0.0000000  1.2552000  3
   1947   1941   1944   1964     1  0.0000000  0.6508444  3
   1947   1948   1957   1961     1  0.0000000  0.6508444  3
   1947   1951   1954   1960     1  0.0000000  0.6508444  3
   1948   1947   1951   1954     1  180.0000771  2.0083200  2
   1948   1947   1951   1954     1  0.0000000  1.2552000  3
   1948   1957   1961   1963     1  180.0000771  0.0000000  2
   1948   1957   1961   3537     1  0.0000000  0.2928800  2
   1948   1957   1961   3537     1  0.0000000  0.4184000  4
   1951   1947   1948   1957     1  180.0000771  2.0083200  2
   1951   1947   1948   1957     1  0.0000000  1.2552000  3
   1951   1954   1960   3525     1  0.0000000  0.2928800  2
   1951   1954   1960   3525     1  0.0000000  0.4184000  4
   1951   1954   1960   1962     1  180.0000771  0.0000000  2
   1954   1960   3525   3527     1  180.0000771  6.2760000  1
   1954   1960   3525   3527     1  0.0000000  0.0000000  2
   1957   1961   3537   3539     1  180.0000771  6.2760000  1
   1957   1961   3537   3539     1  0.0000000  0.0000000  2
   1960   3525   3527   3528     1  0.0000000  2.2175200  1
   1960   3525   3527   3528     1  0.0000000  0.0000000  2
   1960   3525   3527   3528     1  180.0000771  0.6276000  3
   1960   3525   3527   3528     1  180.0000771  2.0920000  4
   1961   3537   3539   3540     1  0.0000000  2.2175200  1
   1961   3537   3539   3540     1  0.0000000  0.0000000  2
   1961   3537   3539   3540     1  180.0000771  0.6276000  3
   1961   3537   3539   3540     1  180.0000771  2.0920000  4
   1962   1960   3525   3527     1  180.0000771  10.4600000  2
   1963   1961   3537   3539     1  180.0000771  10.4600000  2
   1966   1972   1973   1982     1  180.0000771  2.0083200  2
   1966   1972   1973   1982     1  0.0000000  1.2552000  3
   1966   1972   1976   1979     1  180.0000771  2.0083200  2
   1966   1972   1976   1979     1  0.0000000  1.2552000  3
   1969   1966   1972   1973     1  180.0000771  2.0083200  2
   1969   1966   1972   1973     1  0.0000000  1.2552000  3
   1969   1966   1972   1976     1  180.0000771  2.0083200  2
   1969   1966   1972   1976     1  0.0000000  1.2552000  3
   1972   1966   1969   1989     1  0.0000000  0.6508444  3
   1972   1973   1982   1986     1  0.0000000  0.6508444  3
   1972   1976   1979   1985     1  0.0000000  0.6508444  3
   1973   1972   1976   1979     1  180.0000771  2.0083200  2
   1973   1972   1976   1979     1  0.0000000  1.2552000  3
   1973   1982   1986   1988     1  180.0000771  0.0000000  2
   1973   1982   1986   3561     1  0.0000000  0.2928800  2
   1973   1982   1986   3561     1  0.0000000  0.4184000  4
   1976   1972   1973   1982     1  180.0000771  2.0083200  2
   1976   1972   1973   1982     1  0.0000000  1.2552000  3
   1976   1979   1985   3549     1  0.0000000  0.2928800  2
   1976   1979   1985   3549     1  0.0000000  0.4184000  4
   1976   1979   1985   1987     1  180.0000771  0.0000000  2
   1979   1985   3549   3551     1  180.0000771  6.2760000  1
   1979   1985   3549   3551     1  0.0000000  0.0000000  2
   1982   1986   3561   3563     1  180.0000771  6.2760000  1
   1982   1986   3561   3563     1  0.0000000  0.0000000  2
   1985   3549   3551   3552     1  0.0000000  2.2175200  1
   1985   3549   3551   3552     1  0.0000000  0.0000000  2
   1985   3549   3551   3552     1  180.0000771  0.6276000  3
   1985   3549   3551   3552     1  180.0000771  2.0920000  4
   1986   3561   3563   3564     1  0.0000000  2.2175200  1
   1986   3561   3563   3564     1  0.0000000  0.0000000  2
   1986   3561   3563   3564     1  180.0000771  0.6276000  3
   1986   3561   3563   3564     1  180.0000771  2.0920000  4
   1987   1985   3549   3551     1  180.0000771  10.4600000  2
   1988   1986   3561   3563     1  180.0000771  10.4600000  2
   1991   1997   1998   2007     1  180.0000771  2.0083200  2
   1991   1997   1998   2007     1  0.0000000  1.2552000  3
   1991   1997   2001   2004     1  180.0000771  2.0083200  2
   1991   1997   2001   2004     1  0.0000000  1.2552000  3
   1994   1991   1997   1998     1  180.0000771  2.0083200  2
   1994   1991   1997   1998     1  0.0000000  1.2552000  3
   1994   1991   1997   2001     1  180.0000771  2.0083200  2
   1994   1991   1997   2001     1  0.0000000  1.2552000  3
   1997   1991   1994   2014     1  0.0000000  0.6508444  3
   1997   1998   2007   2011     1  0.0000000  0.6508444  3
   1997   2001   2004   2010     1  0.0000000  0.6508444  3
   1998   1997   2001   2004     1  180.0000771  2.0083200  2
   1998   1997   2001   2004     1  0.0000000  1.2552000  3
   1998   2007   2011   2013     1  180.0000771  0.0000000  2
   1998   2007   2011   3585     1  0.0000000  0.2928800  2
   1998   2007   2011   3585     1  0.0000000  0.4184000  4
   2001   1997   1998   2007     1  180.0000771  2.0083200  2
   2001   1997   1998   2007     1  0.0000000  1.2552000  3
   2001   2004   2010   3573     1  0.0000000  0.2928800  2
   2001   2004   2010   3573     1  0.0000000  0.4184000  4
   2001   2004   2010   2012     1  180.0000771  0.0000000  2
   2004   2010   3573   3575     1  180.0000771  6.2760000  1
   2004   2010   3573   3575     1  0.0000000  0.0000000  2
   2007   2011   3585   3587     1  180.0000771  6.2760000  1
   2007   2011   3585   3587     1  0.0000000  0.0000000  2
   2010   3573   3575   3576     1  0.0000000  2.2175200  1
   2010   3573   3575   3576     1  0.0000000  0.0000000  2
   2010   3573   3575   3576     1  180.0000771  0.6276000  3
   2010   3573   3575   3576     1  180.0000771  2.0920000  4
   2011   3585   3587   3588     1  0.0000000  2.2175200  1
   2011   3585   3587   3588     1  0.0000000  0.0000000  2
   2011   3585   3587   3588     1  180.0000771  0.6276000  3
   2011   3585   3587   3588     1  180.0000771  2.0920000  4
   2012   2010   3573   3575     1  180.0000771  10.4600000  2
   2013   2011   3585   3587     1  180.0000771  10.4600000  2
   2016   2022   2023   2032     1  180.0000771  2.0083200  2
   2016   2022   2023   2032     1  0.0000000  1.2552000  3
   2016   2022   2026   2029     1  180.0000771  2.0083200  2
   2016   2022   2026   2029     1  0.0000000  1.2552000  3
   2019   2016   2022   2023     1  180.0000771  2.0083200  2
   2019   2016   2022   2023     1  0.0000000  1.2552000  3
   2019   2016   2022   2026     1  180.0000771  2.0083200  2
   2019   2016   2022   2026     1  0.0000000  1.2552000  3
   2022   2016   2019   2039     1  0.0000000  0.6508444  3
   2022   2023   2032   2036     1  0.0000000  0.6508444  3
   2022   2026   2029   2035     1  0.0000000  0.6508444  3
   2023   2022   2026   2029     1  180.0000771  2.0083200  2
   2023   2022   2026   2029     1  0.0000000  1.2552000  3
   2023   2032   2036   2038     1  180.0000771  0.0000000  2
   2023   2032   2036   3609     1  0.0000000  0.2928800  2
   2023   2032   2036   3609     1  0.0000000  0.4184000  4
   2026   2022   2023   2032     1  180.0000771  2.0083200  2
   2026   2022   2023   2032     1  0.0000000  1.2552000  3
   2026   2029   2035   3597     1  0.0000000  0.2928800  2
   2026   2029   2035   3597     1  0.0000000  0.4184000  4
   2026   2029   2035   2037     1  180.0000771  0.0000000  2
   2029   2035   3597   3599     1  180.0000771  6.2760000  1
   2029   2035   3597   3599     1  0.0000000  0.0000000  2
   2032   2036   3609   3611     1  180.0000771  6.2760000  1
   2032   2036   3609   3611     1  0.0000000  0.0000000  2
   2035   3597   3599   3600     1  0.0000000  2.2175200  1
   2035   3597   3599   3600     1  0.0000000  0.0000000  2
   2035   3597   3599   3600     1  180.0000771  0.6276000  3
   2035   3597   3599   3600     1  180.0000771  2.0920000  4
   2036   3609   3611   3612     1  0.0000000  2.2175200  1
   2036   3609   3611   3612     1  0.0000000  0.0000000  2
   2036   3609   3611   3612     1  180.0000771  0.6276000  3
   2036   3609   3611   3612     1  180.0000771  2.0920000  4
   2037   2035   3597   3599     1  180.0000771  10.4600000  2
   2038   2036   3609   3611     1  180.0000771  10.4600000  2
   2041   2047   2048   2057     1  180.0000771  2.0083200  2
   2041   2047   2048   2057     1  0.0000000  1.2552000  3
   2041   2047   2051   2054     1  180.0000771  2.0083200  2
   2041   2047   2051   2054     1  0.0000000  1.2552000  3
   2044   2041   2047   2048     1  180.0000771  2.0083200  2
   2044   2041   2047   2048     1  0.0000000  1.2552000  3
   2044   2041   2047   2051     1  180.0000771  2.0083200  2
   2044   2041   2047   2051     1  0.0000000  1.2552000  3
   2047   2041   2044   2064     1  0.0000000  0.6508444  3
   2047   2048   2057   2061     1  0.0000000  0.6508444  3
   2047   2051   2054   2060     1  0.0000000  0.6508444  3
   2048   2047   2051   2054     1  180.0000771  2.0083200  2
   2048   2047   2051   2054     1  0.0000000  1.2552000  3
   2048   2057   2061   2063     1  180.0000771  0.0000000  2
   2048   2057   2061   3633     1  0.0000000  0.2928800  2
   2048   2057   2061   3633     1  0.0000000  0.4184000  4
   2051   2047   2048   2057     1  180.0000771  2.0083200  2
   2051   2047   2048   2057     1  0.0000000  1.2552000  3
   2051   2054   2060   3621     1  0.0000000  0.2928800  2
   2051   2054   2060   3621     1  0.0000000  0.4184000  4
   2051   2054   2060   2062     1  180.0000771  0.0000000  2
   2054   2060   3621   3623     1  180.0000771  6.2760000  1
   2054   2060   3621   3623     1  0.0000000  0.0000000  2
   2057   2061   3633   3635     1  180.0000771  6.2760000  1
   2057   2061   3633   3635     1  0.0000000  0.0000000  2
   2060   3621   3623   3624     1  0.0000000  2.2175200  1
   2060   3621   3623   3624     1  0.0000000  0.0000000  2
   2060   3621   3623   3624     1  180.0000771  0.6276000  3
   2060   3621   3623   3624     1  180.0000771  2.0920000  4
   2061   3633   3635   3636     1  0.0000000  2.2175200  1
   2061   3633   3635   3636     1  0.0000000  0.0000000  2
   2061   3633   3635   3636     1  180.0000771  0.6276000  3
   2061   3633   3635   3636     1  180.0000771  2.0920000  4
   2062   2060   3621   3623     1  180.0000771  10.4600000  2
   2063   2061   3633   3635     1  180.0000771  10.4600000  2
   2066   2072   2073   2082     1  180.0000771  2.0083200  2
   2066   2072   2073   2082     1  0.0000000  1.2552000  3
   2066   2072   2076   2079     1  180.0000771  2.0083200  2
   2066   2072   2076   2079     1  0.0000000  1.2552000  3
   2069   2066   2072   2073     1  180.0000771  2.0083200  2
   2069   2066   2072   2073     1  0.0000000  1.2552000  3
   2069   2066   2072   2076     1  180.0000771  2.0083200  2
   2069   2066   2072   2076     1  0.0000000  1.2552000  3
   2072   2066   2069   2089     1  0.0000000  0.6508444  3
   2072   2073   2082   2086     1  0.0000000  0.6508444  3
   2072   2076   2079   2085     1  0.0000000  0.6508444  3
   2073   2072   2076   2079     1  180.0000771  2.0083200  2
   2073   2072   2076   2079     1  0.0000000  1.2552000  3
   2073   2082   2086   2088     1  180.0000771  0.0000000  2
   2073   2082   2086   3657     1  0.0000000  0.2928800  2
   2073   2082   2086   3657     1  0.0000000  0.4184000  4
   2076   2072   2073   2082     1  180.0000771  2.0083200  2
   2076   2072   2073   2082     1  0.0000000  1.2552000  3
   2076   2079   2085   3645     1  0.0000000  0.2928800  2
   2076   2079   2085   3645     1  0.0000000  0.4184000  4
   2076   2079   2085   2087     1  180.0000771  0.0000000  2
   2079   2085   3645   3647     1  180.0000771  6.2760000  1
   2079   2085   3645   3647     1  0.0000000  0.0000000  2
   2082   2086   3657   3659     1  180.0000771  6.2760000  1
   2082   2086   3657   3659     1  0.0000000  0.0000000  2
   2085   3645   3647   3648     1  0.0000000  2.2175200  1
   2085   3645   3647   3648     1  0.0000000  0.0000000  2
   2085   3645   3647   3648     1  180.0000771  0.6276000  3
   2085   3645   3647   3648     1  180.0000771  2.0920000  4
   2086   3657   3659   3660     1  0.0000000  2.2175200  1
   2086   3657   3659   3660     1  0.0000000  0.0000000  2
   2086   3657   3659   3660     1  180.0000771  0.6276000  3
   2086   3657   3659   3660     1  180.0000771  2.0920000  4
   2087   2085   3645   3647     1  180.0000771  10.4600000  2
   2088   2086   3657   3659     1  180.0000771  10.4600000  2
   2091   2097   2098   2107     1  180.0000771  2.0083200  2
   2091   2097   2098   2107     1  0.0000000  1.2552000  3
   2091   2097   2101   2104     1  180.0000771  2.0083200  2
   2091   2097   2101   2104     1  0.0000000  1.2552000  3
   2094   2091   2097   2098     1  180.0000771  2.0083200  2
   2094   2091   2097   2098     1  0.0000000  1.2552000  3
   2094   2091   2097   2101     1  180.0000771  2.0083200  2
   2094   2091   2097   2101     1  0.0000000  1.2552000  3
   2097   2091   2094   2114     1  0.0000000  0.6508444  3
   2097   2098   2107   2111     1  0.0000000  0.6508444  3
   2097   2101   2104   2110     1  0.0000000  0.6508444  3
   2098   2097   2101   2104     1  180.0000771  2.0083200  2
   2098   2097   2101   2104     1  0.0000000  1.2552000  3
   2098   2107   2111   2113     1  180.0000771  0.0000000  2
   2098   2107   2111   3681     1  0.0000000  0.2928800  2
   2098   2107   2111   3681     1  0.0000000  0.4184000  4
   2101   2097   2098   2107     1  180.0000771  2.0083200  2
   2101   2097   2098   2107     1  0.0000000  1.2552000  3
   2101   2104   2110   3669     1  0.0000000  0.2928800  2
   2101   2104   2110   3669     1  0.0000000  0.4184000  4
   2101   2104   2110   2112     1  180.0000771  0.0000000  2
   2104   2110   3669   3671     1  180.0000771  6.2760000  1
   2104   2110   3669   3671     1  0.0000000  0.0000000  2
   2107   2111   3681   3683     1  180.0000771  6.2760000  1
   2107   2111   3681   3683     1  0.0000000  0.0000000  2
   2110   3669   3671   3672     1  0.0000000  2.2175200  1
   2110   3669   3671   3672     1  0.0000000  0.0000000  2
   2110   3669   3671   3672     1  180.0000771  0.6276000  3
   2110   3669   3671   3672     1  180.0000771  2.0920000  4
   2111   3681   3683   3684     1  0.0000000  2.2175200  1
   2111   3681   3683   3684     1  0.0000000  0.0000000  2
   2111   3681   3683   3684     1  180.0000771  0.6276000  3
   2111   3681   3683   3684     1  180.0000771  2.0920000  4
   2112   2110   3669   3671     1  180.0000771  10.4600000  2
   2113   2111   3681   3683     1  180.0000771  10.4600000  2
   2116   2122   2123   2132     1  180.0000771  2.0083200  2
   2116   2122   2123   2132     1  0.0000000  1.2552000  3
   2116   2122   2126   2129     1  180.0000771  2.0083200  2
   2116   2122   2126   2129     1  0.0000000  1.2552000  3
   2119   2116   2122   2123     1  180.0000771  2.0083200  2
   2119   2116   2122   2123     1  0.0000000  1.2552000  3
   2119   2116   2122   2126     1  180.0000771  2.0083200  2
   2119   2116   2122   2126     1  0.0000000  1.2552000  3
   2122   2116   2119   2139     1  0.0000000  0.6508444  3
   2122   2123   2132   2136     1  0.0000000  0.6508444  3
   2122   2126   2129   2135     1  0.0000000  0.6508444  3
   2123   2122   2126   2129     1  180.0000771  2.0083200  2
   2123   2122   2126   2129     1  0.0000000  1.2552000  3
   2123   2132   2136   2138     1  180.0000771  0.0000000  2
   2123   2132   2136   3705     1  0.0000000  0.2928800  2
   2123   2132   2136   3705     1  0.0000000  0.4184000  4
   2126   2122   2123   2132     1  180.0000771  2.0083200  2
   2126   2122   2123   2132     1  0.0000000  1.2552000  3
   2126   2129   2135   3693     1  0.0000000  0.2928800  2
   2126   2129   2135   3693     1  0.0000000  0.4184000  4
   2126   2129   2135   2137     1  180.0000771  0.0000000  2
   2129   2135   3693   3695     1  180.0000771  6.2760000  1
   2129   2135   3693   3695     1  0.0000000  0.0000000  2
   2132   2136   3705   3707     1  180.0000771  6.2760000  1
   2132   2136   3705   3707     1  0.0000000  0.0000000  2
   2135   3693   3695   3696     1  0.0000000  2.2175200  1
   2135   3693   3695   3696     1  0.0000000  0.0000000  2
   2135   3693   3695   3696     1  180.0000771  0.6276000  3
   2135   3693   3695   3696     1  180.0000771  2.0920000  4
   2136   3705   3707   3708     1  0.0000000  2.2175200  1
   2136   3705   3707   3708     1  0.0000000  0.0000000  2
   2136   3705   3707   3708     1  180.0000771  0.6276000  3
   2136   3705   3707   3708     1  180.0000771  2.0920000  4
   2137   2135   3693   3695     1  180.0000771  10.4600000  2
   2138   2136   3705   3707     1  180.0000771  10.4600000  2
   2141   2147   2148   2157     1  180.0000771  2.0083200  2
   2141   2147   2148   2157     1  0.0000000  1.2552000  3
   2141   2147   2151   2154     1  180.0000771  2.0083200  2
   2141   2147   2151   2154     1  0.0000000  1.2552000  3
   2144   2141   2147   2148     1  180.0000771  2.0083200  2
   2144   2141   2147   2148     1  0.0000000  1.2552000  3
   2144   2141   2147   2151     1  180.0000771  2.0083200  2
   2144   2141   2147   2151     1  0.0000000  1.2552000  3
   2147   2141   2144   2164     1  0.0000000  0.6508444  3
   2147   2148   2157   2161     1  0.0000000  0.6508444  3
   2147   2151   2154   2160     1  0.0000000  0.6508444  3
   2148   2147   2151   2154     1  180.0000771  2.0083200  2
   2148   2147   2151   2154     1  0.0000000  1.2552000  3
   2148   2157   2161   2163     1  180.0000771  0.0000000  2
   2148   2157   2161   3729     1  0.0000000  0.2928800  2
   2148   2157   2161   3729     1  0.0000000  0.4184000  4
   2151   2147   2148   2157     1  180.0000771  2.0083200  2
   2151   2147   2148   2157     1  0.0000000  1.2552000  3
   2151   2154   2160   3717     1  0.0000000  0.2928800  2
   2151   2154   2160   3717     1  0.0000000  0.4184000  4
   2151   2154   2160   2162     1  180.0000771  0.0000000  2
   2154   2160   3717   3719     1  180.0000771  6.2760000  1
   2154   2160   3717   3719     1  0.0000000  0.0000000  2
   2157   2161   3729   3731     1  180.0000771  6.2760000  1
   2157   2161   3729   3731     1  0.0000000  0.0000000  2
   2160   3717   3719   3720     1  0.0000000  2.2175200  1
   2160   3717   3719   3720     1  0.0000000  0.0000000  2
   2160   3717   3719   3720     1  180.0000771  0.6276000  3
   2160   3717   3719   3720     1  180.0000771  2.0920000  4
   2161   3729   3731   3732     1  0.0000000  2.2175200  1
   2161   3729   3731   3732     1  0.0000000  0.0000000  2
   2161   3729   3731   3732     1  180.0000771  0.6276000  3
   2161   3729   3731   3732     1  180.0000771  2.0920000  4
   2162   2160   3717   3719     1  180.0000771  10.4600000  2
   2163   2161   3729   3731     1  180.0000771  10.4600000  2
   2166   2172   2173   2182     1  180.0000771  2.0083200  2
   2166   2172   2173   2182     1  0.0000000  1.2552000  3
   2166   2172   2176   2179     1  180.0000771  2.0083200  2
   2166   2172   2176   2179     1  0.0000000  1.2552000  3
   2169   2166   2172   2173     1  180.0000771  2.0083200  2
   2169   2166   2172   2173     1  0.0000000  1.2552000  3
   2169   2166   2172   2176     1  180.0000771  2.0083200  2
   2169   2166   2172   2176     1  0.0000000  1.2552000  3
   2172   2166   2169   2189     1  0.0000000  0.6508444  3
   2172   2173   2182   2186     1  0.0000000  0.6508444  3
   2172   2176   2179   2185     1  0.0000000  0.6508444  3
   2173   2172   2176   2179     1  180.0000771  2.0083200  2
   2173   2172   2176   2179     1  0.0000000  1.2552000  3
   2173   2182   2186   2188     1  180.0000771  0.0000000  2
   2173   2182   2186   3753     1  0.0000000  0.2928800  2
   2173   2182   2186   3753     1  0.0000000  0.4184000  4
   2176   2172   2173   2182     1  180.0000771  2.0083200  2
   2176   2172   2173   2182     1  0.0000000  1.2552000  3
   2176   2179   2185   3741     1  0.0000000  0.2928800  2
   2176   2179   2185   3741     1  0.0000000  0.4184000  4
   2176   2179   2185   2187     1  180.0000771  0.0000000  2
   2179   2185   3741   3743     1  180.0000771  6.2760000  1
   2179   2185   3741   3743     1  0.0000000  0.0000000  2
   2182   2186   3753   3755     1  180.0000771  6.2760000  1
   2182   2186   3753   3755     1  0.0000000  0.0000000  2
   2185   3741   3743   3744     1  0.0000000  2.2175200  1
   2185   3741   3743   3744     1  0.0000000  0.0000000  2
   2185   3741   3743   3744     1  180.0000771  0.6276000  3
   2185   3741   3743   3744     1  180.0000771  2.0920000  4
   2186   3753   3755   3756     1  0.0000000  2.2175200  1
   2186   3753   3755   3756     1  0.0000000  0.0000000  2
   2186   3753   3755   3756     1  180.0000771  0.6276000  3
   2186   3753   3755   3756     1  180.0000771  2.0920000  4
   2187   2185   3741   3743     1  180.0000771  10.4600000  2
   2188   2186   3753   3755     1  180.0000771  10.4600000  2
   2191   2197   2198   2207     1  180.0000771  2.0083200  2
   2191   2197   2198   2207     1  0.0000000  1.2552000  3
   2191   2197   2201   2204     1  180.0000771  2.0083200  2
   2191   2197   2201   2204     1  0.0000000  1.2552000  3
   2194   2191   2197   2198     1  180.0000771  2.0083200  2
   2194   2191   2197   2198     1  0.0000000  1.2552000  3
   2194   2191   2197   2201     1  180.0000771  2.0083200  2
   2194   2191   2197   2201     1  0.0000000  1.2552000  3
   2197   2191   2194   2214     1  0.0000000  0.6508444  3
   2197   2198   2207   2211     1  0.0000000  0.6508444  3
   2197   2201   2204   2210     1  0.0000000  0.6508444  3
   2198   2197   2201   2204     1  180.0000771  2.0083200  2
   2198   2197   2201   2204     1  0.0000000  1.2552000  3
   2198   2207   2211   2213     1  180.0000771  0.0000000  2
   2198   2207   2211   3777     1  0.0000000  0.2928800  2
   2198   2207   2211   3777     1  0.0000000  0.4184000  4
   2201   2197   2198   2207     1  180.0000771  2.0083200  2
   2201   2197   2198   2207     1  0.0000000  1.2552000  3
   2201   2204   2210   3765     1  0.0000000  0.2928800  2
   2201   2204   2210   3765     1  0.0000000  0.4184000  4
   2201   2204   2210   2212     1  180.0000771  0.0000000  2
   2204   2210   3765   3767     1  180.0000771  6.2760000  1
   2204   2210   3765   3767     1  0.0000000  0.0000000  2
   2207   2211   3777   3779     1  180.0000771  6.2760000  1
   2207   2211   3777   3779     1  0.0000000  0.0000000  2
   2210   3765   3767   3768     1  0.0000000  2.2175200  1
   2210   3765   3767   3768     1  0.0000000  0.0000000  2
   2210   3765   3767   3768     1  180.0000771  0.6276000  3
   2210   3765   3767   3768     1  180.0000771  2.0920000  4
   2211   3777   3779   3780     1  0.0000000  2.2175200  1
   2211   3777   3779   3780     1  0.0000000  0.0000000  2
   2211   3777   3779   3780     1  180.0000771  0.6276000  3
   2211   3777   3779   3780     1  180.0000771  2.0920000  4
   2212   2210   3765   3767     1  180.0000771  10.4600000  2
   2213   2211   3777   3779     1  180.0000771  10.4600000  2
   2216   2222   2223   2232     1  180.0000771  2.0083200  2
   2216   2222   2223   2232     1  0.0000000  1.2552000  3
   2216   2222   2226   2229     1  180.0000771  2.0083200  2
   2216   2222   2226   2229     1  0.0000000  1.2552000  3
   2219   2216   2222   2223     1  180.0000771  2.0083200  2
   2219   2216   2222   2223     1  0.0000000  1.2552000  3
   2219   2216   2222   2226     1  180.0000771  2.0083200  2
   2219   2216   2222   2226     1  0.0000000  1.2552000  3
   2222   2216   2219   2239     1  0.0000000  0.6508444  3
   2222   2223   2232   2236     1  0.0000000  0.6508444  3
   2222   2226   2229   2235     1  0.0000000  0.6508444  3
   2223   2222   2226   2229     1  180.0000771  2.0083200  2
   2223   2222   2226   2229     1  0.0000000  1.2552000  3
   2223   2232   2236   2238     1  180.0000771  0.0000000  2
   2223   2232   2236   3801     1  0.0000000  0.2928800  2
   2223   2232   2236   3801     1  0.0000000  0.4184000  4
   2226   2222   2223   2232     1  180.0000771  2.0083200  2
   2226   2222   2223   2232     1  0.0000000  1.2552000  3
   2226   2229   2235   3789     1  0.0000000  0.2928800  2
   2226   2229   2235   3789     1  0.0000000  0.4184000  4
   2226   2229   2235   2237     1  180.0000771  0.0000000  2
   2229   2235   3789   3791     1  180.0000771  6.2760000  1
   2229   2235   3789   3791     1  0.0000000  0.0000000  2
   2232   2236   3801   3803     1  180.0000771  6.2760000  1
   2232   2236   3801   3803     1  0.0000000  0.0000000  2
   2235   3789   3791   3792     1  0.0000000  2.2175200  1
   2235   3789   3791   3792     1  0.0000000  0.0000000  2
   2235   3789   3791   3792     1  180.0000771  0.6276000  3
   2235   3789   3791   3792     1  180.0000771  2.0920000  4
   2236   3801   3803   3804     1  0.0000000  2.2175200  1
   2236   3801   3803   3804     1  0.0000000  0.0000000  2
   2236   3801   3803   3804     1  180.0000771  0.6276000  3
   2236   3801   3803   3804     1  180.0000771  2.0920000  4
   2237   2235   3789   3791     1  180.0000771  10.4600000  2
   2238   2236   3801   3803     1  180.0000771  10.4600000  2
   2241   2247   2248   2257     1  180.0000771  2.0083200  2
   2241   2247   2248   2257     1  0.0000000  1.2552000  3
   2241   2247   2251   2254     1  180.0000771  2.0083200  2
   2241   2247   2251   2254     1  0.0000000  1.2552000  3
   2244   2241   2247   2248     1  180.0000771  2.0083200  2
   2244   2241   2247   2248     1  0.0000000  1.2552000  3
   2244   2241   2247   2251     1  180.0000771  2.0083200  2
   2244   2241   2247   2251     1  0.0000000  1.2552000  3
   2247   2241   2244   2264     1  0.0000000  0.6508444  3
   2247   2248   2257   2261     1  0.0000000  0.6508444  3
   2247   2251   2254   2260     1  0.0000000  0.6508444  3
   2248   2247   2251   2254     1  180.0000771  2.0083200  2
   2248   2247   2251   2254     1  0.0000000  1.2552000  3
   2248   2257   2261   2263     1  180.0000771  0.0000000  2
   2248   2257   2261   3825     1  0.0000000  0.2928800  2
   2248   2257   2261   3825     1  0.0000000  0.4184000  4
   2251   2247   2248   2257     1  180.0000771  2.0083200  2
   2251   2247   2248   2257     1  0.0000000  1.2552000  3
   2251   2254   2260   3813     1  0.0000000  0.2928800  2
   2251   2254   2260   3813     1  0.0000000  0.4184000  4
   2251   2254   2260   2262     1  180.0000771  0.0000000  2
   2254   2260   3813   3815     1  180.0000771  6.2760000  1
   2254   2260   3813   3815     1  0.0000000  0.0000000  2
   2257   2261   3825   3827     1  180.0000771  6.2760000  1
   2257   2261   3825   3827     1  0.0000000  0.0000000  2
   2260   3813   3815   3816     1  0.0000000  2.2175200  1
   2260   3813   3815   3816     1  0.0000000  0.0000000  2
   2260   3813   3815   3816     1  180.0000771  0.6276000  3
   2260   3813   3815   3816     1  180.0000771  2.0920000  4
   2261   3825   3827   3828     1  0.0000000  2.2175200  1
   2261   3825   3827   3828     1  0.0000000  0.0000000  2
   2261   3825   3827   3828     1  180.0000771  0.6276000  3
   2261   3825   3827   3828     1  180.0000771  2.0920000  4
   2262   2260   3813   3815     1  180.0000771  10.4600000  2
   2263   2261   3825   3827     1  180.0000771  10.4600000  2
   2266   2272   2273   2282     1  180.0000771  2.0083200  2
   2266   2272   2273   2282     1  0.0000000  1.2552000  3
   2266   2272   2276   2279     1  180.0000771  2.0083200  2
   2266   2272   2276   2279     1  0.0000000  1.2552000  3
   2269   2266   2272   2273     1  180.0000771  2.0083200  2
   2269   2266   2272   2273     1  0.0000000  1.2552000  3
   2269   2266   2272   2276     1  180.0000771  2.0083200  2
   2269   2266   2272   2276     1  0.0000000  1.2552000  3
   2272   2266   2269   2289     1  0.0000000  0.6508444  3
   2272   2273   2282   2286     1  0.0000000  0.6508444  3
   2272   2276   2279   2285     1  0.0000000  0.6508444  3
   2273   2272   2276   2279     1  180.0000771  2.0083200  2
   2273   2272   2276   2279     1  0.0000000  1.2552000  3
   2273   2282   2286   2288     1  180.0000771  0.0000000  2
   2273   2282   2286   3849     1  0.0000000  0.2928800  2
   2273   2282   2286   3849     1  0.0000000  0.4184000  4
   2276   2272   2273   2282     1  180.0000771  2.0083200  2
   2276   2272   2273   2282     1  0.0000000  1.2552000  3
   2276   2279   2285   3837     1  0.0000000  0.2928800  2
   2276   2279   2285   3837     1  0.0000000  0.4184000  4
   2276   2279   2285   2287     1  180.0000771  0.0000000  2
   2279   2285   3837   3839     1  180.0000771  6.2760000  1
   2279   2285   3837   3839     1  0.0000000  0.0000000  2
   2282   2286   3849   3851     1  180.0000771  6.2760000  1
   2282   2286   3849   3851     1  0.0000000  0.0000000  2
   2285   3837   3839   3840     1  0.0000000  2.2175200  1
   2285   3837   3839   3840     1  0.0000000  0.0000000  2
   2285   3837   3839   3840     1  180.0000771  0.6276000  3
   2285   3837   3839   3840     1  180.0000771  2.0920000  4
   2286   3849   3851   3852     1  0.0000000  2.2175200  1
   2286   3849   3851   3852     1  0.0000000  0.0000000  2
   2286   3849   3851   3852     1  180.0000771  0.6276000  3
   2286   3849   3851   3852     1  180.0000771  2.0920000  4
   2287   2285   3837   3839     1  180.0000771  10.4600000  2
   2288   2286   3849   3851     1  180.0000771  10.4600000  2
   2291   2297   2298   2307     1  180.0000771  2.0083200  2
   2291   2297   2298   2307     1  0.0000000  1.2552000  3
   2291   2297   2301   2304     1  180.0000771  2.0083200  2
   2291   2297   2301   2304     1  0.0000000  1.2552000  3
   2294   2291   2297   2298     1  180.0000771  2.0083200  2
   2294   2291   2297   2298     1  0.0000000  1.2552000  3
   2294   2291   2297   2301     1  180.0000771  2.0083200  2
   2294   2291   2297   2301     1  0.0000000  1.2552000  3
   2297   2291   2294   2314     1  0.0000000  0.6508444  3
   2297   2298   2307   2311     1  0.0000000  0.6508444  3
   2297   2301   2304   2310     1  0.0000000  0.6508444  3
   2298   2297   2301   2304     1  180.0000771  2.0083200  2
   2298   2297   2301   2304     1  0.0000000  1.2552000  3
   2298   2307   2311   2313     1  180.0000771  0.0000000  2
   2298   2307   2311   3873     1  0.0000000  0.2928800  2
   2298   2307   2311   3873     1  0.0000000  0.4184000  4
   2301   2297   2298   2307     1  180.0000771  2.0083200  2
   2301   2297   2298   2307     1  0.0000000  1.2552000  3
   2301   2304   2310   3861     1  0.0000000  0.2928800  2
   2301   2304   2310   3861     1  0.0000000  0.4184000  4
   2301   2304   2310   2312     1  180.0000771  0.0000000  2
   2304   2310   3861   3863     1  180.0000771  6.2760000  1
   2304   2310   3861   3863     1  0.0000000  0.0000000  2
   2307   2311   3873   3875     1  180.0000771  6.2760000  1
   2307   2311   3873   3875     1  0.0000000  0.0000000  2
   2310   3861   3863   3864     1  0.0000000  2.2175200  1
   2310   3861   3863   3864     1  0.0000000  0.0000000  2
   2310   3861   3863   3864     1  180.0000771  0.6276000  3
   2310   3861   3863   3864     1  180.0000771  2.0920000  4
   2311   3873   3875   3876     1  0.0000000  2.2175200  1
   2311   3873   3875   3876     1  0.0000000  0.0000000  2
   2311   3873   3875   3876     1  180.0000771  0.6276000  3
   2311   3873   3875   3876     1  180.0000771  2.0920000  4
   2312   2310   3861   3863     1  180.0000771  10.4600000  2
   2313   2311   3873   3875     1  180.0000771  10.4600000  2
   2316   2322   2323   2332     1  180.0000771  2.0083200  2
   2316   2322   2323   2332     1  0.0000000  1.2552000  3
   2316   2322   2326   2329     1  180.0000771  2.0083200  2
   2316   2322   2326   2329     1  0.0000000  1.2552000  3
   2319   2316   2322   2323     1  180.0000771  2.0083200  2
   2319   2316   2322   2323     1  0.0000000  1.2552000  3
   2319   2316   2322   2326     1  180.0000771  2.0083200  2
   2319   2316   2322   2326     1  0.0000000  1.2552000  3
   2322   2316   2319   2339     1  0.0000000  0.6508444  3
   2322   2323   2332   2336     1  0.0000000  0.6508444  3
   2322   2326   2329   2335     1  0.0000000  0.6508444  3
   2323   2322   2326   2329     1  180.0000771  2.0083200  2
   2323   2322   2326   2329     1  0.0000000  1.2552000  3
   2323   2332   2336   2338     1  180.0000771  0.0000000  2
   2323   2332   2336   3897     1  0.0000000  0.2928800  2
   2323   2332   2336   3897     1  0.0000000  0.4184000  4
   2326   2322   2323   2332     1  180.0000771  2.0083200  2
   2326   2322   2323   2332     1  0.0000000  1.2552000  3
   2326   2329   2335   3885     1  0.0000000  0.2928800  2
   2326   2329   2335   3885     1  0.0000000  0.4184000  4
   2326   2329   2335   2337     1  180.0000771  0.0000000  2
   2329   2335   3885   3887     1  180.0000771  6.2760000  1
   2329   2335   3885   3887     1  0.0000000  0.0000000  2
   2332   2336   3897   3899     1  180.0000771  6.2760000  1
   2332   2336   3897   3899     1  0.0000000  0.0000000  2
   2335   3885   3887   3888     1  0.0000000  2.2175200  1
   2335   3885   3887   3888     1  0.0000000  0.0000000  2
   2335   3885   3887   3888     1  180.0000771  0.6276000  3
   2335   3885   3887   3888     1  180.0000771  2.0920000  4
   2336   3897   3899   3900     1  0.0000000  2.2175200  1
   2336   3897   3899   3900     1  0.0000000  0.0000000  2
   2336   3897   3899   3900     1  180.0000771  0.6276000  3
   2336   3897   3899   3900     1  180.0000771  2.0920000  4
   2337   2335   3885   3887     1  180.0000771  10.4600000  2
   2338   2336   3897   3899     1  180.0000771  10.4600000  2
   2341   2347   2348   2357     1  180.0000771  2.0083200  2
   2341   2347   2348   2357     1  0.0000000  1.2552000  3
   2341   2347   2351   2354     1  180.0000771  2.0083200  2
   2341   2347   2351   2354     1  0.0000000  1.2552000  3
   2344   2341   2347   2348     1  180.0000771  2.0083200  2
   2344   2341   2347   2348     1  0.0000000  1.2552000  3
   2344   2341   2347   2351     1  180.0000771  2.0083200  2
   2344   2341   2347   2351     1  0.0000000  1.2552000  3
   2347   2341   2344   2364     1  0.0000000  0.6508444  3
   2347   2348   2357   2361     1  0.0000000  0.6508444  3
   2347   2351   2354   2360     1  0.0000000  0.6508444  3
   2348   2347   2351   2354     1  180.0000771  2.0083200  2
   2348   2347   2351   2354     1  0.0000000  1.2552000  3
   2348   2357   2361   2363     1  180.0000771  0.0000000  2
   2348   2357   2361   3921     1  0.0000000  0.2928800  2
   2348   2357   2361   3921     1  0.0000000  0.4184000  4
   2351   2347   2348   2357     1  180.0000771  2.0083200  2
   2351   2347   2348   2357     1  0.0000000  1.2552000  3
   2351   2354   2360   3909     1  0.0000000  0.2928800  2
   2351   2354   2360   3909     1  0.0000000  0.4184000  4
   2351   2354   2360   2362     1  180.0000771  0.0000000  2
   2354   2360   3909   3911     1  180.0000771  6.2760000  1
   2354   2360   3909   3911     1  0.0000000  0.0000000  2
   2357   2361   3921   3923     1  180.0000771  6.2760000  1
   2357   2361   3921   3923     1  0.0000000  0.0000000  2
   2360   3909   3911   3912     1  0.0000000  2.2175200  1
   2360   3909   3911   3912     1  0.0000000  0.0000000  2
   2360   3909   3911   3912     1  180.0000771  0.6276000  3
   2360   3909   3911   3912     1  180.0000771  2.0920000  4
   2361   3921   3923   3924     1  0.0000000  2.2175200  1
   2361   3921   3923   3924     1  0.0000000  0.0000000  2
   2361   3921   3923   3924     1  180.0000771  0.6276000  3
   2361   3921   3923   3924     1  180.0000771  2.0920000  4
   2362   2360   3909   3911     1  180.0000771  10.4600000  2
   2363   2361   3921   3923     1  180.0000771  10.4600000  2
   2366   2372   2373   2382     1  180.0000771  2.0083200  2
   2366   2372   2373   2382     1  0.0000000  1.2552000  3
   2366   2372   2376   2379     1  180.0000771  2.0083200  2
   2366   2372   2376   2379     1  0.0000000  1.2552000  3
   2369   2366   2372   2373     1  180.0000771  2.0083200  2
   2369   2366   2372   2373     1  0.0000000  1.2552000  3
   2369   2366   2372   2376     1  180.0000771  2.0083200  2
   2369   2366   2372   2376     1  0.0000000  1.2552000  3
   2372   2366   2369   2389     1  0.0000000  0.6508444  3
   2372   2373   2382   2386     1  0.0000000  0.6508444  3
   2372   2376   2379   2385     1  0.0000000  0.6508444  3
   2373   2372   2376   2379     1  180.0000771  2.0083200  2
   2373   2372   2376   2379     1  0.0000000  1.2552000  3
   2373   2382   2386   2388     1  180.0000771  0.0000000  2
   2373   2382   2386   3945     1  0.0000000  0.2928800  2
   2373   2382   2386   3945     1  0.0000000  0.4184000  4
   2376   2372   2373   2382     1  180.0000771  2.0083200  2
   2376   2372   2373   2382     1  0.0000000  1.2552000  3
   2376   2379   2385   3933     1  0.0000000  0.2928800  2
   2376   2379   2385   3933     1  0.0000000  0.4184000  4
   2376   2379   2385   2387     1  180.0000771  0.0000000  2
   2379   2385   3933   3935     1  180.0000771  6.2760000  1
   2379   2385   3933   3935     1  0.0000000  0.0000000  2
   2382   2386   3945   3947     1  180.0000771  6.2760000  1
   2382   2386   3945   3947     1  0.0000000  0.0000000  2
   2385   3933   3935   3936     1  0.0000000  2.2175200  1
   2385   3933   3935   3936     1  0.0000000  0.0000000  2
   2385   3933   3935   3936     1  180.0000771  0.6276000  3
   2385   3933   3935   3936     1  180.0000771  2.0920000  4
   2386   3945   3947   3948     1  0.0000000  2.2175200  1
   2386   3945   3947   3948     1  0.0000000  0.0000000  2
   2386   3945   3947   3948     1  180.0000771  0.6276000  3
   2386   3945   3947   3948     1  180.0000771  2.0920000  4
   2387   2385   3933   3935     1  180.0000771  10.4600000  2
   2388   2386   3945   3947     1  180.0000771  10.4600000  2
   2391   2397   2398   2407     1  180.0000771  2.0083200  2
   2391   2397   2398   2407     1  0.0000000  1.2552000  3
   2391   2397   2401   2404     1  180.0000771  2.0083200  2
   2391   2397   2401   2404     1  0.0000000  1.2552000  3
   2394   2391   2397   2398     1  180.0000771  2.0083200  2
   2394   2391   2397   2398     1  0.0000000  1.2552000  3
   2394   2391   2397   2401     1  180.0000771  2.0083200  2
   2394   2391   2397   2401     1  0.0000000  1.2552000  3
   2397   2391   2394   2414     1  0.0000000  0.6508444  3
   2397   2398   2407   2411     1  0.0000000  0.6508444  3
   2397   2401   2404   2410     1  0.0000000  0.6508444  3
   2398   2397   2401   2404     1  180.0000771  2.0083200  2
   2398   2397   2401   2404     1  0.0000000  1.2552000  3
   2398   2407   2411   2413     1  180.0000771  0.0000000  2
   2398   2407   2411   3969     1  0.0000000  0.2928800  2
   2398   2407   2411   3969     1  0.0000000  0.4184000  4
   2401   2397   2398   2407     1  180.0000771  2.0083200  2
   2401   2397   2398   2407     1  0.0000000  1.2552000  3
   2401   2404   2410   3957     1  0.0000000  0.2928800  2
   2401   2404   2410   3957     1  0.0000000  0.4184000  4
   2401   2404   2410   2412     1  180.0000771  0.0000000  2
   2404   2410   3957   3959     1  180.0000771  6.2760000  1
   2404   2410   3957   3959     1  0.0000000  0.0000000  2
   2407   2411   3969   3971     1  180.0000771  6.2760000  1
   2407   2411   3969   3971     1  0.0000000  0.0000000  2
   2410   3957   3959   3960     1  0.0000000  2.2175200  1
   2410   3957   3959   3960     1  0.0000000  0.0000000  2
   2410   3957   3959   3960     1  180.0000771  0.6276000  3
   2410   3957   3959   3960     1  180.0000771  2.0920000  4
   2411   3969   3971   3972     1  0.0000000  2.2175200  1
   2411   3969   3971   3972     1  0.0000000  0.0000000  2
   2411   3969   3971   3972     1  180.0000771  0.6276000  3
   2411   3969   3971   3972     1  180.0000771  2.0920000  4
   2412   2410   3957   3959     1  180.0000771  10.4600000  2
   2413   2411   3969   3971     1  180.0000771  10.4600000  2
   2416   2422   2423   2432     1  180.0000771  2.0083200  2
   2416   2422   2423   2432     1  0.0000000  1.2552000  3
   2416   2422   2426   2429     1  180.0000771  2.0083200  2
   2416   2422   2426   2429     1  0.0000000  1.2552000  3
   2419   2416   2422   2423     1  180.0000771  2.0083200  2
   2419   2416   2422   2423     1  0.0000000  1.2552000  3
   2419   2416   2422   2426     1  180.0000771  2.0083200  2
   2419   2416   2422   2426     1  0.0000000  1.2552000  3
   2422   2416   2419   2439     1  0.0000000  0.6508444  3
   2422   2423   2432   2436     1  0.0000000  0.6508444  3
   2422   2426   2429   2435     1  0.0000000  0.6508444  3
   2423   2422   2426   2429     1  180.0000771  2.0083200  2
   2423   2422   2426   2429     1  0.0000000  1.2552000  3
   2423   2432   2436   2438     1  180.0000771  0.0000000  2
   2423   2432   2436   3993     1  0.0000000  0.2928800  2
   2423   2432   2436   3993     1  0.0000000  0.4184000  4
   2426   2422   2423   2432     1  180.0000771  2.0083200  2
   2426   2422   2423   2432     1  0.0000000  1.2552000  3
   2426   2429   2435   3981     1  0.0000000  0.2928800  2
   2426   2429   2435   3981     1  0.0000000  0.4184000  4
   2426   2429   2435   2437     1  180.0000771  0.0000000  2
   2429   2435   3981   3983     1  180.0000771  6.2760000  1
   2429   2435   3981   3983     1  0.0000000  0.0000000  2
   2432   2436   3993   3995     1  180.0000771  6.2760000  1
   2432   2436   3993   3995     1  0.0000000  0.0000000  2
   2435   3981   3983   3984     1  0.0000000  2.2175200  1
   2435   3981   3983   3984     1  0.0000000  0.0000000  2
   2435   3981   3983   3984     1  180.0000771  0.6276000  3
   2435   3981   3983   3984     1  180.0000771  2.0920000  4
   2436   3993   3995   3996     1  0.0000000  2.2175200  1
   2436   3993   3995   3996     1  0.0000000  0.0000000  2
   2436   3993   3995   3996     1  180.0000771  0.6276000  3
   2436   3993   3995   3996     1  180.0000771  2.0920000  4
   2437   2435   3981   3983     1  180.0000771  10.4600000  2
   2438   2436   3993   3995     1  180.0000771  10.4600000  2
   2441   2447   2448   2457     1  180.0000771  2.0083200  2
   2441   2447   2448   2457     1  0.0000000  1.2552000  3
   2441   2447   2451   2454     1  180.0000771  2.0083200  2
   2441   2447   2451   2454     1  0.0000000  1.2552000  3
   2444   2441   2447   2448     1  180.0000771  2.0083200  2
   2444   2441   2447   2448     1  0.0000000  1.2552000  3
   2444   2441   2447   2451     1  180.0000771  2.0083200  2
   2444   2441   2447   2451     1  0.0000000  1.2552000  3
   2447   2441   2444   2464     1  0.0000000  0.6508444  3
   2447   2448   2457   2461     1  0.0000000  0.6508444  3
   2447   2451   2454   2460     1  0.0000000  0.6508444  3
   2448   2447   2451   2454     1  180.0000771  2.0083200  2
   2448   2447   2451   2454     1  0.0000000  1.2552000  3
   2448   2457   2461   2463     1  180.0000771  0.0000000  2
   2448   2457   2461   4017     1  0.0000000  0.2928800  2
   2448   2457   2461   4017     1  0.0000000  0.4184000  4
   2451   2447   2448   2457     1  180.0000771  2.0083200  2
   2451   2447   2448   2457     1  0.0000000  1.2552000  3
   2451   2454   2460   4005     1  0.0000000  0.2928800  2
   2451   2454   2460   4005     1  0.0000000  0.4184000  4
   2451   2454   2460   2462     1  180.0000771  0.0000000  2
   2454   2460   4005   4007     1  180.0000771  6.2760000  1
   2454   2460   4005   4007     1  0.0000000  0.0000000  2
   2457   2461   4017   4019     1  180.0000771  6.2760000  1
   2457   2461   4017   4019     1  0.0000000  0.0000000  2
   2460   4005   4007   4008     1  0.0000000  2.2175200  1
   2460   4005   4007   4008     1  0.0000000  0.0000000  2
   2460   4005   4007   4008     1  180.0000771  0.6276000  3
   2460   4005   4007   4008     1  180.0000771  2.0920000  4
   2461   4017   4019   4020     1  0.0000000  2.2175200  1
   2461   4017   4019   4020     1  0.0000000  0.0000000  2
   2461   4017   4019   4020     1  180.0000771  0.6276000  3
   2461   4017   4019   4020     1  180.0000771  2.0920000  4
   2462   2460   4005   4007     1  180.0000771  10.4600000  2
   2463   2461   4017   4019     1  180.0000771  10.4600000  2
   2466   2472   2473   2482     1  180.0000771  2.0083200  2
   2466   2472   2473   2482     1  0.0000000  1.2552000  3
   2466   2472   2476   2479     1  180.0000771  2.0083200  2
   2466   2472   2476   2479     1  0.0000000  1.2552000  3
   2469   2466   2472   2473     1  180.0000771  2.0083200  2
   2469   2466   2472   2473     1  0.0000000  1.2552000  3
   2469   2466   2472   2476     1  180.0000771  2.0083200  2
   2469   2466   2472   2476     1  0.0000000  1.2552000  3
   2472   2466   2469   2489     1  0.0000000  0.6508444  3
   2472   2473   2482   2486     1  0.0000000  0.6508444  3
   2472   2476   2479   2485     1  0.0000000  0.6508444  3
   2473   2472   2476   2479     1  180.0000771  2.0083200  2
   2473   2472   2476   2479     1  0.0000000  1.2552000  3
   2473   2482   2486   2488     1  180.0000771  0.0000000  2
   2473   2482   2486   4041     1  0.0000000  0.2928800  2
   2473   2482   2486   4041     1  0.0000000  0.4184000  4
   2476   2472   2473   2482     1  180.0000771  2.0083200  2
   2476   2472   2473   2482     1  0.0000000  1.2552000  3
   2476   2479   2485   4029     1  0.0000000  0.2928800  2
   2476   2479   2485   4029     1  0.0000000  0.4184000  4
   2476   2479   2485   2487     1  180.0000771  0.0000000  2
   2479   2485   4029   4031     1  180.0000771  6.2760000  1
   2479   2485   4029   4031     1  0.0000000  0.0000000  2
   2482   2486   4041   4043     1  180.0000771  6.2760000  1
   2482   2486   4041   4043     1  0.0000000  0.0000000  2
   2485   4029   4031   4032     1  0.0000000  2.2175200  1
   2485   4029   4031   4032     1  0.0000000  0.0000000  2
   2485   4029   4031   4032     1  180.0000771  0.6276000  3
   2485   4029   4031   4032     1  180.0000771  2.0920000  4
   2486   4041   4043   4044     1  0.0000000  2.2175200  1
   2486   4041   4043   4044     1  0.0000000  0.0000000  2
   2486   4041   4043   4044     1  180.0000771  0.6276000  3
   2486   4041   4043   4044     1  180.0000771  2.0920000  4
   2487   2485   4029   4031     1  180.0000771  10.4600000  2
   2488   2486   4041   4043     1  180.0000771  10.4600000  2
   2491   2497   2498   2507     1  180.0000771  2.0083200  2
   2491   2497   2498   2507     1  0.0000000  1.2552000  3
   2491   2497   2501   2504     1  180.0000771  2.0083200  2
   2491   2497   2501   2504     1  0.0000000  1.2552000  3
   2494   2491   2497   2498     1  180.0000771  2.0083200  2
   2494   2491   2497   2498     1  0.0000000  1.2552000  3
   2494   2491   2497   2501     1  180.0000771  2.0083200  2
   2494   2491   2497   2501     1  0.0000000  1.2552000  3
   2497   2491   2494   2514     1  0.0000000  0.6508444  3
   2497   2498   2507   2511     1  0.0000000  0.6508444  3
   2497   2501   2504   2510     1  0.0000000  0.6508444  3
   2498   2497   2501   2504     1  180.0000771  2.0083200  2
   2498   2497   2501   2504     1  0.0000000  1.2552000  3
   2498   2507   2511   2513     1  180.0000771  0.0000000  2
   2498   2507   2511   4065     1  0.0000000  0.2928800  2
   2498   2507   2511   4065     1  0.0000000  0.4184000  4
   2501   2497   2498   2507     1  180.0000771  2.0083200  2
   2501   2497   2498   2507     1  0.0000000  1.2552000  3
   2501   2504   2510   4053     1  0.0000000  0.2928800  2
   2501   2504   2510   4053     1  0.0000000  0.4184000  4
   2501   2504   2510   2512     1  180.0000771  0.0000000  2
   2504   2510   4053   4055     1  180.0000771  6.2760000  1
   2504   2510   4053   4055     1  0.0000000  0.0000000  2
   2507   2511   4065   4067     1  180.0000771  6.2760000  1
   2507   2511   4065   4067     1  0.0000000  0.0000000  2
   2510   4053   4055   4056     1  0.0000000  2.2175200  1
   2510   4053   4055   4056     1  0.0000000  0.0000000  2
   2510   4053   4055   4056     1  180.0000771  0.6276000  3
   2510   4053   4055   4056     1  180.0000771  2.0920000  4
   2511   4065   4067   4068     1  0.0000000  2.2175200  1
   2511   4065   4067   4068     1  0.0000000  0.0000000  2
   2511   4065   4067   4068     1  180.0000771  0.6276000  3
   2511   4065   4067   4068     1  180.0000771  2.0920000  4
   2512   2510   4053   4055     1  180.0000771  10.4600000  2
   2513   2511   4065   4067     1  180.0000771  10.4600000  2
   2516   2522   2523   2532     1  180.0000771  2.0083200  2
   2516   2522   2523   2532     1  0.0000000  1.2552000  3
   2516   2522   2526   2529     1  180.0000771  2.0083200  2
   2516   2522   2526   2529     1  0.0000000  1.2552000  3
   2519   2516   2522   2523     1  180.0000771  2.0083200  2
   2519   2516   2522   2523     1  0.0000000  1.2552000  3
   2519   2516   2522   2526     1  180.0000771  2.0083200  2
   2519   2516   2522   2526     1  0.0000000  1.2552000  3
   2522   2516   2519   2539     1  0.0000000  0.6508444  3
   2522   2523   2532   2536     1  0.0000000  0.6508444  3
   2522   2526   2529   2535     1  0.0000000  0.6508444  3
   2523   2522   2526   2529     1  180.0000771  2.0083200  2
   2523   2522   2526   2529     1  0.0000000  1.2552000  3
   2523   2532   2536   2538     1  180.0000771  0.0000000  2
   2523   2532   2536   4089     1  0.0000000  0.2928800  2
   2523   2532   2536   4089     1  0.0000000  0.4184000  4
   2526   2522   2523   2532     1  180.0000771  2.0083200  2
   2526   2522   2523   2532     1  0.0000000  1.2552000  3
   2526   2529   2535   4077     1  0.0000000  0.2928800  2
   2526   2529   2535   4077     1  0.0000000  0.4184000  4
   2526   2529   2535   2537     1  180.0000771  0.0000000  2
   2529   2535   4077   4079     1  180.0000771  6.2760000  1
   2529   2535   4077   4079     1  0.0000000  0.0000000  2
   2532   2536   4089   4091     1  180.0000771  6.2760000  1
   2532   2536   4089   4091     1  0.0000000  0.0000000  2
   2535   4077   4079   4080     1  0.0000000  2.2175200  1
   2535   4077   4079   4080     1  0.0000000  0.0000000  2
   2535   4077   4079   4080     1  180.0000771  0.6276000  3
   2535   4077   4079   4080     1  180.0000771  2.0920000  4
   2536   4089   4091   4092     1  0.0000000  2.2175200  1
   2536   4089   4091   4092     1  0.0000000  0.0000000  2
   2536   4089   4091   4092     1  180.0000771  0.6276000  3
   2536   4089   4091   4092     1  180.0000771  2.0920000  4
   2537   2535   4077   4079     1  180.0000771  10.4600000  2
   2538   2536   4089   4091     1  180.0000771  10.4600000  2
   2541   2547   2548   2557     1  180.0000771  2.0083200  2
   2541   2547   2548   2557     1  0.0000000  1.2552000  3
   2541   2547   2551   2554     1  180.0000771  2.0083200  2
   2541   2547   2551   2554     1  0.0000000  1.2552000  3
   2544   2541   2547   2548     1  180.0000771  2.0083200  2
   2544   2541   2547   2548     1  0.0000000  1.2552000  3
   2544   2541   2547   2551     1  180.0000771  2.0083200  2
   2544   2541   2547   2551     1  0.0000000  1.2552000  3
   2547   2541   2544   2564     1  0.0000000  0.6508444  3
   2547   2548   2557   2561     1  0.0000000  0.6508444  3
   2547   2551   2554   2560     1  0.0000000  0.6508444  3
   2548   2547   2551   2554     1  180.0000771  2.0083200  2
   2548   2547   2551   2554     1  0.0000000  1.2552000  3
   2548   2557   2561   2563     1  180.0000771  0.0000000  2
   2548   2557   2561   4113     1  0.0000000  0.2928800  2
   2548   2557   2561   4113     1  0.0000000  0.4184000  4
   2551   2547   2548   2557     1  180.0000771  2.0083200  2
   2551   2547   2548   2557     1  0.0000000  1.2552000  3
   2551   2554   2560   4101     1  0.0000000  0.2928800  2
   2551   2554   2560   4101     1  0.0000000  0.4184000  4
   2551   2554   2560   2562     1  180.0000771  0.0000000  2
   2554   2560   4101   4103     1  180.0000771  6.2760000  1
   2554   2560   4101   4103     1  0.0000000  0.0000000  2
   2557   2561   4113   4115     1  180.0000771  6.2760000  1
   2557   2561   4113   4115     1  0.0000000  0.0000000  2
   2560   4101   4103   4104     1  0.0000000  2.2175200  1
   2560   4101   4103   4104     1  0.0000000  0.0000000  2
   2560   4101   4103   4104     1  180.0000771  0.6276000  3
   2560   4101   4103   4104     1  180.0000771  2.0920000  4
   2561   4113   4115   4116     1  0.0000000  2.2175200  1
   2561   4113   4115   4116     1  0.0000000  0.0000000  2
   2561   4113   4115   4116     1  180.0000771  0.6276000  3
   2561   4113   4115   4116     1  180.0000771  2.0920000  4
   2562   2560   4101   4103     1  180.0000771  10.4600000  2
   2563   2561   4113   4115     1  180.0000771  10.4600000  2
   2566   2572   2573   2582     1  180.0000771  2.0083200  2
   2566   2572   2573   2582     1  0.0000000  1.2552000  3
   2566   2572   2576   2579     1  180.0000771  2.0083200  2
   2566   2572   2576   2579     1  0.0000000  1.2552000  3
   2569   2566   2572   2573     1  180.0000771  2.0083200  2
   2569   2566   2572   2573     1  0.0000000  1.2552000  3
   2569   2566   2572   2576     1  180.0000771  2.0083200  2
   2569   2566   2572   2576     1  0.0000000  1.2552000  3
   2572   2566   2569   2589     1  0.0000000  0.6508444  3
   2572   2573   2582   2586     1  0.0000000  0.6508444  3
   2572   2576   2579   2585     1  0.0000000  0.6508444  3
   2573   2572   2576   2579     1  180.0000771  2.0083200  2
   2573   2572   2576   2579     1  0.0000000  1.2552000  3
   2573   2582   2586   2588     1  180.0000771  0.0000000  2
   2573   2582   2586   4137     1  0.0000000  0.2928800  2
   2573   2582   2586   4137     1  0.0000000  0.4184000  4
   2576   2572   2573   2582     1  180.0000771  2.0083200  2
   2576   2572   2573   2582     1  0.0000000  1.2552000  3
   2576   2579   2585   4125     1  0.0000000  0.2928800  2
   2576   2579   2585   4125     1  0.0000000  0.4184000  4
   2576   2579   2585   2587     1  180.0000771  0.0000000  2
   2579   2585   4125   4127     1  180.0000771  6.2760000  1
   2579   2585   4125   4127     1  0.0000000  0.0000000  2
   2582   2586   4137   4139     1  180.0000771  6.2760000  1
   2582   2586   4137   4139     1  0.0000000  0.0000000  2
   2585   4125   4127   4128     1  0.0000000  2.2175200  1
   2585   4125   4127   4128     1  0.0000000  0.0000000  2
   2585   4125   4127   4128     1  180.0000771  0.6276000  3
   2585   4125   4127   4128     1  180.0000771  2.0920000  4
   2586   4137   4139   4140     1  0.0000000  2.2175200  1
   2586   4137   4139   4140     1  0.0000000  0.0000000  2
   2586   4137   4139   4140     1  180.0000771  0.6276000  3
   2586   4137   4139   4140     1  180.0000771  2.0920000  4
   2587   2585   4125   4127     1  180.0000771  10.4600000  2
   2588   2586   4137   4139     1  180.0000771  10.4600000  2
   2591   2597   2598   2607     1  180.0000771  2.0083200  2
   2591   2597   2598   2607     1  0.0000000  1.2552000  3
   2591   2597   2601   2604     1  180.0000771  2.0083200  2
   2591   2597   2601   2604     1  0.0000000  1.2552000  3
   2594   2591   2597   2598     1  180.0000771  2.0083200  2
   2594   2591   2597   2598     1  0.0000000  1.2552000  3
   2594   2591   2597   2601     1  180.0000771  2.0083200  2
   2594   2591   2597   2601     1  0.0000000  1.2552000  3
   2597   2591   2594   2614     1  0.0000000  0.6508444  3
   2597   2598   2607   2611     1  0.0000000  0.6508444  3
   2597   2601   2604   2610     1  0.0000000  0.6508444  3
   2598   2597   2601   2604     1  180.0000771  2.0083200  2
   2598   2597   2601   2604     1  0.0000000  1.2552000  3
   2598   2607   2611   2613     1  180.0000771  0.0000000  2
   2598   2607   2611   4161     1  0.0000000  0.2928800  2
   2598   2607   2611   4161     1  0.0000000  0.4184000  4
   2601   2597   2598   2607     1  180.0000771  2.0083200  2
   2601   2597   2598   2607     1  0.0000000  1.2552000  3
   2601   2604   2610   4149     1  0.0000000  0.2928800  2
   2601   2604   2610   4149     1  0.0000000  0.4184000  4
   2601   2604   2610   2612     1  180.0000771  0.0000000  2
   2604   2610   4149   4151     1  180.0000771  6.2760000  1
   2604   2610   4149   4151     1  0.0000000  0.0000000  2
   2607   2611   4161   4163     1  180.0000771  6.2760000  1
   2607   2611   4161   4163     1  0.0000000  0.0000000  2
   2610   4149   4151   4152     1  0.0000000  2.2175200  1
   2610   4149   4151   4152     1  0.0000000  0.0000000  2
   2610   4149   4151   4152     1  180.0000771  0.6276000  3
   2610   4149   4151   4152     1  180.0000771  2.0920000  4
   2611   4161   4163   4164     1  0.0000000  2.2175200  1
   2611   4161   4163   4164     1  0.0000000  0.0000000  2
   2611   4161   4163   4164     1  180.0000771  0.6276000  3
   2611   4161   4163   4164     1  180.0000771  2.0920000  4
   2612   2610   4149   4151     1  180.0000771  10.4600000  2
   2613   2611   4161   4163     1  180.0000771  10.4600000  2
   2616   2622   2623   2632     1  180.0000771  2.0083200  2
   2616   2622   2623   2632     1  0.0000000  1.2552000  3
   2616   2622   2626   2629     1  180.0000771  2.0083200  2
   2616   2622   2626   2629     1  0.0000000  1.2552000  3
   2619   2616   2622   2623     1  180.0000771  2.0083200  2
   2619   2616   2622   2623     1  0.0000000  1.2552000  3
   2619   2616   2622   2626     1  180.0000771  2.0083200  2
   2619   2616   2622   2626     1  0.0000000  1.2552000  3
   2622   2616   2619   2639     1  0.0000000  0.6508444  3
   2622   2623   2632   2636     1  0.0000000  0.6508444  3
   2622   2626   2629   2635     1  0.0000000  0.6508444  3
   2623   2622   2626   2629     1  180.0000771  2.0083200  2
   2623   2622   2626   2629     1  0.0000000  1.2552000  3
   2623   2632   2636   2638     1  180.0000771  0.0000000  2
   2623   2632   2636   4185     1  0.0000000  0.2928800  2
   2623   2632   2636   4185     1  0.0000000  0.4184000  4
   2626   2622   2623   2632     1  180.0000771  2.0083200  2
   2626   2622   2623   2632     1  0.0000000  1.2552000  3
   2626   2629   2635   4173     1  0.0000000  0.2928800  2
   2626   2629   2635   4173     1  0.0000000  0.4184000  4
   2626   2629   2635   2637     1  180.0000771  0.0000000  2
   2629   2635   4173   4175     1  180.0000771  6.2760000  1
   2629   2635   4173   4175     1  0.0000000  0.0000000  2
   2632   2636   4185   4187     1  180.0000771  6.2760000  1
   2632   2636   4185   4187     1  0.0000000  0.0000000  2
   2635   4173   4175   4176     1  0.0000000  2.2175200  1
   2635   4173   4175   4176     1  0.0000000  0.0000000  2
   2635   4173   4175   4176     1  180.0000771  0.6276000  3
   2635   4173   4175   4176     1  180.0000771  2.0920000  4
   2636   4185   4187   4188     1  0.0000000  2.2175200  1
   2636   4185   4187   4188     1  0.0000000  0.0000000  2
   2636   4185   4187   4188     1  180.0000771  0.6276000  3
   2636   4185   4187   4188     1  180.0000771  2.0920000  4
   2637   2635   4173   4175     1  180.0000771  10.4600000  2
   2638   2636   4185   4187     1  180.0000771  10.4600000  2
   2641   2647   2648   2657     1  180.0000771  2.0083200  2
   2641   2647   2648   2657     1  0.0000000  1.2552000  3
   2641   2647   2651   2654     1  180.0000771  2.0083200  2
   2641   2647   2651   2654     1  0.0000000  1.2552000  3
   2644   2641   2647   2648     1  180.0000771  2.0083200  2
   2644   2641   2647   2648     1  0.0000000  1.2552000  3
   2644   2641   2647   2651     1  180.0000771  2.0083200  2
   2644   2641   2647   2651     1  0.0000000  1.2552000  3
   2647   2641   2644   2664     1  0.0000000  0.6508444  3
   2647   2648   2657   2661     1  0.0000000  0.6508444  3
   2647   2651   2654   2660     1  0.0000000  0.6508444  3
   2648   2647   2651   2654     1  180.0000771  2.0083200  2
   2648   2647   2651   2654     1  0.0000000  1.2552000  3
   2648   2657   2661   2663     1  180.0000771  0.0000000  2
   2648   2657   2661   4209     1  0.0000000  0.2928800  2
   2648   2657   2661   4209     1  0.0000000  0.4184000  4
   2651   2647   2648   2657     1  180.0000771  2.0083200  2
   2651   2647   2648   2657     1  0.0000000  1.2552000  3
   2651   2654   2660   4197     1  0.0000000  0.2928800  2
   2651   2654   2660   4197     1  0.0000000  0.4184000  4
   2651   2654   2660   2662     1  180.0000771  0.0000000  2
   2654   2660   4197   4199     1  180.0000771  6.2760000  1
   2654   2660   4197   4199     1  0.0000000  0.0000000  2
   2657   2661   4209   4211     1  180.0000771  6.2760000  1
   2657   2661   4209   4211     1  0.0000000  0.0000000  2
   2660   4197   4199   4200     1  0.0000000  2.2175200  1
   2660   4197   4199   4200     1  0.0000000  0.0000000  2
   2660   4197   4199   4200     1  180.0000771  0.6276000  3
   2660   4197   4199   4200     1  180.0000771  2.0920000  4
   2661   4209   4211   4212     1  0.0000000  2.2175200  1
   2661   4209   4211   4212     1  0.0000000  0.0000000  2
   2661   4209   4211   4212     1  180.0000771  0.6276000  3
   2661   4209   4211   4212     1  180.0000771  2.0920000  4
   2662   2660   4197   4199     1  180.0000771  10.4600000  2
   2663   2661   4209   4211     1  180.0000771  10.4600000  2
   2666   2672   2673   2682     1  180.0000771  2.0083200  2
   2666   2672   2673   2682     1  0.0000000  1.2552000  3
   2666   2672   2676   2679     1  180.0000771  2.0083200  2
   2666   2672   2676   2679     1  0.0000000  1.2552000  3
   2669   2666   2672   2673     1  180.0000771  2.0083200  2
   2669   2666   2672   2673     1  0.0000000  1.2552000  3
   2669   2666   2672   2676     1  180.0000771  2.0083200  2
   2669   2666   2672   2676     1  0.0000000  1.2552000  3
   2672   2666   2669   2689     1  0.0000000  0.6508444  3
   2672   2673   2682   2686     1  0.0000000  0.6508444  3
   2672   2676   2679   2685     1  0.0000000  0.6508444  3
   2673   2672   2676   2679     1  180.0000771  2.0083200  2
   2673   2672   2676   2679     1  0.0000000  1.2552000  3
   2673   2682   2686   2688     1  180.0000771  0.0000000  2
   2673   2682   2686   4233     1  0.0000000  0.2928800  2
   2673   2682   2686   4233     1  0.0000000  0.4184000  4
   2676   2672   2673   2682     1  180.0000771  2.0083200  2
   2676   2672   2673   2682     1  0.0000000  1.2552000  3
   2676   2679   2685   4221     1  0.0000000  0.2928800  2
   2676   2679   2685   4221     1  0.0000000  0.4184000  4
   2676   2679   2685   2687     1  180.0000771  0.0000000  2
   2679   2685   4221   4223     1  180.0000771  6.2760000  1
   2679   2685   4221   4223     1  0.0000000  0.0000000  2
   2682   2686   4233   4235     1  180.0000771  6.2760000  1
   2682   2686   4233   4235     1  0.0000000  0.0000000  2
   2685   4221   4223   4224     1  0.0000000  2.2175200  1
   2685   4221   4223   4224     1  0.0000000  0.0000000  2
   2685   4221   4223   4224     1  180.0000771  0.6276000  3
   2685   4221   4223   4224     1  180.0000771  2.0920000  4
   2686   4233   4235   4236     1  0.0000000  2.2175200  1
   2686   4233   4235   4236     1  0.0000000  0.0000000  2
   2686   4233   4235   4236     1  180.0000771  0.6276000  3
   2686   4233   4235   4236     1  180.0000771  2.0920000  4
   2687   2685   4221   4223     1  180.0000771  10.4600000  2
   2688   2686   4233   4235     1  180.0000771  10.4600000  2
   2691   2697   2698   2707     1  180.0000771  2.0083200  2
   2691   2697   2698   2707     1  0.0000000  1.2552000  3
   2691   2697   2701   2704     1  180.0000771  2.0083200  2
   2691   2697   2701   2704     1  0.0000000  1.2552000  3
   2694   2691   2697   2698     1  180.0000771  2.0083200  2
   2694   2691   2697   2698     1  0.0000000  1.2552000  3
   2694   2691   2697   2701     1  180.0000771  2.0083200  2
   2694   2691   2697   2701     1  0.0000000  1.2552000  3
   2697   2691   2694   2714     1  0.0000000  0.6508444  3
   2697   2698   2707   2711     1  0.0000000  0.6508444  3
   2697   2701   2704   2710     1  0.0000000  0.6508444  3
   2698   2697   2701   2704     1  180.0000771  2.0083200  2
   2698   2697   2701   2704     1  0.0000000  1.2552000  3
   2698   2707   2711   2713     1  180.0000771  0.0000000  2
   2698   2707   2711   4257     1  0.0000000  0.2928800  2
   2698   2707   2711   4257     1  0.0000000  0.4184000  4
   2701   2697   2698   2707     1  180.0000771  2.0083200  2
   2701   2697   2698   2707     1  0.0000000  1.2552000  3
   2701   2704   2710   4245     1  0.0000000  0.2928800  2
   2701   2704   2710   4245     1  0.0000000  0.4184000  4
   2701   2704   2710   2712     1  180.0000771  0.0000000  2
   2704   2710   4245   4247     1  180.0000771  6.2760000  1
   2704   2710   4245   4247     1  0.0000000  0.0000000  2
   2707   2711   4257   4259     1  180.0000771  6.2760000  1
   2707   2711   4257   4259     1  0.0000000  0.0000000  2
   2710   4245   4247   4248     1  0.0000000  2.2175200  1
   2710   4245   4247   4248     1  0.0000000  0.0000000  2
   2710   4245   4247   4248     1  180.0000771  0.6276000  3
   2710   4245   4247   4248     1  180.0000771  2.0920000  4
   2711   4257   4259   4260     1  0.0000000  2.2175200  1
   2711   4257   4259   4260     1  0.0000000  0.0000000  2
   2711   4257   4259   4260     1  180.0000771  0.6276000  3
   2711   4257   4259   4260     1  180.0000771  2.0920000  4
   2712   2710   4245   4247     1  180.0000771  10.4600000  2
   2713   2711   4257   4259     1  180.0000771  10.4600000  2
   2716   2722   2723   2732     1  180.0000771  2.0083200  2
   2716   2722   2723   2732     1  0.0000000  1.2552000  3
   2716   2722   2726   2729     1  180.0000771  2.0083200  2
   2716   2722   2726   2729     1  0.0000000  1.2552000  3
   2719   2716   2722   2723     1  180.0000771  2.0083200  2
   2719   2716   2722   2723     1  0.0000000  1.2552000  3
   2719   2716   2722   2726     1  180.0000771  2.0083200  2
   2719   2716   2722   2726     1  0.0000000  1.2552000  3
   2722   2716   2719   2739     1  0.0000000  0.6508444  3
   2722   2723   2732   2736     1  0.0000000  0.6508444  3
   2722   2726   2729   2735     1  0.0000000  0.6508444  3
   2723   2722   2726   2729     1  180.0000771  2.0083200  2
   2723   2722   2726   2729     1  0.0000000  1.2552000  3
   2723   2732   2736   2738     1  180.0000771  0.0000000  2
   2723   2732   2736   4281     1  0.0000000  0.2928800  2
   2723   2732   2736   4281     1  0.0000000  0.4184000  4
   2726   2722   2723   2732     1  180.0000771  2.0083200  2
   2726   2722   2723   2732     1  0.0000000  1.2552000  3
   2726   2729   2735   4269     1  0.0000000  0.2928800  2
   2726   2729   2735   4269     1  0.0000000  0.4184000  4
   2726   2729   2735   2737     1  180.0000771  0.0000000  2
   2729   2735   4269   4271     1  180.0000771  6.2760000  1
   2729   2735   4269   4271     1  0.0000000  0.0000000  2
   2732   2736   4281   4283     1  180.0000771  6.2760000  1
   2732   2736   4281   4283     1  0.0000000  0.0000000  2
   2735   4269   4271   4272     1  0.0000000  2.2175200  1
   2735   4269   4271   4272     1  0.0000000  0.0000000  2
   2735   4269   4271   4272     1  180.0000771  0.6276000  3
   2735   4269   4271   4272     1  180.0000771  2.0920000  4
   2736   4281   4283   4284     1  0.0000000  2.2175200  1
   2736   4281   4283   4284     1  0.0000000  0.0000000  2
   2736   4281   4283   4284     1  180.0000771  0.6276000  3
   2736   4281   4283   4284     1  180.0000771  2.0920000  4
   2737   2735   4269   4271     1  180.0000771  10.4600000  2
   2738   2736   4281   4283     1  180.0000771  10.4600000  2
   2741   2747   2748   2757     1  180.0000771  2.0083200  2
   2741   2747   2748   2757     1  0.0000000  1.2552000  3
   2741   2747   2751   2754     1  180.0000771  2.0083200  2
   2741   2747   2751   2754     1  0.0000000  1.2552000  3
   2744   2741   2747   2748     1  180.0000771  2.0083200  2
   2744   2741   2747   2748     1  0.0000000  1.2552000  3
   2744   2741   2747   2751     1  180.0000771  2.0083200  2
   2744   2741   2747   2751     1  0.0000000  1.2552000  3
   2747   2741   2744   2764     1  0.0000000  0.6508444  3
   2747   2748   2757   2761     1  0.0000000  0.6508444  3
   2747   2751   2754   2760     1  0.0000000  0.6508444  3
   2748   2747   2751   2754     1  180.0000771  2.0083200  2
   2748   2747   2751   2754     1  0.0000000  1.2552000  3
   2748   2757   2761   2763     1  180.0000771  0.0000000  2
   2748   2757   2761   4305     1  0.0000000  0.2928800  2
   2748   2757   2761   4305     1  0.0000000  0.4184000  4
   2751   2747   2748   2757     1  180.0000771  2.0083200  2
   2751   2747   2748   2757     1  0.0000000  1.2552000  3
   2751   2754   2760   4293     1  0.0000000  0.2928800  2
   2751   2754   2760   4293     1  0.0000000  0.4184000  4
   2751   2754   2760   2762     1  180.0000771  0.0000000  2
   2754   2760   4293   4295     1  180.0000771  6.2760000  1
   2754   2760   4293   4295     1  0.0000000  0.0000000  2
   2757   2761   4305   4307     1  180.0000771  6.2760000  1
   2757   2761   4305   4307     1  0.0000000  0.0000000  2
   2760   4293   4295   4296     1  0.0000000  2.2175200  1
   2760   4293   4295   4296     1  0.0000000  0.0000000  2
   2760   4293   4295   4296     1  180.0000771  0.6276000  3
   2760   4293   4295   4296     1  180.0000771  2.0920000  4
   2761   4305   4307   4308     1  0.0000000  2.2175200  1
   2761   4305   4307   4308     1  0.0000000  0.0000000  2
   2761   4305   4307   4308     1  180.0000771  0.6276000  3
   2761   4305   4307   4308     1  180.0000771  2.0920000  4
   2762   2760   4293   4295     1  180.0000771  10.4600000  2
   2763   2761   4305   4307     1  180.0000771  10.4600000  2
   2766   2772   2773   2782     1  180.0000771  2.0083200  2
   2766   2772   2773   2782     1  0.0000000  1.2552000  3
   2766   2772   2776   2779     1  180.0000771  2.0083200  2
   2766   2772   2776   2779     1  0.0000000  1.2552000  3
   2769   2766   2772   2773     1  180.0000771  2.0083200  2
   2769   2766   2772   2773     1  0.0000000  1.2552000  3
   2769   2766   2772   2776     1  180.0000771  2.0083200  2
   2769   2766   2772   2776     1  0.0000000  1.2552000  3
   2772   2766   2769   2789     1  0.0000000  0.6508444  3
   2772   2773   2782   2786     1  0.0000000  0.6508444  3
   2772   2776   2779   2785     1  0.0000000  0.6508444  3
   2773   2772   2776   2779     1  180.0000771  2.0083200  2
   2773   2772   2776   2779     1  0.0000000  1.2552000  3
   2773   2782   2786   2788     1  180.0000771  0.0000000  2
   2773   2782   2786   4329     1  0.0000000  0.2928800  2
   2773   2782   2786   4329     1  0.0000000  0.4184000  4
   2776   2772   2773   2782     1  180.0000771  2.0083200  2
   2776   2772   2773   2782     1  0.0000000  1.2552000  3
   2776   2779   2785   4317     1  0.0000000  0.2928800  2
   2776   2779   2785   4317     1  0.0000000  0.4184000  4
   2776   2779   2785   2787     1  180.0000771  0.0000000  2
   2779   2785   4317   4319     1  180.0000771  6.2760000  1
   2779   2785   4317   4319     1  0.0000000  0.0000000  2
   2782   2786   4329   4331     1  180.0000771  6.2760000  1
   2782   2786   4329   4331     1  0.0000000  0.0000000  2
   2785   4317   4319   4320     1  0.0000000  2.2175200  1
   2785   4317   4319   4320     1  0.0000000  0.0000000  2
   2785   4317   4319   4320     1  180.0000771  0.6276000  3
   2785   4317   4319   4320     1  180.0000771  2.0920000  4
   2786   4329   4331   4332     1  0.0000000  2.2175200  1
   2786   4329   4331   4332     1  0.0000000  0.0000000  2
   2786   4329   4331   4332     1  180.0000771  0.6276000  3
   2786   4329   4331   4332     1  180.0000771  2.0920000  4
   2787   2785   4317   4319     1  180.0000771  10.4600000  2
   2788   2786   4329   4331     1  180.0000771  10.4600000  2
   2791   2797   2798   2807     1  180.0000771  2.0083200  2
   2791   2797   2798   2807     1  0.0000000  1.2552000  3
   2791   2797   2801   2804     1  180.0000771  2.0083200  2
   2791   2797   2801   2804     1  0.0000000  1.2552000  3
   2794   2791   2797   2798     1  180.0000771  2.0083200  2
   2794   2791   2797   2798     1  0.0000000  1.2552000  3
   2794   2791   2797   2801     1  180.0000771  2.0083200  2
   2794   2791   2797   2801     1  0.0000000  1.2552000  3
   2797   2791   2794   2814     1  0.0000000  0.6508444  3
   2797   2798   2807   2811     1  0.0000000  0.6508444  3
   2797   2801   2804   2810     1  0.0000000  0.6508444  3
   2798   2797   2801   2804     1  180.0000771  2.0083200  2
   2798   2797   2801   2804     1  0.0000000  1.2552000  3
   2798   2807   2811   2813     1  180.0000771  0.0000000  2
   2798   2807   2811   4353     1  0.0000000  0.2928800  2
   2798   2807   2811   4353     1  0.0000000  0.4184000  4
   2801   2797   2798   2807     1  180.0000771  2.0083200  2
   2801   2797   2798   2807     1  0.0000000  1.2552000  3
   2801   2804   2810   4341     1  0.0000000  0.2928800  2
   2801   2804   2810   4341     1  0.0000000  0.4184000  4
   2801   2804   2810   2812     1  180.0000771  0.0000000  2
   2804   2810   4341   4343     1  180.0000771  6.2760000  1
   2804   2810   4341   4343     1  0.0000000  0.0000000  2
   2807   2811   4353   4355     1  180.0000771  6.2760000  1
   2807   2811   4353   4355     1  0.0000000  0.0000000  2
   2810   4341   4343   4344     1  0.0000000  2.2175200  1
   2810   4341   4343   4344     1  0.0000000  0.0000000  2
   2810   4341   4343   4344     1  180.0000771  0.6276000  3
   2810   4341   4343   4344     1  180.0000771  2.0920000  4
   2811   4353   4355   4356     1  0.0000000  2.2175200  1
   2811   4353   4355   4356     1  0.0000000  0.0000000  2
   2811   4353   4355   4356     1  180.0000771  0.6276000  3
   2811   4353   4355   4356     1  180.0000771  2.0920000  4
   2812   2810   4341   4343     1  180.0000771  10.4600000  2
   2813   2811   4353   4355     1  180.0000771  10.4600000  2
   2816   2822   2823   2832     1  180.0000771  2.0083200  2
   2816   2822   2823   2832     1  0.0000000  1.2552000  3
   2816   2822   2826   2829     1  180.0000771  2.0083200  2
   2816   2822   2826   2829     1  0.0000000  1.2552000  3
   2819   2816   2822   2823     1  180.0000771  2.0083200  2
   2819   2816   2822   2823     1  0.0000000  1.2552000  3
   2819   2816   2822   2826     1  180.0000771  2.0083200  2
   2819   2816   2822   2826     1  0.0000000  1.2552000  3
   2822   2816   2819   2839     1  0.0000000  0.6508444  3
   2822   2823   2832   2836     1  0.0000000  0.6508444  3
   2822   2826   2829   2835     1  0.0000000  0.6508444  3
   2823   2822   2826   2829     1  180.0000771  2.0083200  2
   2823   2822   2826   2829     1  0.0000000  1.2552000  3
   2823   2832   2836   2838     1  180.0000771  0.0000000  2
   2823   2832   2836   4377     1  0.0000000  0.2928800  2
   2823   2832   2836   4377     1  0.0000000  0.4184000  4
   2826   2822   2823   2832     1  180.0000771  2.0083200  2
   2826   2822   2823   2832     1  0.0000000  1.2552000  3
   2826   2829   2835   4365     1  0.0000000  0.2928800  2
   2826   2829   2835   4365     1  0.0000000  0.4184000  4
   2826   2829   2835   2837     1  180.0000771  0.0000000  2
   2829   2835   4365   4367     1  180.0000771  6.2760000  1
   2829   2835   4365   4367     1  0.0000000  0.0000000  2
   2832   2836   4377   4379     1  180.0000771  6.2760000  1
   2832   2836   4377   4379     1  0.0000000  0.0000000  2
   2835   4365   4367   4368     1  0.0000000  2.2175200  1
   2835   4365   4367   4368     1  0.0000000  0.0000000  2
   2835   4365   4367   4368     1  180.0000771  0.6276000  3
   2835   4365   4367   4368     1  180.0000771  2.0920000  4
   2836   4377   4379   4380     1  0.0000000  2.2175200  1
   2836   4377   4379   4380     1  0.0000000  0.0000000  2
   2836   4377   4379   4380     1  180.0000771  0.6276000  3
   2836   4377   4379   4380     1  180.0000771  2.0920000  4
   2837   2835   4365   4367     1  180.0000771  10.4600000  2
   2838   2836   4377   4379     1  180.0000771  10.4600000  2
   2841   2847   2848   2857     1  180.0000771  2.0083200  2
   2841   2847   2848   2857     1  0.0000000  1.2552000  3
   2841   2847   2851   2854     1  180.0000771  2.0083200  2
   2841   2847   2851   2854     1  0.0000000  1.2552000  3
   2844   2841   2847   2848     1  180.0000771  2.0083200  2
   2844   2841   2847   2848     1  0.0000000  1.2552000  3
   2844   2841   2847   2851     1  180.0000771  2.0083200  2
   2844   2841   2847   2851     1  0.0000000  1.2552000  3
   2847   2841   2844   2864     1  0.0000000  0.6508444  3
   2847   2848   2857   2861     1  0.0000000  0.6508444  3
   2847   2851   2854   2860     1  0.0000000  0.6508444  3
   2848   2847   2851   2854     1  180.0000771  2.0083200  2
   2848   2847   2851   2854     1  0.0000000  1.2552000  3
   2848   2857   2861   2863     1  180.0000771  0.0000000  2
   2848   2857   2861   4401     1  0.0000000  0.2928800  2
   2848   2857   2861   4401     1  0.0000000  0.4184000  4
   2851   2847   2848   2857     1  180.0000771  2.0083200  2
   2851   2847   2848   2857     1  0.0000000  1.2552000  3
   2851   2854   2860   4389     1  0.0000000  0.2928800  2
   2851   2854   2860   4389     1  0.0000000  0.4184000  4
   2851   2854   2860   2862     1  180.0000771  0.0000000  2
   2854   2860   4389   4391     1  180.0000771  6.2760000  1
   2854   2860   4389   4391     1  0.0000000  0.0000000  2
   2857   2861   4401   4403     1  180.0000771  6.2760000  1
   2857   2861   4401   4403     1  0.0000000  0.0000000  2
   2860   4389   4391   4392     1  0.0000000  2.2175200  1
   2860   4389   4391   4392     1  0.0000000  0.0000000  2
   2860   4389   4391   4392     1  180.0000771  0.6276000  3
   2860   4389   4391   4392     1  180.0000771  2.0920000  4
   2861   4401   4403   4404     1  0.0000000  2.2175200  1
   2861   4401   4403   4404     1  0.0000000  0.0000000  2
   2861   4401   4403   4404     1  180.0000771  0.6276000  3
   2861   4401   4403   4404     1  180.0000771  2.0920000  4
   2862   2860   4389   4391     1  180.0000771  10.4600000  2
   2863   2861   4401   4403     1  180.0000771  10.4600000  2
   2866   2872   2873   2882     1  180.0000771  2.0083200  2
   2866   2872   2873   2882     1  0.0000000  1.2552000  3
   2866   2872   2876   2879     1  180.0000771  2.0083200  2
   2866   2872   2876   2879     1  0.0000000  1.2552000  3
   2869   2866   2872   2873     1  180.0000771  2.0083200  2
   2869   2866   2872   2873     1  0.0000000  1.2552000  3
   2869   2866   2872   2876     1  180.0000771  2.0083200  2
   2869   2866   2872   2876     1  0.0000000  1.2552000  3
   2872   2866   2869   2889     1  0.0000000  0.6508444  3
   2872   2873   2882   2886     1  0.0000000  0.6508444  3
   2872   2876   2879   2885     1  0.0000000  0.6508444  3
   2873   2872   2876   2879     1  180.0000771  2.0083200  2
   2873   2872   2876   2879     1  0.0000000  1.2552000  3
   2873   2882   2886   2888     1  180.0000771  0.0000000  2
   2873   2882   2886   4425     1  0.0000000  0.2928800  2
   2873   2882   2886   4425     1  0.0000000  0.4184000  4
   2876   2872   2873   2882     1  180.0000771  2.0083200  2
   2876   2872   2873   2882     1  0.0000000  1.2552000  3
   2876   2879   2885   4413     1  0.0000000  0.2928800  2
   2876   2879   2885   4413     1  0.0000000  0.4184000  4
   2876   2879   2885   2887     1  180.0000771  0.0000000  2
   2879   2885   4413   4415     1  180.0000771  6.2760000  1
   2879   2885   4413   4415     1  0.0000000  0.0000000  2
   2882   2886   4425   4427     1  180.0000771  6.2760000  1
   2882   2886   4425   4427     1  0.0000000  0.0000000  2
   2885   4413   4415   4416     1  0.0000000  2.2175200  1
   2885   4413   4415   4416     1  0.0000000  0.0000000  2
   2885   4413   4415   4416     1  180.0000771  0.6276000  3
   2885   4413   4415   4416     1  180.0000771  2.0920000  4
   2886   4425   4427   4428     1  0.0000000  2.2175200  1
   2886   4425   4427   4428     1  0.0000000  0.0000000  2
   2886   4425   4427   4428     1  180.0000771  0.6276000  3
   2886   4425   4427   4428     1  180.0000771  2.0920000  4
   2887   2885   4413   4415     1  180.0000771  10.4600000  2
   2888   2886   4425   4427     1  180.0000771  10.4600000  2
   2891   2897   2898   2907     1  180.0000771  2.0083200  2
   2891   2897   2898   2907     1  0.0000000  1.2552000  3
   2891   2897   2901   2904     1  180.0000771  2.0083200  2
   2891   2897   2901   2904     1  0.0000000  1.2552000  3
   2894   2891   2897   2898     1  180.0000771  2.0083200  2
   2894   2891   2897   2898     1  0.0000000  1.2552000  3
   2894   2891   2897   2901     1  180.0000771  2.0083200  2
   2894   2891   2897   2901     1  0.0000000  1.2552000  3
   2897   2891   2894   2914     1  0.0000000  0.6508444  3
   2897   2898   2907   2911     1  0.0000000  0.6508444  3
   2897   2901   2904   2910     1  0.0000000  0.6508444  3
   2898   2897   2901   2904     1  180.0000771  2.0083200  2
   2898   2897   2901   2904     1  0.0000000  1.2552000  3
   2898   2907   2911   2913     1  180.0000771  0.0000000  2
   2898   2907   2911   4449     1  0.0000000  0.2928800  2
   2898   2907   2911   4449     1  0.0000000  0.4184000  4
   2901   2897   2898   2907     1  180.0000771  2.0083200  2
   2901   2897   2898   2907     1  0.0000000  1.2552000  3
   2901   2904   2910   4437     1  0.0000000  0.2928800  2
   2901   2904   2910   4437     1  0.0000000  0.4184000  4
   2901   2904   2910   2912     1  180.0000771  0.0000000  2
   2904   2910   4437   4439     1  180.0000771  6.2760000  1
   2904   2910   4437   4439     1  0.0000000  0.0000000  2
   2907   2911   4449   4451     1  180.0000771  6.2760000  1
   2907   2911   4449   4451     1  0.0000000  0.0000000  2
   2910   4437   4439   4440     1  0.0000000  2.2175200  1
   2910   4437   4439   4440     1  0.0000000  0.0000000  2
   2910   4437   4439   4440     1  180.0000771  0.6276000  3
   2910   4437   4439   4440     1  180.0000771  2.0920000  4
   2911   4449   4451   4452     1  0.0000000  2.2175200  1
   2911   4449   4451   4452     1  0.0000000  0.0000000  2
   2911   4449   4451   4452     1  180.0000771  0.6276000  3
   2911   4449   4451   4452     1  180.0000771  2.0920000  4
   2912   2910   4437   4439     1  180.0000771  10.4600000  2
   2913   2911   4449   4451     1  180.0000771  10.4600000  2
   2916   2922   2923   2932     1  180.0000771  2.0083200  2
   2916   2922   2923   2932     1  0.0000000  1.2552000  3
   2916   2922   2926   2929     1  180.0000771  2.0083200  2
   2916   2922   2926   2929     1  0.0000000  1.2552000  3
   2919   2916   2922   2923     1  180.0000771  2.0083200  2
   2919   2916   2922   2923     1  0.0000000  1.2552000  3
   2919   2916   2922   2926     1  180.0000771  2.0083200  2
   2919   2916   2922   2926     1  0.0000000  1.2552000  3
   2922   2916   2919   2939     1  0.0000000  0.6508444  3
   2922   2923   2932   2936     1  0.0000000  0.6508444  3
   2922   2926   2929   2935     1  0.0000000  0.6508444  3
   2923   2922   2926   2929     1  180.0000771  2.0083200  2
   2923   2922   2926   2929     1  0.0000000  1.2552000  3
   2923   2932   2936   2938     1  180.0000771  0.0000000  2
   2923   2932   2936   4473     1  0.0000000  0.2928800  2
   2923   2932   2936   4473     1  0.0000000  0.4184000  4
   2926   2922   2923   2932     1  180.0000771  2.0083200  2
   2926   2922   2923   2932     1  0.0000000  1.2552000  3
   2926   2929   2935   4461     1  0.0000000  0.2928800  2
   2926   2929   2935   4461     1  0.0000000  0.4184000  4
   2926   2929   2935   2937     1  180.0000771  0.0000000  2
   2929   2935   4461   4463     1  180.0000771  6.2760000  1
   2929   2935   4461   4463     1  0.0000000  0.0000000  2
   2932   2936   4473   4475     1  180.0000771  6.2760000  1
   2932   2936   4473   4475     1  0.0000000  0.0000000  2
   2935   4461   4463   4464     1  0.0000000  2.2175200  1
   2935   4461   4463   4464     1  0.0000000  0.0000000  2
   2935   4461   4463   4464     1  180.0000771  0.6276000  3
   2935   4461   4463   4464     1  180.0000771  2.0920000  4
   2936   4473   4475   4476     1  0.0000000  2.2175200  1
   2936   4473   4475   4476     1  0.0000000  0.0000000  2
   2936   4473   4475   4476     1  180.0000771  0.6276000  3
   2936   4473   4475   4476     1  180.0000771  2.0920000  4
   2937   2935   4461   4463     1  180.0000771  10.4600000  2
   2938   2936   4473   4475     1  180.0000771  10.4600000  2
   2941   2947   2948   2957     1  180.0000771  2.0083200  2
   2941   2947   2948   2957     1  0.0000000  1.2552000  3
   2941   2947   2951   2954     1  180.0000771  2.0083200  2
   2941   2947   2951   2954     1  0.0000000  1.2552000  3
   2944   2941   2947   2948     1  180.0000771  2.0083200  2
   2944   2941   2947   2948     1  0.0000000  1.2552000  3
   2944   2941   2947   2951     1  180.0000771  2.0083200  2
   2944   2941   2947   2951     1  0.0000000  1.2552000  3
   2947   2941   2944   2964     1  0.0000000  0.6508444  3
   2947   2948   2957   2961     1  0.0000000  0.6508444  3
   2947   2951   2954   2960     1  0.0000000  0.6508444  3
   2948   2947   2951   2954     1  180.0000771  2.0083200  2
   2948   2947   2951   2954     1  0.0000000  1.2552000  3
   2948   2957   2961   2963     1  180.0000771  0.0000000  2
   2948   2957   2961   4497     1  0.0000000  0.2928800  2
   2948   2957   2961   4497     1  0.0000000  0.4184000  4
   2951   2947   2948   2957     1  180.0000771  2.0083200  2
   2951   2947   2948   2957     1  0.0000000  1.2552000  3
   2951   2954   2960   4485     1  0.0000000  0.2928800  2
   2951   2954   2960   4485     1  0.0000000  0.4184000  4
   2951   2954   2960   2962     1  180.0000771  0.0000000  2
   2954   2960   4485   4487     1  180.0000771  6.2760000  1
   2954   2960   4485   4487     1  0.0000000  0.0000000  2
   2957   2961   4497   4499     1  180.0000771  6.2760000  1
   2957   2961   4497   4499     1  0.0000000  0.0000000  2
   2960   4485   4487   4488     1  0.0000000  2.2175200  1
   2960   4485   4487   4488     1  0.0000000  0.0000000  2
   2960   4485   4487   4488     1  180.0000771  0.6276000  3
   2960   4485   4487   4488     1  180.0000771  2.0920000  4
   2961   4497   4499   4500     1  0.0000000  2.2175200  1
   2961   4497   4499   4500     1  0.0000000  0.0000000  2
   2961   4497   4499   4500     1  180.0000771  0.6276000  3
   2961   4497   4499   4500     1  180.0000771  2.0920000  4
   2962   2960   4485   4487     1  180.0000771  10.4600000  2
   2963   2961   4497   4499     1  180.0000771  10.4600000  2
   2966   2972   2973   2982     1  180.0000771  2.0083200  2
   2966   2972   2973   2982     1  0.0000000  1.2552000  3
   2966   2972   2976   2979     1  180.0000771  2.0083200  2
   2966   2972   2976   2979     1  0.0000000  1.2552000  3
   2969   2966   2972   2973     1  180.0000771  2.0083200  2
   2969   2966   2972   2973     1  0.0000000  1.2552000  3
   2969   2966   2972   2976     1  180.0000771  2.0083200  2
   2969   2966   2972   2976     1  0.0000000  1.2552000  3
   2972   2966   2969   2989     1  0.0000000  0.6508444  3
   2972   2973   2982   2986     1  0.0000000  0.6508444  3
   2972   2976   2979   2985     1  0.0000000  0.6508444  3
   2973   2972   2976   2979     1  180.0000771  2.0083200  2
   2973   2972   2976   2979     1  0.0000000  1.2552000  3
   2973   2982   2986   2988     1  180.0000771  0.0000000  2
   2973   2982   2986   4521     1  0.0000000  0.2928800  2
   2973   2982   2986   4521     1  0.0000000  0.4184000  4
   2976   2972   2973   2982     1  180.0000771  2.0083200  2
   2976   2972   2973   2982     1  0.0000000  1.2552000  3
   2976   2979   2985   4509     1  0.0000000  0.2928800  2
   2976   2979   2985   4509     1  0.0000000  0.4184000  4
   2976   2979   2985   2987     1  180.0000771  0.0000000  2
   2979   2985   4509   4511     1  180.0000771  6.2760000  1
   2979   2985   4509   4511     1  0.0000000  0.0000000  2
   2982   2986   4521   4523     1  180.0000771  6.2760000  1
   2982   2986   4521   4523     1  0.0000000  0.0000000  2
   2985   4509   4511   4512     1  0.0000000  2.2175200  1
   2985   4509   4511   4512     1  0.0000000  0.0000000  2
   2985   4509   4511   4512     1  180.0000771  0.6276000  3
   2985   4509   4511   4512     1  180.0000771  2.0920000  4
   2986   4521   4523   4524     1  0.0000000  2.2175200  1
   2986   4521   4523   4524     1  0.0000000  0.0000000  2
   2986   4521   4523   4524     1  180.0000771  0.6276000  3
   2986   4521   4523   4524     1  180.0000771  2.0920000  4
   2987   2985   4509   4511     1  180.0000771  10.4600000  2
   2988   2986   4521   4523     1  180.0000771  10.4600000  2
   2991   2997   2998   3007     1  180.0000771  2.0083200  2
   2991   2997   2998   3007     1  0.0000000  1.2552000  3
   2991   2997   3001   3004     1  180.0000771  2.0083200  2
   2991   2997   3001   3004     1  0.0000000  1.2552000  3
   2994   2991   2997   2998     1  180.0000771  2.0083200  2
   2994   2991   2997   2998     1  0.0000000  1.2552000  3
   2994   2991   2997   3001     1  180.0000771  2.0083200  2
   2994   2991   2997   3001     1  0.0000000  1.2552000  3
   2997   2991   2994   3014     1  0.0000000  0.6508444  3
   2997   2998   3007   3011     1  0.0000000  0.6508444  3
   2997   3001   3004   3010     1  0.0000000  0.6508444  3
   2998   2997   3001   3004     1  180.0000771  2.0083200  2
   2998   2997   3001   3004     1  0.0000000  1.2552000  3
   2998   3007   3011   3013     1  180.0000771  0.0000000  2
   2998   3007   3011   4545     1  0.0000000  0.2928800  2
   2998   3007   3011   4545     1  0.0000000  0.4184000  4
   3001   2997   2998   3007     1  180.0000771  2.0083200  2
   3001   2997   2998   3007     1  0.0000000  1.2552000  3
   3001   3004   3010   4533     1  0.0000000  0.2928800  2
   3001   3004   3010   4533     1  0.0000000  0.4184000  4
   3001   3004   3010   3012     1  180.0000771  0.0000000  2
   3004   3010   4533   4535     1  180.0000771  6.2760000  1
   3004   3010   4533   4535     1  0.0000000  0.0000000  2
   3007   3011   4545   4547     1  180.0000771  6.2760000  1
   3007   3011   4545   4547     1  0.0000000  0.0000000  2
   3010   4533   4535   4536     1  0.0000000  2.2175200  1
   3010   4533   4535   4536     1  0.0000000  0.0000000  2
   3010   4533   4535   4536     1  180.0000771  0.6276000  3
   3010   4533   4535   4536     1  180.0000771  2.0920000  4
   3011   4545   4547   4548     1  0.0000000  2.2175200  1
   3011   4545   4547   4548     1  0.0000000  0.0000000  2
   3011   4545   4547   4548     1  180.0000771  0.6276000  3
   3011   4545   4547   4548     1  180.0000771  2.0920000  4
   3012   3010   4533   4535     1  180.0000771  10.4600000  2
   3013   3011   4545   4547     1  180.0000771  10.4600000  2
   3016   3022   3023   3032     1  180.0000771  2.0083200  2
   3016   3022   3023   3032     1  0.0000000  1.2552000  3
   3016   3022   3026   3029     1  180.0000771  2.0083200  2
   3016   3022   3026   3029     1  0.0000000  1.2552000  3
   3019   3016   3022   3023     1  180.0000771  2.0083200  2
   3019   3016   3022   3023     1  0.0000000  1.2552000  3
   3019   3016   3022   3026     1  180.0000771  2.0083200  2
   3019   3016   3022   3026     1  0.0000000  1.2552000  3
   3022   3016   3019   3039     1  0.0000000  0.6508444  3
   3022   3023   3032   3036     1  0.0000000  0.6508444  3
   3022   3026   3029   3035     1  0.0000000  0.6508444  3
   3023   3022   3026   3029     1  180.0000771  2.0083200  2
   3023   3022   3026   3029     1  0.0000000  1.2552000  3
   3023   3032   3036   3038     1  180.0000771  0.0000000  2
   3023   3032   3036   4569     1  0.0000000  0.2928800  2
   3023   3032   3036   4569     1  0.0000000  0.4184000  4
   3026   3022   3023   3032     1  180.0000771  2.0083200  2
   3026   3022   3023   3032     1  0.0000000  1.2552000  3
   3026   3029   3035   4557     1  0.0000000  0.2928800  2
   3026   3029   3035   4557     1  0.0000000  0.4184000  4
   3026   3029   3035   3037     1  180.0000771  0.0000000  2
   3029   3035   4557   4559     1  180.0000771  6.2760000  1
   3029   3035   4557   4559     1  0.0000000  0.0000000  2
   3032   3036   4569   4571     1  180.0000771  6.2760000  1
   3032   3036   4569   4571     1  0.0000000  0.0000000  2
   3035   4557   4559   4560     1  0.0000000  2.2175200  1
   3035   4557   4559   4560     1  0.0000000  0.0000000  2
   3035   4557   4559   4560     1  180.0000771  0.6276000  3
   3035   4557   4559   4560     1  180.0000771  2.0920000  4
   3036   4569   4571   4572     1  0.0000000  2.2175200  1
   3036   4569   4571   4572     1  0.0000000  0.0000000  2
   3036   4569   4571   4572     1  180.0000771  0.6276000  3
   3036   4569   4571   4572     1  180.0000771  2.0920000  4
   3037   3035   4557   4559     1  180.0000771  10.4600000  2
   3038   3036   4569   4571     1  180.0000771  10.4600000  2
   3041   3047   3048   3057     1  180.0000771  2.0083200  2
   3041   3047   3048   3057     1  0.0000000  1.2552000  3
   3041   3047   3051   3054     1  180.0000771  2.0083200  2
   3041   3047   3051   3054     1  0.0000000  1.2552000  3
   3044   3041   3047   3048     1  180.0000771  2.0083200  2
   3044   3041   3047   3048     1  0.0000000  1.2552000  3
   3044   3041   3047   3051     1  180.0000771  2.0083200  2
   3044   3041   3047   3051     1  0.0000000  1.2552000  3
   3047   3041   3044   3064     1  0.0000000  0.6508444  3
   3047   3048   3057   3061     1  0.0000000  0.6508444  3
   3047   3051   3054   3060     1  0.0000000  0.6508444  3
   3048   3047   3051   3054     1  180.0000771  2.0083200  2
   3048   3047   3051   3054     1  0.0000000  1.2552000  3
   3048   3057   3061   3063     1  180.0000771  0.0000000  2
   3048   3057   3061   4593     1  0.0000000  0.2928800  2
   3048   3057   3061   4593     1  0.0000000  0.4184000  4
   3051   3047   3048   3057     1  180.0000771  2.0083200  2
   3051   3047   3048   3057     1  0.0000000  1.2552000  3
   3051   3054   3060   4581     1  0.0000000  0.2928800  2
   3051   3054   3060   4581     1  0.0000000  0.4184000  4
   3051   3054   3060   3062     1  180.0000771  0.0000000  2
   3054   3060   4581   4583     1  180.0000771  6.2760000  1
   3054   3060   4581   4583     1  0.0000000  0.0000000  2
   3057   3061   4593   4595     1  180.0000771  6.2760000  1
   3057   3061   4593   4595     1  0.0000000  0.0000000  2
   3060   4581   4583   4584     1  0.0000000  2.2175200  1
   3060   4581   4583   4584     1  0.0000000  0.0000000  2
   3060   4581   4583   4584     1  180.0000771  0.6276000  3
   3060   4581   4583   4584     1  180.0000771  2.0920000  4
   3061   4593   4595   4596     1  0.0000000  2.2175200  1
   3061   4593   4595   4596     1  0.0000000  0.0000000  2
   3061   4593   4595   4596     1  180.0000771  0.6276000  3
   3061   4593   4595   4596     1  180.0000771  2.0920000  4
   3062   3060   4581   4583     1  180.0000771  10.4600000  2
   3063   3061   4593   4595     1  180.0000771  10.4600000  2
   3066   3072   3073   3082     1  180.0000771  2.0083200  2
   3066   3072   3073   3082     1  0.0000000  1.2552000  3
   3066   3072   3076   3079     1  180.0000771  2.0083200  2
   3066   3072   3076   3079     1  0.0000000  1.2552000  3
   3069   3066   3072   3073     1  180.0000771  2.0083200  2
   3069   3066   3072   3073     1  0.0000000  1.2552000  3
   3069   3066   3072   3076     1  180.0000771  2.0083200  2
   3069   3066   3072   3076     1  0.0000000  1.2552000  3
   3072   3066   3069   3089     1  0.0000000  0.6508444  3
   3072   3073   3082   3086     1  0.0000000  0.6508444  3
   3072   3076   3079   3085     1  0.0000000  0.6508444  3
   3073   3072   3076   3079     1  180.0000771  2.0083200  2
   3073   3072   3076   3079     1  0.0000000  1.2552000  3
   3073   3082   3086   3088     1  180.0000771  0.0000000  2
   3073   3082   3086   4617     1  0.0000000  0.2928800  2
   3073   3082   3086   4617     1  0.0000000  0.4184000  4
   3076   3072   3073   3082     1  180.0000771  2.0083200  2
   3076   3072   3073   3082     1  0.0000000  1.2552000  3
   3076   3079   3085   4605     1  0.0000000  0.2928800  2
   3076   3079   3085   4605     1  0.0000000  0.4184000  4
   3076   3079   3085   3087     1  180.0000771  0.0000000  2
   3079   3085   4605   4607     1  180.0000771  6.2760000  1
   3079   3085   4605   4607     1  0.0000000  0.0000000  2
   3082   3086   4617   4619     1  180.0000771  6.2760000  1
   3082   3086   4617   4619     1  0.0000000  0.0000000  2
   3085   4605   4607   4608     1  0.0000000  2.2175200  1
   3085   4605   4607   4608     1  0.0000000  0.0000000  2
   3085   4605   4607   4608     1  180.0000771  0.6276000  3
   3085   4605   4607   4608     1  180.0000771  2.0920000  4
   3086   4617   4619   4620     1  0.0000000  2.2175200  1
   3086   4617   4619   4620     1  0.0000000  0.0000000  2
   3086   4617   4619   4620     1  180.0000771  0.6276000  3
   3086   4617   4619   4620     1  180.0000771  2.0920000  4
   3087   3085   4605   4607     1  180.0000771  10.4600000  2
   3088   3086   4617   4619     1  180.0000771  10.4600000  2
   3091   3097   3098   3107     1  180.0000771  2.0083200  2
   3091   3097   3098   3107     1  0.0000000  1.2552000  3
   3091   3097   3101   3104     1  180.0000771  2.0083200  2
   3091   3097   3101   3104     1  0.0000000  1.2552000  3
   3094   3091   3097   3098     1  180.0000771  2.0083200  2
   3094   3091   3097   3098     1  0.0000000  1.2552000  3
   3094   3091   3097   3101     1  180.0000771  2.0083200  2
   3094   3091   3097   3101     1  0.0000000  1.2552000  3
   3097   3091   3094   3114     1  0.0000000  0.6508444  3
   3097   3098   3107   3111     1  0.0000000  0.6508444  3
   3097   3101   3104   3110     1  0.0000000  0.6508444  3
   3098   3097   3101   3104     1  180.0000771  2.0083200  2
   3098   3097   3101   3104     1  0.0000000  1.2552000  3
   3098   3107   3111   3113     1  180.0000771  0.0000000  2
   3098   3107   3111   4641     1  0.0000000  0.2928800  2
   3098   3107   3111   4641     1  0.0000000  0.4184000  4
   3101   3097   3098   3107     1  180.0000771  2.0083200  2
   3101   3097   3098   3107     1  0.0000000  1.2552000  3
   3101   3104   3110   4629     1  0.0000000  0.2928800  2
   3101   3104   3110   4629     1  0.0000000  0.4184000  4
   3101   3104   3110   3112     1  180.0000771  0.0000000  2
   3104   3110   4629   4631     1  180.0000771  6.2760000  1
   3104   3110   4629   4631     1  0.0000000  0.0000000  2
   3107   3111   4641   4643     1  180.0000771  6.2760000  1
   3107   3111   4641   4643     1  0.0000000  0.0000000  2
   3110   4629   4631   4632     1  0.0000000  2.2175200  1
   3110   4629   4631   4632     1  0.0000000  0.0000000  2
   3110   4629   4631   4632     1  180.0000771  0.6276000  3
   3110   4629   4631   4632     1  180.0000771  2.0920000  4
   3111   4641   4643   4644     1  0.0000000  2.2175200  1
   3111   4641   4643   4644     1  0.0000000  0.0000000  2
   3111   4641   4643   4644     1  180.0000771  0.6276000  3
   3111   4641   4643   4644     1  180.0000771  2.0920000  4
   3112   3110   4629   4631     1  180.0000771  10.4600000  2
   3113   3111   4641   4643     1  180.0000771  10.4600000  2
   3116   3122   3123   3132     1  180.0000771  2.0083200  2
   3116   3122   3123   3132     1  0.0000000  1.2552000  3
   3116   3122   3126   3129     1  180.0000771  2.0083200  2
   3116   3122   3126   3129     1  0.0000000  1.2552000  3
   3119   3116   3122   3123     1  180.0000771  2.0083200  2
   3119   3116   3122   3123     1  0.0000000  1.2552000  3
   3119   3116   3122   3126     1  180.0000771  2.0083200  2
   3119   3116   3122   3126     1  0.0000000  1.2552000  3
   3122   3116   3119   3139     1  0.0000000  0.6508444  3
   3122   3123   3132   3136     1  0.0000000  0.6508444  3
   3122   3126   3129   3135     1  0.0000000  0.6508444  3
   3123   3122   3126   3129     1  180.0000771  2.0083200  2
   3123   3122   3126   3129     1  0.0000000  1.2552000  3
   3123   3132   3136   4665     1  0.0000000  0.2928800  2
   3123   3132   3136   4665     1  0.0000000  0.4184000  4
   3123   3132   3136   3138     1  180.0000771  0.0000000  2
   3126   3122   3123   3132     1  180.0000771  2.0083200  2
   3126   3122   3123   3132     1  0.0000000  1.2552000  3
   3126   3129   3135   4653     1  0.0000000  0.2928800  2
   3126   3129   3135   4653     1  0.0000000  0.4184000  4
   3126   3129   3135   3137     1  180.0000771  0.0000000  2
   3129   3135   4653   4655     1  180.0000771  6.2760000  1
   3129   3135   4653   4655     1  0.0000000  0.0000000  2
   3132   3136   4665   4667     1  180.0000771  6.2760000  1
   3132   3136   4665   4667     1  0.0000000  0.0000000  2
   3135   4653   4655   4656     1  0.0000000  2.2175200  1
   3135   4653   4655   4656     1  0.0000000  0.0000000  2
   3135   4653   4655   4656     1  180.0000771  0.6276000  3
   3135   4653   4655   4656     1  180.0000771  2.0920000  4
   3136   4665   4667   4668     1  0.0000000  2.2175200  1
   3136   4665   4667   4668     1  0.0000000  0.0000000  2
   3136   4665   4667   4668     1  180.0000771  0.6276000  3
   3136   4665   4667   4668     1  180.0000771  2.0920000  4
   3137   3135   4653   4655     1  180.0000771  10.4600000  2
   3138   3136   4665   4667     1  180.0000771  10.4600000  2
   3141   3143   3144   3149     1  0.0000000  0.6508444  3
   3153   3155   3156   3161     1  0.0000000  0.6508444  3
   3165   3167   3168   3173     1  0.0000000  0.6508444  3
   3177   3179   3180   3185     1  0.0000000  0.6508444  3
   3189   3191   3192   3197     1  0.0000000  0.6508444  3
   3201   3203   3204   3209     1  0.0000000  0.6508444  3
   3213   3215   3216   3221     1  0.0000000  0.6508444  3
   3225   3227   3228   3233     1  0.0000000  0.6508444  3
   3237   3239   3240   3245     1  0.0000000  0.6508444  3
   3249   3251   3252   3257     1  0.0000000  0.6508444  3
   3261   3263   3264   3269     1  0.0000000  0.6508444  3
   3273   3275   3276   3281     1  0.0000000  0.6508444  3
   3285   3287   3288   3293     1  0.0000000  0.6508444  3
   3297   3299   3300   3305     1  0.0000000  0.6508444  3
   3309   3311   3312   3317     1  0.0000000  0.6508444  3
   3321   3323   3324   3329     1  0.0000000  0.6508444  3
   3333   3335   3336   3341     1  0.0000000  0.6508444  3
   3345   3347   3348   3353     1  0.0000000  0.6508444  3
   3357   3359   3360   3365     1  0.0000000  0.6508444  3
   3369   3371   3372   3377     1  0.0000000  0.6508444  3
   3381   3383   3384   3389     1  0.0000000  0.6508444  3
   3393   3395   3396   3401     1  0.0000000  0.6508444  3
   3405   3407   3408   3413     1  0.0000000  0.6508444  3
   3417   3419   3420   3425     1  0.0000000  0.6508444  3
   3429   3431   3432   3437     1  0.0000000  0.6508444  3
   3441   3443   3444   3449     1  0.0000000  0.6508444  3
   3453   3455   3456   3461     1  0.0000000  0.6508444  3
   3465   3467   3468   3473     1  0.0000000  0.6508444  3
   3477   3479   3480   3485     1  0.0000000  0.6508444  3
   3489   3491   3492   3497     1  0.0000000  0.6508444  3
   3501   3503   3504   3509     1  0.0000000  0.6508444  3
   3513   3515   3516   3521     1  0.0000000  0.6508444  3
   3525   3527   3528   3533     1  0.0000000  0.6508444  3
   3537   3539   3540   3545     1  0.0000000  0.6508444  3
   3549   3551   3552   3557     1  0.0000000  0.6508444  3
   3561   3563   3564   3569     1  0.0000000  0.6508444  3
   3573   3575   3576   3581     1  0.0000000  0.6508444  3
   3585   3587   3588   3593     1  0.0000000  0.6508444  3
   3597   3599   3600   3605     1  0.0000000  0.6508444  3
   3609   3611   3612   3617     1  0.0000000  0.6508444  3
   3621   3623   3624   3629     1  0.0000000  0.6508444  3
   3633   3635   3636   3641     1  0.0000000  0.6508444  3
   3645   3647   3648   3653     1  0.0000000  0.6508444  3
   3657   3659   3660   3665     1  0.0000000  0.6508444  3
   3669   3671   3672   3677     1  0.0000000  0.6508444  3
   3681   3683   3684   3689     1  0.0000000  0.6508444  3
   3693   3695   3696   3701     1  0.0000000  0.6508444  3
   3705   3707   3708   3713     1  0.0000000  0.6508444  3
   3717   3719   3720   3725     1  0.0000000  0.6508444  3
   3729   3731   3732   3737     1  0.0000000  0.6508444  3
   3741   3743   3744   3749     1  0.0000000  0.6508444  3
   3753   3755   3756   3761     1  0.0000000  0.6508444  3
   3765   3767   3768   3773     1  0.0000000  0.6508444  3
   3777   3779   3780   3785     1  0.0000000  0.6508444  3
   3789   3791   3792   3797     1  0.0000000  0.6508444  3
   3801   3803   3804   3809     1  0.0000000  0.6508444  3
   3813   3815   3816   3821     1  0.0000000  0.6508444  3
   3825   3827   3828   3833     1  0.0000000  0.6508444  3
   3837   3839   3840   3845     1  0.0000000  0.6508444  3
   3849   3851   3852   3857     1  0.0000000  0.6508444  3
   3861   3863   3864   3869     1  0.0000000  0.6508444  3
   3873   3875   3876   3881     1  0.0000000  0.6508444  3
   3885   3887   3888   3893     1  0.0000000  0.6508444  3
   3897   3899   3900   3905     1  0.0000000  0.6508444  3
   3909   3911   3912   3917     1  0.0000000  0.6508444  3
   3921   3923   3924   3929     1  0.0000000  0.6508444  3
   3933   3935   3936   3941     1  0.0000000  0.6508444  3
   3945   3947   3948   3953     1  0.0000000  0.6508444  3
   3957   3959   3960   3965     1  0.0000000  0.6508444  3
   3969   3971   3972   3977     1  0.0000000  0.6508444  3
   3981   3983   3984   3989     1  0.0000000  0.6508444  3
   3993   3995   3996   4001     1  0.0000000  0.6508444  3
   4005   4007   4008   4013     1  0.0000000  0.6508444  3
   4017   4019   4020   4025     1  0.0000000  0.6508444  3
   4029   4031   4032   4037     1  0.0000000  0.6508444  3
   4041   4043   4044   4049     1  0.0000000  0.6508444  3
   4053   4055   4056   4061     1  0.0000000  0.6508444  3
   4065   4067   4068   4073     1  0.0000000  0.6508444  3
   4077   4079   4080   4085     1  0.0000000  0.6508444  3
   4089   4091   4092   4097     1  0.0000000  0.6508444  3
   4101   4103   4104   4109     1  0.0000000  0.6508444  3
   4113   4115   4116   4121     1  0.0000000  0.6508444  3
   4125   4127   4128   4133     1  0.0000000  0.6508444  3
   4137   4139   4140   4145     1  0.0000000  0.6508444  3
   4149   4151   4152   4157     1  0.0000000  0.6508444  3
   4161   4163   4164   4169     1  0.0000000  0.6508444  3
   4173   4175   4176   4181     1  0.0000000  0.6508444  3
   4185   4187   4188   4193     1  0.0000000  0.6508444  3
   4197   4199   4200   4205     1  0.0000000  0.6508444  3
   4209   4211   4212   4217     1  0.0000000  0.6508444  3
   4221   4223   4224   4229     1  0.0000000  0.6508444  3
   4233   4235   4236   4241     1  0.0000000  0.6508444  3
   4245   4247   4248   4253     1  0.0000000  0.6508444  3
   4257   4259   4260   4265     1  0.0000000  0.6508444  3
   4269   4271   4272   4277     1  0.0000000  0.6508444  3
   4281   4283   4284   4289     1  0.0000000  0.6508444  3
   4293   4295   4296   4301     1  0.0000000  0.6508444  3
   4305   4307   4308   4313     1  0.0000000  0.6508444  3
   4317   4319   4320   4325     1  0.0000000  0.6508444  3
   4329   4331   4332   4337     1  0.0000000  0.6508444  3
   4341   4343   4344   4349     1  0.0000000  0.6508444  3
   4353   4355   4356   4361     1  0.0000000  0.6508444  3
   4365   4367   4368   4373     1  0.0000000  0.6508444  3
   4377   4379   4380   4385     1  0.0000000  0.6508444  3
   4389   4391   4392   4397     1  0.0000000  0.6508444  3
   4401   4403   4404   4409     1  0.0000000  0.6508444  3
   4413   4415   4416   4421     1  0.0000000  0.6508444  3
   4425   4427   4428   4433     1  0.0000000  0.6508444  3
   4437   4439   4440   4445     1  0.0000000  0.6508444  3
   4449   4451   4452   4457     1  0.0000000  0.6508444  3
   4461   4463   4464   4469     1  0.0000000  0.6508444  3
   4473   4475   4476   4481     1  0.0000000  0.6508444  3
   4485   4487   4488   4493     1  0.0000000  0.6508444  3
   4497   4499   4500   4505     1  0.0000000  0.6508444  3
   4509   4511   4512   4517     1  0.0000000  0.6508444  3
   4521   4523   4524   4529     1  0.0000000  0.6508444  3
   4533   4535   4536   4541     1  0.0000000  0.6508444  3
   4545   4547   4548   4553     1  0.0000000  0.6508444  3
   4557   4559   4560   4565     1  0.0000000  0.6508444  3
   4569   4571   4572   4577     1  0.0000000  0.6508444  3
   4581   4583   4584   4589     1  0.0000000  0.6508444  3
   4593   4595   4596   4601     1  0.0000000  0.6508444  3
   4605   4607   4608   4613     1  0.0000000  0.6508444  3
   4617   4619   4620   4625     1  0.0000000  0.6508444  3
   4629   4631   4632   4637     1  0.0000000  0.6508444  3
   4641   4643   4644   4649     1  0.0000000  0.6508444  3
   4653   4655   4656   4661     1  0.0000000  0.6508444  3
   4665   4667   4668   4673     1  0.0000000  0.6508444  3
     27     64     33     37     4  180.0000771  43.9320000  2
     30     89     34     40     4  180.0000771  43.9320000  2
     21    114     35     38     4  180.0000771  43.9320000  2
     24    139     36     39     4  180.0000771  43.9320000  2
     54    164     60     62     4  180.0000771  43.9320000  2
     57    189     61     63     4  180.0000771  43.9320000  2
     79    214     85     87     4  180.0000771  43.9320000  2
     82    239     86     88     4  180.0000771  43.9320000  2
    104    264    110    112     4  180.0000771  43.9320000  2
    107    289    111    113     4  180.0000771  43.9320000  2
    129    314    135    137     4  180.0000771  43.9320000  2
    132    339    136    138     4  180.0000771  43.9320000  2
    154    364    160    162     4  180.0000771  43.9320000  2
    157    389    161    163     4  180.0000771  43.9320000  2
    179    414    185    187     4  180.0000771  43.9320000  2
    182    439    186    188     4  180.0000771  43.9320000  2
    204    464    210    212     4  180.0000771  43.9320000  2
    207    489    211    213     4  180.0000771  43.9320000  2
    229    514    235    237     4  180.0000771  43.9320000  2
    232    539    236    238     4  180.0000771  43.9320000  2
    254    564    260    262     4  180.0000771  43.9320000  2
    257    589    261    263     4  180.0000771  43.9320000  2
    279    614    285    287     4  180.0000771  43.9320000  2
    282    639    286    288     4  180.0000771  43.9320000  2
    304    664    310    312     4  180.0000771  43.9320000  2
    307    689    311    313     4  180.0000771  43.9320000  2
    329    714    335    337     4  180.0000771  43.9320000  2
    332    739    336    338     4  180.0000771  43.9320000  2
    354    764    360    362     4  180.0000771  43.9320000  2
    357    789    361    363     4  180.0000771  43.9320000  2
    379    814    385    387     4  180.0000771  43.9320000  2
    382    839    386    388     4  180.0000771  43.9320000  2
    404    864    410    412     4  180.0000771  43.9320000  2
    407    889    411    413     4  180.0000771  43.9320000  2
    429    914    435    437     4  180.0000771  43.9320000  2
    432    939    436    438     4  180.0000771  43.9320000  2
    454    964    460    462     4  180.0000771  43.9320000  2
    457    989    461    463     4  180.0000771  43.9320000  2
    479   1014    485    487     4  180.0000771  43.9320000  2
    482   1039    486    488     4  180.0000771  43.9320000  2
    504   1064    510    512     4  180.0000771  43.9320000  2
    507   1089    511    513     4  180.0000771  43.9320000  2
    529   1114    535    537     4  180.0000771  43.9320000  2
    532   1139    536    538     4  180.0000771  43.9320000  2
    554   1164    560    562     4  180.0000771  43.9320000  2
    557   1189    561    563     4  180.0000771  43.9320000  2
    579   1214    585    587     4  180.0000771  43.9320000  2
    582   1239    586    588     4  180.0000771  43.9320000  2
    604   1264    610    612     4  180.0000771  43.9320000  2
    607   1289    611    613     4  180.0000771  43.9320000  2
    629   1314    635    637     4  180.0000771  43.9320000  2
    632   1339    636    638     4  180.0000771  43.9320000  2
    654   1364    660    662     4  180.0000771  43.9320000  2
    657   1389    661    663     4  180.0000771  43.9320000  2
    679   1414    685    687     4  180.0000771  43.9320000  2
    682   1439    686    688     4  180.0000771  43.9320000  2
    704   1464    710    712     4  180.0000771  43.9320000  2
    707   1489    711    713     4  180.0000771  43.9320000  2
    729   1514    735    737     4  180.0000771  43.9320000  2
    732   1539    736    738     4  180.0000771  43.9320000  2
    754   1564    760    762     4  180.0000771  43.9320000  2
    757   1589    761    763     4  180.0000771  43.9320000  2
    779   1614    785    787     4  180.0000771  43.9320000  2
    782   1639    786    788     4  180.0000771  43.9320000  2
    804   1664    810    812     4  180.0000771  43.9320000  2
    807   1689    811    813     4  180.0000771  43.9320000  2
    829   1714    835    837     4  180.0000771  43.9320000  2
    832   1739    836    838     4  180.0000771  43.9320000  2
    854   1764    860    862     4  180.0000771  43.9320000  2
    857   1789    861    863     4  180.0000771  43.9320000  2
    879   1814    885    887     4  180.0000771  43.9320000  2
    882   1839    886    888     4  180.0000771  43.9320000  2
    904   1864    910    912     4  180.0000771  43.9320000  2
    907   1889    911    913     4  180.0000771  43.9320000  2
    929   1914    935    937     4  180.0000771  43.9320000  2
    932   1939    936    938     4  180.0000771  43.9320000  2
    954   1964    960    962     4  180.0000771  43.9320000  2
    957   1989    961    963     4  180.0000771  43.9320000  2
    979   2014    985    987     4  180.0000771  43.9320000  2
    982   2039    986    988     4  180.0000771  43.9320000  2
   1004   2064   1010   1012     4  180.0000771  43.9320000  2
   1007   2089   1011   1013     4  180.0000771  43.9320000  2
   1029   2114   1035   1037     4  180.0000771  43.9320000  2
   1032   2139   1036   1038     4  180.0000771  43.9320000  2
   1054   2164   1060   1062     4  180.0000771  43.9320000  2
   1057   2189   1061   1063     4  180.0000771  43.9320000  2
   1079   2214   1085   1087     4  180.0000771  43.9320000  2
   1082   2239   1086   1088     4  180.0000771  43.9320000  2
   1104   2264   1110   1112     4  180.0000771  43.9320000  2
   1107   2289   1111   1113     4  180.0000771  43.9320000  2
   1129   2314   1135   1137     4  180.0000771  43.9320000  2
   1132   2339   1136   1138     4  180.0000771  43.9320000  2
   1154   2364   1160   1162     4  180.0000771  43.9320000  2
   1157   2389   1161   1163     4  180.0000771  43.9320000  2
   1179   2414   1185   1187     4  180.0000771  43.9320000  2
   1182   2439   1186   1188     4  180.0000771  43.9320000  2
   1204   2464   1210   1212     4  180.0000771  43.9320000  2
   1207   2489   1211   1213     4  180.0000771  43.9320000  2
   1229   2514   1235   1237     4  180.0000771  43.9320000  2
   1232   2539   1236   1238     4  180.0000771  43.9320000  2
   1254   2564   1260   1262     4  180.0000771  43.9320000  2
   1257   2589   1261   1263     4  180.0000771  43.9320000  2
   1279   2614   1285   1287     4  180.0000771  43.9320000  2
   1282   2639   1286   1288     4  180.0000771  43.9320000  2
   1304   2664   1310   1312     4  180.0000771  43.9320000  2
   1307   2689   1311   1313     4  180.0000771  43.9320000  2
   1329   2714   1335   1337     4  180.0000771  43.9320000  2
   1332   2739   1336   1338     4  180.0000771  43.9320000  2
   1354   2764   1360   1362     4  180.0000771  43.9320000  2
   1357   2789   1361   1363     4  180.0000771  43.9320000  2
   1379   2814   1385   1387     4  180.0000771  43.9320000  2
   1382   2839   1386   1388     4  180.0000771  43.9320000  2
   1404   2864   1410   1412     4  180.0000771  43.9320000  2
   1407   2889   1411   1413     4  180.0000771  43.9320000  2
   1429   2914   1435   1437     4  180.0000771  43.9320000  2
   1432   2939   1436   1438     4  180.0000771  43.9320000  2
   1454   2964   1460   1462     4  180.0000771  43.9320000  2
   1457   2989   1461   1463     4  180.0000771  43.9320000  2
   1479   3014   1485   1487     4  180.0000771  43.9320000  2
   1482   3039   1486   1488     4  180.0000771  43.9320000  2
   1504   3064   1510   1512     4  180.0000771  43.9320000  2
   1507   3089   1511   1513     4  180.0000771  43.9320000  2
   1529   3114   1535   1537     4  180.0000771  43.9320000  2
   1532   3139   1536   1538     4  180.0000771  43.9320000  2
   1554   3141   1560   1562     4  180.0000771  43.9320000  2
   1557   3153   1561   1563     4  180.0000771  43.9320000  2
   1579   3165   1585   1587     4  180.0000771  43.9320000  2
   1582   3177   1586   1588     4  180.0000771  43.9320000  2
   1604   3189   1610   1612     4  180.0000771  43.9320000  2
   1607   3201   1611   1613     4  180.0000771  43.9320000  2
   1629   3213   1635   1637     4  180.0000771  43.9320000  2
   1632   3225   1636   1638     4  180.0000771  43.9320000  2
   1654   3237   1660   1662     4  180.0000771  43.9320000  2
   1657   3249   1661   1663     4  180.0000771  43.9320000  2
   1679   3261   1685   1687     4  180.0000771  43.9320000  2
   1682   3273   1686   1688     4  180.0000771  43.9320000  2
   1704   3285   1710   1712     4  180.0000771  43.9320000  2
   1707   3297   1711   1713     4  180.0000771  43.9320000  2
   1729   3309   1735   1737     4  180.0000771  43.9320000  2
   1732   3321   1736   1738     4  180.0000771  43.9320000  2
   1754   3333   1760   1762     4  180.0000771  43.9320000  2
   1757   3345   1761   1763     4  180.0000771  43.9320000  2
   1779   3357   1785   1787     4  180.0000771  43.9320000  2
   1782   3369   1786   1788     4  180.0000771  43.9320000  2
   1804   3381   1810   1812     4  180.0000771  43.9320000  2
   1807   3393   1811   1813     4  180.0000771  43.9320000  2
   1829   3405   1835   1837     4  180.0000771  43.9320000  2
   1832   3417   1836   1838     4  180.0000771  43.9320000  2
   1854   3429   1860   1862     4  180.0000771  43.9320000  2
   1857   3441   1861   1863     4  180.0000771  43.9320000  2
   1879   3453   1885   1887     4  180.0000771  43.9320000  2
   1882   3465   1886   1888     4  180.0000771  43.9320000  2
   1904   3477   1910   1912     4  180.0000771  43.9320000  2
   1907   3489   1911   1913     4  180.0000771  43.9320000  2
   1929   3501   1935   1937     4  180.0000771  43.9320000  2
   1932   3513   1936   1938     4  180.0000771  43.9320000  2
   1954   3525   1960   1962     4  180.0000771  43.9320000  2
   1957   3537   1961   1963     4  180.0000771  43.9320000  2
   1979   3549   1985   1987     4  180.0000771  43.9320000  2
   1982   3561   1986   1988     4  180.0000771  43.9320000  2
   2004   3573   2010   2012     4  180.0000771  43.9320000  2
   2007   3585   2011   2013     4  180.0000771  43.9320000  2
   2029   3597   2035   2037     4  180.0000771  43.9320000  2
   2032   3609   2036   2038     4  180.0000771  43.9320000  2
   2054   3621   2060   2062     4  180.0000771  43.9320000  2
   2057   3633   2061   2063     4  180.0000771  43.9320000  2
   2079   3645   2085   2087     4  180.0000771  43.9320000  2
   2082   3657   2086   2088     4  180.0000771  43.9320000  2
   2104   3669   2110   2112     4  180.0000771  43.9320000  2
   2107   3681   2111   2113     4  180.0000771  43.9320000  2
   2129   3693   2135   2137     4  180.0000771  43.9320000  2
   2132   3705   2136   2138     4  180.0000771  43.9320000  2
   2154   3717   2160   2162     4  180.0000771  43.9320000  2
   2157   3729   2161   2163     4  180.0000771  43.9320000  2
   2179   3741   2185   2187     4  180.0000771  43.9320000  2
   2182   3753   2186   2188     4  180.0000771  43.9320000  2
   2204   3765   2210   2212     4  180.0000771  43.9320000  2
   2207   3777   2211   2213     4  180.0000771  43.9320000  2
   2229   3789   2235   2237     4  180.0000771  43.9320000  2
   2232   3801   2236   2238     4  180.0000771  43.9320000  2
   2254   3813   2260   2262     4  180.0000771  43.9320000  2
   2257   3825   2261   2263     4  180.0000771  43.9320000  2
   2279   3837   2285   2287     4  180.0000771  43.9320000  2
   2282   3849   2286   2288     4  180.0000771  43.9320000  2
   2304   3861   2310   2312     4  180.0000771  43.9320000  2
   2307   3873   2311   2313     4  180.0000771  43.9320000  2
   2329   3885   2335   2337     4  180.0000771  43.9320000  2
   2332   3897   2336   2338     4  180.0000771  43.9320000  2
   2354   3909   2360   2362     4  180.0000771  43.9320000  2
   2357   3921   2361   2363     4  180.0000771  43.9320000  2
   2379   3933   2385   2387     4  180.0000771  43.9320000  2
   2382   3945   2386   2388     4  180.0000771  43.9320000  2
   2404   3957   2410   2412     4  180.0000771  43.9320000  2
   2407   3969   2411   2413     4  180.0000771  43.9320000  2
   2429   3981   2435   2437     4  180.0000771  43.9320000  2
   2432   3993   2436   2438     4  180.0000771  43.9320000  2
   2454   4005   2460   2462     4  180.0000771  43.9320000  2
   2457   4017   2461   2463     4  180.0000771  43.9320000  2
   2479   4029   2485   2487     4  180.0000771  43.9320000  2
   2482   4041   2486   2488     4  180.0000771  43.9320000  2
   2504   4053   2510   2512     4  180.0000771  43.9320000  2
   2507   4065   2511   2513     4  180.0000771  43.9320000  2
   2529   4077   2535   2537     4  180.0000771  43.9320000  2
   2532   4089   2536   2538     4  180.0000771  43.9320000  2
   2554   4101   2560   2562     4  180.0000771  43.9320000  2
   2557   4113   2561   2563     4  180.0000771  43.9320000  2
   2579   4125   2585   2587     4  180.0000771  43.9320000  2
   2582   4137   2586   2588     4  180.0000771  43.9320000  2
   2604   4149   2610   2612     4  180.0000771  43.9320000  2
   2607   4161   2611   2613     4  180.0000771  43.9320000  2
   2629   4173   2635   2637     4  180.0000771  43.9320000  2
   2632   4185   2636   2638     4  180.0000771  43.9320000  2
   2654   4197   2660   2662     4  180.0000771  43.9320000  2
   2657   4209   2661   2663     4  180.0000771  43.9320000  2
   2679   4221   2685   2687     4  180.0000771  43.9320000  2
   2682   4233   2686   2688     4  180.0000771  43.9320000  2
   2704   4245   2710   2712     4  180.0000771  43.9320000  2
   2707   4257   2711   2713     4  180.0000771  43.9320000  2
   2729   4269   2735   2737     4  180.0000771  43.9320000  2
   2732   4281   2736   2738     4  180.0000771  43.9320000  2
   2754   4293   2760   2762     4  180.0000771  43.9320000  2
   2757   4305   2761   2763     4  180.0000771  43.9320000  2
   2779   4317   2785   2787     4  180.0000771  43.9320000  2
   2782   4329   2786   2788     4  180.0000771  43.9320000  2
   2804   4341   2810   2812     4  180.0000771  43.9320000  2
   2807   4353   2811   2813     4  180.0000771  43.9320000  2
   2829   4365   2835   2837     4  180.0000771  43.9320000  2
   2832   4377   2836   2838     4  180.0000771  43.9320000  2
   2854   4389   2860   2862     4  180.0000771  43.9320000  2
   2857   4401   2861   2863     4  180.0000771  43.9320000  2
   2879   4413   2885   2887     4  180.0000771  43.9320000  2
   2882   4425   2886   2888     4  180.0000771  43.9320000  2
   2904   4437   2910   2912     4  180.0000771  43.9320000  2
   2907   4449   2911   2913     4  180.0000771  43.9320000  2
   2929   4461   2935   2937     4  180.0000771  43.9320000  2
   2932   4473   2936   2938     4  180.0000771  43.9320000  2
   2954   4485   2960   2962     4  180.0000771  43.9320000  2
   2957   4497   2961   2963     4  180.0000771  43.9320000  2
   2979   4509   2985   2987     4  180.0000771  43.9320000  2
   2982   4521   2986   2988     4  180.0000771  43.9320000  2
   3004   4533   3010   3012     4  180.0000771  43.9320000  2
   3007   4545   3011   3013     4  180.0000771  43.9320000  2
   3029   4557   3035   3037     4  180.0000771  43.9320000  2
   3032   4569   3036   3038     4  180.0000771  43.9320000  2
   3054   4581   3060   3062     4  180.0000771  43.9320000  2
   3057   4593   3061   3063     4  180.0000771  43.9320000  2
   3079   4605   3085   3087     4  180.0000771  43.9320000  2
   3082   4617   3086   3088     4  180.0000771  43.9320000  2
   3104   4629   3110   3112     4  180.0000771  43.9320000  2
   3107   4641   3111   3113     4  180.0000771  43.9320000  2
   3129   4653   3135   3137     4  180.0000771  43.9320000  2
   3132   4665   3136   3138     4  180.0000771  43.9320000  2
      1      8      9     10     1  0.0000000  1.2552000  3
      1      8      9     11     1  0.0000000  1.2552000  3
      1      8     12     13     1  0.0000000  1.2552000  3
      1      8     12     14     1  0.0000000  1.2552000  3
      2      1      4      7     1  0.0000000  0.6508444  3
      2      1      4      5     1  0.0000000  0.6508444  3
      2      1      4      6     1  0.0000000  0.6508444  3
      2      1      8      9     1  0.0000000  1.2552000  3
      2      1      8     12     1  0.0000000  1.2552000  3
      3      1      4      7     1  0.0000000  0.6508444  3
      3      1      4      5     1  0.0000000  0.6508444  3
      3      1      4      6     1  0.0000000  0.6508444  3
      3      1      8      9     1  0.0000000  1.2552000  3
      3      1      8     12     1  0.0000000  1.2552000  3
      4      7     15     16     1  0.0000000  1.2552000  3
      4      7     15     17     1  0.0000000  1.2552000  3
      4      7     18     19     1  0.0000000  1.2552000  3
      4      7     18     20     1  0.0000000  1.2552000  3
      8      1      4      5     1  0.0000000  0.6508444  3
      5      4      7     15     1  0.0000000  1.2552000  3
      5      4      7     18     1  0.0000000  1.2552000  3
      8      1      4      6     1  0.0000000  0.6508444  3
      6      4      7     15     1  0.0000000  1.2552000  3
      6      4      7     18     1  0.0000000  1.2552000  3
      7     15     21     22     1  0.0000000  0.6508444  3
      7     15     21     23     1  0.0000000  0.6508444  3
      7     18     24     25     1  0.0000000  0.6508444  3
      7     18     24     26     1  0.0000000  0.6508444  3
      8      9     30     31     1  0.0000000  0.6508444  3
      8      9     30     32     1  0.0000000  0.6508444  3
      8     12     27     28     1  0.0000000  0.6508444  3
      8     12     27     29     1  0.0000000  0.6508444  3
      9      8     12     13     1  0.0000000  1.2552000  3
      9      8     12     14     1  0.0000000  1.2552000  3
     10      9      8     12     1  0.0000000  1.2552000  3
     10      9     30     34     1  0.0000000  0.6508444  3
     10      9     30     31     1  0.0000000  0.6508444  3
     10      9     30     32     1  0.0000000  0.6508444  3
     11      9      8     12     1  0.0000000  1.2552000  3
     11      9     30     34     1  0.0000000  0.6508444  3
     11      9     30     31     1  0.0000000  0.6508444  3
     11      9     30     32     1  0.0000000  0.6508444  3
     13     12     27     33     1  0.0000000  0.6508444  3
     13     12     27     28     1  0.0000000  0.6508444  3
     13     12     27     29     1  0.0000000  0.6508444  3
     14     12     27     33     1  0.0000000  0.6508444  3
     14     12     27     28     1  0.0000000  0.6508444  3
     14     12     27     29     1  0.0000000  0.6508444  3
     15      7     18     19     1  0.0000000  1.2552000  3
     15      7     18     20     1  0.0000000  1.2552000  3
     16     15      7     18     1  0.0000000  1.2552000  3
     16     15     21     35     1  0.0000000  0.6508444  3
     16     15     21     22     1  0.0000000  0.6508444  3
     16     15     21     23     1  0.0000000  0.6508444  3
     17     15      7     18     1  0.0000000  1.2552000  3
     17     15     21     35     1  0.0000000  0.6508444  3
     17     15     21     22     1  0.0000000  0.6508444  3
     17     15     21     23     1  0.0000000  0.6508444  3
     19     18     24     36     1  0.0000000  0.6508444  3
     19     18     24     25     1  0.0000000  0.6508444  3
     19     18     24     26     1  0.0000000  0.6508444  3
     20     18     24     36     1  0.0000000  0.6508444  3
     20     18     24     25     1  0.0000000  0.6508444  3
     20     18     24     26     1  0.0000000  0.6508444  3
     21     35    114    115     1  180.0000771  10.4600000  2
     22     21     35     38     1  0.0000000  3.3472000  1
     22     21     35     38     1  0.0000000  0.0000000  2
     22     21     35     38     1  180.0000771  0.3347200  3
     22     21     35    114     1  180.0000771  0.0000000  2
     23     21     35     38     1  0.0000000  3.3472000  1
     23     21     35     38     1  0.0000000  0.0000000  2
     23     21     35     38     1  180.0000771  0.3347200  3
     23     21     35    114     1  180.0000771  0.0000000  2
     24     36    139    140     1  180.0000771  10.4600000  2
     25     24     36     39     1  0.0000000  3.3472000  1
     25     24     36     39     1  0.0000000  0.0000000  2
     25     24     36     39     1  180.0000771  0.3347200  3
     25     24     36    139     1  180.0000771  0.0000000  2
     26     24     36     39     1  0.0000000  3.3472000  1
     26     24     36     39     1  0.0000000  0.0000000  2
     26     24     36     39     1  180.0000771  0.3347200  3
     26     24     36    139     1  180.0000771  0.0000000  2
     27     33     64     65     1  180.0000771  10.4600000  2
     28     27     33     37     1  0.0000000  3.3472000  1
     28     27     33     37     1  0.0000000  0.0000000  2
     28     27     33     37     1  180.0000771  0.3347200  3
     28     27     33     64     1  180.0000771  0.0000000  2
     29     27     33     37     1  0.0000000  3.3472000  1
     29     27     33     37     1  0.0000000  0.0000000  2
     29     27     33     37     1  180.0000771  0.3347200  3
     29     27     33     64     1  180.0000771  0.0000000  2
     30     34     89     90     1  180.0000771  10.4600000  2
     31     30     34     40     1  0.0000000  3.3472000  1
     31     30     34     40     1  0.0000000  0.0000000  2
     31     30     34     40     1  180.0000771  0.3347200  3
     31     30     34     89     1  180.0000771  0.0000000  2
     32     30     34     40     1  0.0000000  3.3472000  1
     32     30     34     40     1  0.0000000  0.0000000  2
     32     30     34     40     1  180.0000771  0.3347200  3
     32     30     34     89     1  180.0000771  0.0000000  2
     33     64     44     45     1  0.0000000  0.0000000  2
     33     64     44     46     1  0.0000000  0.0000000  2
     34     89     69     70     1  0.0000000  0.0000000  2
     34     89     69     71     1  0.0000000  0.0000000  2
     35    114     94     95     1  0.0000000  0.0000000  2
     35    114     94     96     1  0.0000000  0.0000000  2
     36    139    119    120     1  0.0000000  0.0000000  2
     36    139    119    121     1  0.0000000  0.0000000  2
     37     33     64     65     1  0.0000000  8.3680000  1
     37     33     64     65     1  180.0000771  10.4600000  2
     38     35    114    115     1  0.0000000  8.3680000  1
     38     35    114    115     1  180.0000771  10.4600000  2
     39     36    139    140     1  0.0000000  8.3680000  1
     39     36    139    140     1  180.0000771  10.4600000  2
     40     34     89     90     1  0.0000000  8.3680000  1
     40     34     89     90     1  180.0000771  10.4600000  2
     41     44     64     65     1  0.0000000  0.0000000  2
     41     47     48     49     1  0.0000000  1.2552000  3
     41     47     48     50     1  0.0000000  1.2552000  3
     41     47     51     52     1  0.0000000  1.2552000  3
     41     47     51     53     1  0.0000000  1.2552000  3
     42     41     44     64     1  0.0000000  0.6508444  3
     42     41     44     45     1  0.0000000  0.6508444  3
     42     41     44     46     1  0.0000000  0.6508444  3
     42     41     47     48     1  0.0000000  1.2552000  3
     42     41     47     51     1  0.0000000  1.2552000  3
     43     41     44     64     1  0.0000000  0.6508444  3
     43     41     44     45     1  0.0000000  0.6508444  3
     43     41     44     46     1  0.0000000  0.6508444  3
     43     41     47     48     1  0.0000000  1.2552000  3
     43     41     47     51     1  0.0000000  1.2552000  3
     45     44     41     47     1  0.0000000  0.6508444  3
     45     44     64     65     1  0.0000000  0.0000000  2
     46     44     41     47     1  0.0000000  0.6508444  3
     46     44     64     65     1  0.0000000  0.0000000  2
     47     48     57     58     1  0.0000000  0.6508444  3
     47     48     57     59     1  0.0000000  0.6508444  3
     47     51     54     55     1  0.0000000  0.6508444  3
     47     51     54     56     1  0.0000000  0.6508444  3
     48     47     51     52     1  0.0000000  1.2552000  3
     48     47     51     53     1  0.0000000  1.2552000  3
     49     48     47     51     1  0.0000000  1.2552000  3
     49     48     57     61     1  0.0000000  0.6508444  3
     49     48     57     58     1  0.0000000  0.6508444  3
     49     48     57     59     1  0.0000000  0.6508444  3
     50     48     47     51     1  0.0000000  1.2552000  3
     50     48     57     61     1  0.0000000  0.6508444  3
     50     48     57     58     1  0.0000000  0.6508444  3
     50     48     57     59     1  0.0000000  0.6508444  3
     52     51     54     60     1  0.0000000  0.6508444  3
     52     51     54     55     1  0.0000000  0.6508444  3
     52     51     54     56     1  0.0000000  0.6508444  3
     53     51     54     60     1  0.0000000  0.6508444  3
     53     51     54     55     1  0.0000000  0.6508444  3
     53     51     54     56     1  0.0000000  0.6508444  3
     54     60    164    165     1  180.0000771  10.4600000  2
     55     54     60     62     1  0.0000000  3.3472000  1
     55     54     60     62     1  0.0000000  0.0000000  2
     55     54     60     62     1  180.0000771  0.3347200  3
     55     54     60    164     1  180.0000771  0.0000000  2
     56     54     60     62     1  0.0000000  3.3472000  1
     56     54     60     62     1  0.0000000  0.0000000  2
     56     54     60     62     1  180.0000771  0.3347200  3
     56     54     60    164     1  180.0000771  0.0000000  2
     57     61    189    190     1  180.0000771  10.4600000  2
     58     57     61     63     1  0.0000000  3.3472000  1
     58     57     61     63     1  0.0000000  0.0000000  2
     58     57     61     63     1  180.0000771  0.3347200  3
     58     57     61    189     1  180.0000771  0.0000000  2
     59     57     61     63     1  0.0000000  3.3472000  1
     59     57     61     63     1  0.0000000  0.0000000  2
     59     57     61     63     1  180.0000771  0.3347200  3
     59     57     61    189     1  180.0000771  0.0000000  2
     60    164    144    145     1  0.0000000  0.0000000  2
     60    164    144    146     1  0.0000000  0.0000000  2
     61    189    169    170     1  0.0000000  0.0000000  2
     61    189    169    171     1  0.0000000  0.0000000  2
     62     60    164    165     1  0.0000000  8.3680000  1
     62     60    164    165     1  180.0000771  10.4600000  2
     63     61    189    190     1  0.0000000  8.3680000  1
     63     61    189    190     1  180.0000771  10.4600000  2
     66     69     89     90     1  0.0000000  0.0000000  2
     66     72     73     74     1  0.0000000  1.2552000  3
     66     72     73     75     1  0.0000000  1.2552000  3
     66     72     76     77     1  0.0000000  1.2552000  3
     66     72     76     78     1  0.0000000  1.2552000  3
     67     66     69     89     1  0.0000000  0.6508444  3
     67     66     69     70     1  0.0000000  0.6508444  3
     67     66     69     71     1  0.0000000  0.6508444  3
     67     66     72     73     1  0.0000000  1.2552000  3
     67     66     72     76     1  0.0000000  1.2552000  3
     68     66     69     89     1  0.0000000  0.6508444  3
     68     66     69     70     1  0.0000000  0.6508444  3
     68     66     69     71     1  0.0000000  0.6508444  3
     68     66     72     73     1  0.0000000  1.2552000  3
     68     66     72     76     1  0.0000000  1.2552000  3
     70     69     66     72     1  0.0000000  0.6508444  3
     70     69     89     90     1  0.0000000  0.0000000  2
     71     69     66     72     1  0.0000000  0.6508444  3
     71     69     89     90     1  0.0000000  0.0000000  2
     72     73     82     83     1  0.0000000  0.6508444  3
     72     73     82     84     1  0.0000000  0.6508444  3
     72     76     79     80     1  0.0000000  0.6508444  3
     72     76     79     81     1  0.0000000  0.6508444  3
     73     72     76     77     1  0.0000000  1.2552000  3
     73     72     76     78     1  0.0000000  1.2552000  3
     74     73     72     76     1  0.0000000  1.2552000  3
     74     73     82     86     1  0.0000000  0.6508444  3
     74     73     82     83     1  0.0000000  0.6508444  3
     74     73     82     84     1  0.0000000  0.6508444  3
     75     73     72     76     1  0.0000000  1.2552000  3
     75     73     82     86     1  0.0000000  0.6508444  3
     75     73     82     83     1  0.0000000  0.6508444  3
     75     73     82     84     1  0.0000000  0.6508444  3
     77     76     79     85     1  0.0000000  0.6508444  3
     77     76     79     80     1  0.0000000  0.6508444  3
     77     76     79     81     1  0.0000000  0.6508444  3
     78     76     79     85     1  0.0000000  0.6508444  3
     78     76     79     80     1  0.0000000  0.6508444  3
     78     76     79     81     1  0.0000000  0.6508444  3
     79     85    214    215     1  180.0000771  10.4600000  2
     80     79     85     87     1  0.0000000  3.3472000  1
     80     79     85     87     1  0.0000000  0.0000000  2
     80     79     85     87     1  180.0000771  0.3347200  3
     80     79     85    214     1  180.0000771  0.0000000  2
     81     79     85     87     1  0.0000000  3.3472000  1
     81     79     85     87     1  0.0000000  0.0000000  2
     81     79     85     87     1  180.0000771  0.3347200  3
     81     79     85    214     1  180.0000771  0.0000000  2
     82     86    239    240     1  180.0000771  10.4600000  2
     83     82     86     88     1  0.0000000  3.3472000  1
     83     82     86     88     1  0.0000000  0.0000000  2
     83     82     86     88     1  180.0000771  0.3347200  3
     83     82     86    239     1  180.0000771  0.0000000  2
     84     82     86     88     1  0.0000000  3.3472000  1
     84     82     86     88     1  0.0000000  0.0000000  2
     84     82     86     88     1  180.0000771  0.3347200  3
     84     82     86    239     1  180.0000771  0.0000000  2
     85    214    194    195     1  0.0000000  0.0000000  2
     85    214    194    196     1  0.0000000  0.0000000  2
     86    239    219    220     1  0.0000000  0.0000000  2
     86    239    219    221     1  0.0000000  0.0000000  2
     87     85    214    215     1  0.0000000  8.3680000  1
     87     85    214    215     1  180.0000771  10.4600000  2
     88     86    239    240     1  0.0000000  8.3680000  1
     88     86    239    240     1  180.0000771  10.4600000  2
     91     94    114    115     1  0.0000000  0.0000000  2
     91     97     98     99     1  0.0000000  1.2552000  3
     91     97     98    100     1  0.0000000  1.2552000  3
     91     97    101    102     1  0.0000000  1.2552000  3
     91     97    101    103     1  0.0000000  1.2552000  3
     92     91     94    114     1  0.0000000  0.6508444  3
     92     91     94     95     1  0.0000000  0.6508444  3
     92     91     94     96     1  0.0000000  0.6508444  3
     92     91     97     98     1  0.0000000  1.2552000  3
     92     91     97    101     1  0.0000000  1.2552000  3
     93     91     94    114     1  0.0000000  0.6508444  3
     93     91     94     95     1  0.0000000  0.6508444  3
     93     91     94     96     1  0.0000000  0.6508444  3
     93     91     97     98     1  0.0000000  1.2552000  3
     93     91     97    101     1  0.0000000  1.2552000  3
     95     94     91     97     1  0.0000000  0.6508444  3
     95     94    114    115     1  0.0000000  0.0000000  2
     96     94     91     97     1  0.0000000  0.6508444  3
     96     94    114    115     1  0.0000000  0.0000000  2
     97     98    107    108     1  0.0000000  0.6508444  3
     97     98    107    109     1  0.0000000  0.6508444  3
     97    101    104    105     1  0.0000000  0.6508444  3
     97    101    104    106     1  0.0000000  0.6508444  3
     98     97    101    102     1  0.0000000  1.2552000  3
     98     97    101    103     1  0.0000000  1.2552000  3
     99     98     97    101     1  0.0000000  1.2552000  3
     99     98    107    111     1  0.0000000  0.6508444  3
     99     98    107    108     1  0.0000000  0.6508444  3
     99     98    107    109     1  0.0000000  0.6508444  3
    100     98     97    101     1  0.0000000  1.2552000  3
    100     98    107    111     1  0.0000000  0.6508444  3
    100     98    107    108     1  0.0000000  0.6508444  3
    100     98    107    109     1  0.0000000  0.6508444  3
    102    101    104    110     1  0.0000000  0.6508444  3
    102    101    104    105     1  0.0000000  0.6508444  3
    102    101    104    106     1  0.0000000  0.6508444  3
    103    101    104    110     1  0.0000000  0.6508444  3
    103    101    104    105     1  0.0000000  0.6508444  3
    103    101    104    106     1  0.0000000  0.6508444  3
    104    110    264    265     1  180.0000771  10.4600000  2
    105    104    110    112     1  0.0000000  3.3472000  1
    105    104    110    112     1  0.0000000  0.0000000  2
    105    104    110    112     1  180.0000771  0.3347200  3
    105    104    110    264     1  180.0000771  0.0000000  2
    106    104    110    112     1  0.0000000  3.3472000  1
    106    104    110    112     1  0.0000000  0.0000000  2
    106    104    110    112     1  180.0000771  0.3347200  3
    106    104    110    264     1  180.0000771  0.0000000  2
    107    111    289    290     1  180.0000771  10.4600000  2
    108    107    111    113     1  0.0000000  3.3472000  1
    108    107    111    113     1  0.0000000  0.0000000  2
    108    107    111    113     1  180.0000771  0.3347200  3
    108    107    111    289     1  180.0000771  0.0000000  2
    109    107    111    113     1  0.0000000  3.3472000  1
    109    107    111    113     1  0.0000000  0.0000000  2
    109    107    111    113     1  180.0000771  0.3347200  3
    109    107    111    289     1  180.0000771  0.0000000  2
    110    264    244    245     1  0.0000000  0.0000000  2
    110    264    244    246     1  0.0000000  0.0000000  2
    111    289    269    270     1  0.0000000  0.0000000  2
    111    289    269    271     1  0.0000000  0.0000000  2
    112    110    264    265     1  0.0000000  8.3680000  1
    112    110    264    265     1  180.0000771  10.4600000  2
    113    111    289    290     1  0.0000000  8.3680000  1
    113    111    289    290     1  180.0000771  10.4600000  2
    116    119    139    140     1  0.0000000  0.0000000  2
    116    122    123    124     1  0.0000000  1.2552000  3
    116    122    123    125     1  0.0000000  1.2552000  3
    116    122    126    127     1  0.0000000  1.2552000  3
    116    122    126    128     1  0.0000000  1.2552000  3
    117    116    119    139     1  0.0000000  0.6508444  3
    117    116    119    120     1  0.0000000  0.6508444  3
    117    116    119    121     1  0.0000000  0.6508444  3
    117    116    122    123     1  0.0000000  1.2552000  3
    117    116    122    126     1  0.0000000  1.2552000  3
    118    116    119    139     1  0.0000000  0.6508444  3
    118    116    119    120     1  0.0000000  0.6508444  3
    118    116    119    121     1  0.0000000  0.6508444  3
    118    116    122    123     1  0.0000000  1.2552000  3
    118    116    122    126     1  0.0000000  1.2552000  3
    120    119    116    122     1  0.0000000  0.6508444  3
    120    119    139    140     1  0.0000000  0.0000000  2
    121    119    116    122     1  0.0000000  0.6508444  3
    121    119    139    140     1  0.0000000  0.0000000  2
    122    123    132    133     1  0.0000000  0.6508444  3
    122    123    132    134     1  0.0000000  0.6508444  3
    122    126    129    130     1  0.0000000  0.6508444  3
    122    126    129    131     1  0.0000000  0.6508444  3
    123    122    126    127     1  0.0000000  1.2552000  3
    123    122    126    128     1  0.0000000  1.2552000  3
    124    123    122    126     1  0.0000000  1.2552000  3
    124    123    132    136     1  0.0000000  0.6508444  3
    124    123    132    133     1  0.0000000  0.6508444  3
    124    123    132    134     1  0.0000000  0.6508444  3
    125    123    122    126     1  0.0000000  1.2552000  3
    125    123    132    136     1  0.0000000  0.6508444  3
    125    123    132    133     1  0.0000000  0.6508444  3
    125    123    132    134     1  0.0000000  0.6508444  3
    127    126    129    135     1  0.0000000  0.6508444  3
    127    126    129    130     1  0.0000000  0.6508444  3
    127    126    129    131     1  0.0000000  0.6508444  3
    128    126    129    135     1  0.0000000  0.6508444  3
    128    126    129    130     1  0.0000000  0.6508444  3
    128    126    129    131     1  0.0000000  0.6508444  3
    129    135    314    315     1  180.0000771  10.4600000  2
    130    129    135    137     1  0.0000000  3.3472000  1
    130    129    135    137     1  0.0000000  0.0000000  2
    130    129    135    137     1  180.0000771  0.3347200  3
    130    129    135    314     1  180.0000771  0.0000000  2
    131    129    135    137     1  0.0000000  3.3472000  1
    131    129    135    137     1  0.0000000  0.0000000  2
    131    129    135    137     1  180.0000771  0.3347200  3
    131    129    135    314     1  180.0000771  0.0000000  2
    132    136    339    340     1  180.0000771  10.4600000  2
    133    132    136    138     1  0.0000000  3.3472000  1
    133    132    136    138     1  0.0000000  0.0000000  2
    133    132    136    138     1  180.0000771  0.3347200  3
    133    132    136    339     1  180.0000771  0.0000000  2
    134    132    136    138     1  0.0000000  3.3472000  1
    134    132    136    138     1  0.0000000  0.0000000  2
    134    132    136    138     1  180.0000771  0.3347200  3
    134    132    136    339     1  180.0000771  0.0000000  2
    135    314    294    295     1  0.0000000  0.0000000  2
    135    314    294    296     1  0.0000000  0.0000000  2
    136    339    319    320     1  0.0000000  0.0000000  2
    136    339    319    321     1  0.0000000  0.0000000  2
    137    135    314    315     1  0.0000000  8.3680000  1
    137    135    314    315     1  180.0000771  10.4600000  2
    138    136    339    340     1  0.0000000  8.3680000  1
    138    136    339    340     1  180.0000771  10.4600000  2
    141    144    164    165     1  0.0000000  0.0000000  2
    141    147    148    149     1  0.0000000  1.2552000  3
    141    147    148    150     1  0.0000000  1.2552000  3
    141    147    151    152     1  0.0000000  1.2552000  3
    141    147    151    153     1  0.0000000  1.2552000  3
    142    141    144    164     1  0.0000000  0.6508444  3
    142    141    144    145     1  0.0000000  0.6508444  3
    142    141    144    146     1  0.0000000  0.6508444  3
    142    141    147    148     1  0.0000000  1.2552000  3
    142    141    147    151     1  0.0000000  1.2552000  3
    143    141    144    164     1  0.0000000  0.6508444  3
    143    141    144    145     1  0.0000000  0.6508444  3
    143    141    144    146     1  0.0000000  0.6508444  3
    143    141    147    148     1  0.0000000  1.2552000  3
    143    141    147    151     1  0.0000000  1.2552000  3
    145    144    141    147     1  0.0000000  0.6508444  3
    145    144    164    165     1  0.0000000  0.0000000  2
    146    144    141    147     1  0.0000000  0.6508444  3
    146    144    164    165     1  0.0000000  0.0000000  2
    147    148    157    158     1  0.0000000  0.6508444  3
    147    148    157    159     1  0.0000000  0.6508444  3
    147    151    154    155     1  0.0000000  0.6508444  3
    147    151    154    156     1  0.0000000  0.6508444  3
    148    147    151    152     1  0.0000000  1.2552000  3
    148    147    151    153     1  0.0000000  1.2552000  3
    149    148    147    151     1  0.0000000  1.2552000  3
    149    148    157    161     1  0.0000000  0.6508444  3
    149    148    157    158     1  0.0000000  0.6508444  3
    149    148    157    159     1  0.0000000  0.6508444  3
    150    148    147    151     1  0.0000000  1.2552000  3
    150    148    157    161     1  0.0000000  0.6508444  3
    150    148    157    158     1  0.0000000  0.6508444  3
    150    148    157    159     1  0.0000000  0.6508444  3
    152    151    154    160     1  0.0000000  0.6508444  3
    152    151    154    155     1  0.0000000  0.6508444  3
    152    151    154    156     1  0.0000000  0.6508444  3
    153    151    154    160     1  0.0000000  0.6508444  3
    153    151    154    155     1  0.0000000  0.6508444  3
    153    151    154    156     1  0.0000000  0.6508444  3
    154    160    364    365     1  180.0000771  10.4600000  2
    155    154    160    162     1  0.0000000  3.3472000  1
    155    154    160    162     1  0.0000000  0.0000000  2
    155    154    160    162     1  180.0000771  0.3347200  3
    155    154    160    364     1  180.0000771  0.0000000  2
    156    154    160    162     1  0.0000000  3.3472000  1
    156    154    160    162     1  0.0000000  0.0000000  2
    156    154    160    162     1  180.0000771  0.3347200  3
    156    154    160    364     1  180.0000771  0.0000000  2
    157    161    389    390     1  180.0000771  10.4600000  2
    158    157    161    163     1  0.0000000  3.3472000  1
    158    157    161    163     1  0.0000000  0.0000000  2
    158    157    161    163     1  180.0000771  0.3347200  3
    158    157    161    389     1  180.0000771  0.0000000  2
    159    157    161    163     1  0.0000000  3.3472000  1
    159    157    161    163     1  0.0000000  0.0000000  2
    159    157    161    163     1  180.0000771  0.3347200  3
    159    157    161    389     1  180.0000771  0.0000000  2
    160    364    344    345     1  0.0000000  0.0000000  2
    160    364    344    346     1  0.0000000  0.0000000  2
    161    389    369    370     1  0.0000000  0.0000000  2
    161    389    369    371     1  0.0000000  0.0000000  2
    162    160    364    365     1  0.0000000  8.3680000  1
    162    160    364    365     1  180.0000771  10.4600000  2
    163    161    389    390     1  0.0000000  8.3680000  1
    163    161    389    390     1  180.0000771  10.4600000  2
    166    169    189    190     1  0.0000000  0.0000000  2
    166    172    173    174     1  0.0000000  1.2552000  3
    166    172    173    175     1  0.0000000  1.2552000  3
    166    172    176    177     1  0.0000000  1.2552000  3
    166    172    176    178     1  0.0000000  1.2552000  3
    167    166    169    189     1  0.0000000  0.6508444  3
    167    166    169    170     1  0.0000000  0.6508444  3
    167    166    169    171     1  0.0000000  0.6508444  3
    167    166    172    173     1  0.0000000  1.2552000  3
    167    166    172    176     1  0.0000000  1.2552000  3
    168    166    169    189     1  0.0000000  0.6508444  3
    168    166    169    170     1  0.0000000  0.6508444  3
    168    166    169    171     1  0.0000000  0.6508444  3
    168    166    172    173     1  0.0000000  1.2552000  3
    168    166    172    176     1  0.0000000  1.2552000  3
    170    169    166    172     1  0.0000000  0.6508444  3
    170    169    189    190     1  0.0000000  0.0000000  2
    171    169    166    172     1  0.0000000  0.6508444  3
    171    169    189    190     1  0.0000000  0.0000000  2
    172    173    182    183     1  0.0000000  0.6508444  3
    172    173    182    184     1  0.0000000  0.6508444  3
    172    176    179    180     1  0.0000000  0.6508444  3
    172    176    179    181     1  0.0000000  0.6508444  3
    173    172    176    177     1  0.0000000  1.2552000  3
    173    172    176    178     1  0.0000000  1.2552000  3
    174    173    172    176     1  0.0000000  1.2552000  3
    174    173    182    186     1  0.0000000  0.6508444  3
    174    173    182    183     1  0.0000000  0.6508444  3
    174    173    182    184     1  0.0000000  0.6508444  3
    175    173    172    176     1  0.0000000  1.2552000  3
    175    173    182    186     1  0.0000000  0.6508444  3
    175    173    182    183     1  0.0000000  0.6508444  3
    175    173    182    184     1  0.0000000  0.6508444  3
    177    176    179    185     1  0.0000000  0.6508444  3
    177    176    179    180     1  0.0000000  0.6508444  3
    177    176    179    181     1  0.0000000  0.6508444  3
    178    176    179    185     1  0.0000000  0.6508444  3
    178    176    179    180     1  0.0000000  0.6508444  3
    178    176    179    181     1  0.0000000  0.6508444  3
    179    185    414    415     1  180.0000771  10.4600000  2
    180    179    185    187     1  0.0000000  3.3472000  1
    180    179    185    187     1  0.0000000  0.0000000  2
    180    179    185    187     1  180.0000771  0.3347200  3
    180    179    185    414     1  180.0000771  0.0000000  2
    181    179    185    187     1  0.0000000  3.3472000  1
    181    179    185    187     1  0.0000000  0.0000000  2
    181    179    185    187     1  180.0000771  0.3347200  3
    181    179    185    414     1  180.0000771  0.0000000  2
    182    186    439    440     1  180.0000771  10.4600000  2
    183    182    186    188     1  0.0000000  3.3472000  1
    183    182    186    188     1  0.0000000  0.0000000  2
    183    182    186    188     1  180.0000771  0.3347200  3
    183    182    186    439     1  180.0000771  0.0000000  2
    184    182    186    188     1  0.0000000  3.3472000  1
    184    182    186    188     1  0.0000000  0.0000000  2
    184    182    186    188     1  180.0000771  0.3347200  3
    184    182    186    439     1  180.0000771  0.0000000  2
    185    414    394    395     1  0.0000000  0.0000000  2
    185    414    394    396     1  0.0000000  0.0000000  2
    186    439    419    420     1  0.0000000  0.0000000  2
    186    439    419    421     1  0.0000000  0.0000000  2
    187    185    414    415     1  0.0000000  8.3680000  1
    187    185    414    415     1  180.0000771  10.4600000  2
    188    186    439    440     1  0.0000000  8.3680000  1
    188    186    439    440     1  180.0000771  10.4600000  2
    191    194    214    215     1  0.0000000  0.0000000  2
    191    197    198    199     1  0.0000000  1.2552000  3
    191    197    198    200     1  0.0000000  1.2552000  3
    191    197    201    202     1  0.0000000  1.2552000  3
    191    197    201    203     1  0.0000000  1.2552000  3
    192    191    194    214     1  0.0000000  0.6508444  3
    192    191    194    195     1  0.0000000  0.6508444  3
    192    191    194    196     1  0.0000000  0.6508444  3
    192    191    197    198     1  0.0000000  1.2552000  3
    192    191    197    201     1  0.0000000  1.2552000  3
    193    191    194    214     1  0.0000000  0.6508444  3
    193    191    194    195     1  0.0000000  0.6508444  3
    193    191    194    196     1  0.0000000  0.6508444  3
    193    191    197    198     1  0.0000000  1.2552000  3
    193    191    197    201     1  0.0000000  1.2552000  3
    195    194    191    197     1  0.0000000  0.6508444  3
    195    194    214    215     1  0.0000000  0.0000000  2
    196    194    191    197     1  0.0000000  0.6508444  3
    196    194    214    215     1  0.0000000  0.0000000  2
    197    198    207    208     1  0.0000000  0.6508444  3
    197    198    207    209     1  0.0000000  0.6508444  3
    197    201    204    205     1  0.0000000  0.6508444  3
    197    201    204    206     1  0.0000000  0.6508444  3
    198    197    201    202     1  0.0000000  1.2552000  3
    198    197    201    203     1  0.0000000  1.2552000  3
    199    198    197    201     1  0.0000000  1.2552000  3
    199    198    207    211     1  0.0000000  0.6508444  3
    199    198    207    208     1  0.0000000  0.6508444  3
    199    198    207    209     1  0.0000000  0.6508444  3
    200    198    197    201     1  0.0000000  1.2552000  3
    200    198    207    211     1  0.0000000  0.6508444  3
    200    198    207    208     1  0.0000000  0.6508444  3
    200    198    207    209     1  0.0000000  0.6508444  3
    202    201    204    210     1  0.0000000  0.6508444  3
    202    201    204    205     1  0.0000000  0.6508444  3
    202    201    204    206     1  0.0000000  0.6508444  3
    203    201    204    210     1  0.0000000  0.6508444  3
    203    201    204    205     1  0.0000000  0.6508444  3
    203    201    204    206     1  0.0000000  0.6508444  3
    204    210    464    465     1  180.0000771  10.4600000  2
    205    204    210    212     1  0.0000000  3.3472000  1
    205    204    210    212     1  0.0000000  0.0000000  2
    205    204    210    212     1  180.0000771  0.3347200  3
    205    204    210    464     1  180.0000771  0.0000000  2
    206    204    210    212     1  0.0000000  3.3472000  1
    206    204    210    212     1  0.0000000  0.0000000  2
    206    204    210    212     1  180.0000771  0.3347200  3
    206    204    210    464     1  180.0000771  0.0000000  2
    207    211    489    490     1  180.0000771  10.4600000  2
    208    207    211    213     1  0.0000000  3.3472000  1
    208    207    211    213     1  0.0000000  0.0000000  2
    208    207    211    213     1  180.0000771  0.3347200  3
    208    207    211    489     1  180.0000771  0.0000000  2
    209    207    211    213     1  0.0000000  3.3472000  1
    209    207    211    213     1  0.0000000  0.0000000  2
    209    207    211    213     1  180.0000771  0.3347200  3
    209    207    211    489     1  180.0000771  0.0000000  2
    210    464    444    445     1  0.0000000  0.0000000  2
    210    464    444    446     1  0.0000000  0.0000000  2
    211    489    469    470     1  0.0000000  0.0000000  2
    211    489    469    471     1  0.0000000  0.0000000  2
    212    210    464    465     1  0.0000000  8.3680000  1
    212    210    464    465     1  180.0000771  10.4600000  2
    213    211    489    490     1  0.0000000  8.3680000  1
    213    211    489    490     1  180.0000771  10.4600000  2
    216    219    239    240     1  0.0000000  0.0000000  2
    216    222    223    224     1  0.0000000  1.2552000  3
    216    222    223    225     1  0.0000000  1.2552000  3
    216    222    226    227     1  0.0000000  1.2552000  3
    216    222    226    228     1  0.0000000  1.2552000  3
    217    216    219    239     1  0.0000000  0.6508444  3
    217    216    219    220     1  0.0000000  0.6508444  3
    217    216    219    221     1  0.0000000  0.6508444  3
    217    216    222    223     1  0.0000000  1.2552000  3
    217    216    222    226     1  0.0000000  1.2552000  3
    218    216    219    239     1  0.0000000  0.6508444  3
    218    216    219    220     1  0.0000000  0.6508444  3
    218    216    219    221     1  0.0000000  0.6508444  3
    218    216    222    223     1  0.0000000  1.2552000  3
    218    216    222    226     1  0.0000000  1.2552000  3
    220    219    216    222     1  0.0000000  0.6508444  3
    220    219    239    240     1  0.0000000  0.0000000  2
    221    219    216    222     1  0.0000000  0.6508444  3
    221    219    239    240     1  0.0000000  0.0000000  2
    222    223    232    233     1  0.0000000  0.6508444  3
    222    223    232    234     1  0.0000000  0.6508444  3
    222    226    229    230     1  0.0000000  0.6508444  3
    222    226    229    231     1  0.0000000  0.6508444  3
    223    222    226    227     1  0.0000000  1.2552000  3
    223    222    226    228     1  0.0000000  1.2552000  3
    224    223    222    226     1  0.0000000  1.2552000  3
    224    223    232    236     1  0.0000000  0.6508444  3
    224    223    232    233     1  0.0000000  0.6508444  3
    224    223    232    234     1  0.0000000  0.6508444  3
    225    223    222    226     1  0.0000000  1.2552000  3
    225    223    232    236     1  0.0000000  0.6508444  3
    225    223    232    233     1  0.0000000  0.6508444  3
    225    223    232    234     1  0.0000000  0.6508444  3
    227    226    229    235     1  0.0000000  0.6508444  3
    227    226    229    230     1  0.0000000  0.6508444  3
    227    226    229    231     1  0.0000000  0.6508444  3
    228    226    229    235     1  0.0000000  0.6508444  3
    228    226    229    230     1  0.0000000  0.6508444  3
    228    226    229    231     1  0.0000000  0.6508444  3
    229    235    514    515     1  180.0000771  10.4600000  2
    230    229    235    237     1  0.0000000  3.3472000  1
    230    229    235    237     1  0.0000000  0.0000000  2
    230    229    235    237     1  180.0000771  0.3347200  3
    230    229    235    514     1  180.0000771  0.0000000  2
    231    229    235    237     1  0.0000000  3.3472000  1
    231    229    235    237     1  0.0000000  0.0000000  2
    231    229    235    237     1  180.0000771  0.3347200  3
    231    229    235    514     1  180.0000771  0.0000000  2
    232    236    539    540     1  180.0000771  10.4600000  2
    233    232    236    238     1  0.0000000  3.3472000  1
    233    232    236    238     1  0.0000000  0.0000000  2
    233    232    236    238     1  180.0000771  0.3347200  3
    233    232    236    539     1  180.0000771  0.0000000  2
    234    232    236    238     1  0.0000000  3.3472000  1
    234    232    236    238     1  0.0000000  0.0000000  2
    234    232    236    238     1  180.0000771  0.3347200  3
    234    232    236    539     1  180.0000771  0.0000000  2
    235    514    494    495     1  0.0000000  0.0000000  2
    235    514    494    496     1  0.0000000  0.0000000  2
    236    539    519    520     1  0.0000000  0.0000000  2
    236    539    519    521     1  0.0000000  0.0000000  2
    237    235    514    515     1  0.0000000  8.3680000  1
    237    235    514    515     1  180.0000771  10.4600000  2
    238    236    539    540     1  0.0000000  8.3680000  1
    238    236    539    540     1  180.0000771  10.4600000  2
    241    244    264    265     1  0.0000000  0.0000000  2
    241    247    248    249     1  0.0000000  1.2552000  3
    241    247    248    250     1  0.0000000  1.2552000  3
    241    247    251    252     1  0.0000000  1.2552000  3
    241    247    251    253     1  0.0000000  1.2552000  3
    242    241    244    264     1  0.0000000  0.6508444  3
    242    241    244    245     1  0.0000000  0.6508444  3
    242    241    244    246     1  0.0000000  0.6508444  3
    242    241    247    248     1  0.0000000  1.2552000  3
    242    241    247    251     1  0.0000000  1.2552000  3
    243    241    244    264     1  0.0000000  0.6508444  3
    243    241    244    245     1  0.0000000  0.6508444  3
    243    241    244    246     1  0.0000000  0.6508444  3
    243    241    247    248     1  0.0000000  1.2552000  3
    243    241    247    251     1  0.0000000  1.2552000  3
    245    244    241    247     1  0.0000000  0.6508444  3
    245    244    264    265     1  0.0000000  0.0000000  2
    246    244    241    247     1  0.0000000  0.6508444  3
    246    244    264    265     1  0.0000000  0.0000000  2
    247    248    257    258     1  0.0000000  0.6508444  3
    247    248    257    259     1  0.0000000  0.6508444  3
    247    251    254    255     1  0.0000000  0.6508444  3
    247    251    254    256     1  0.0000000  0.6508444  3
    248    247    251    252     1  0.0000000  1.2552000  3
    248    247    251    253     1  0.0000000  1.2552000  3
    249    248    247    251     1  0.0000000  1.2552000  3
    249    248    257    261     1  0.0000000  0.6508444  3
    249    248    257    258     1  0.0000000  0.6508444  3
    249    248    257    259     1  0.0000000  0.6508444  3
    250    248    247    251     1  0.0000000  1.2552000  3
    250    248    257    261     1  0.0000000  0.6508444  3
    250    248    257    258     1  0.0000000  0.6508444  3
    250    248    257    259     1  0.0000000  0.6508444  3
    252    251    254    260     1  0.0000000  0.6508444  3
    252    251    254    255     1  0.0000000  0.6508444  3
    252    251    254    256     1  0.0000000  0.6508444  3
    253    251    254    260     1  0.0000000  0.6508444  3
    253    251    254    255     1  0.0000000  0.6508444  3
    253    251    254    256     1  0.0000000  0.6508444  3
    254    260    564    565     1  180.0000771  10.4600000  2
    255    254    260    262     1  0.0000000  3.3472000  1
    255    254    260    262     1  0.0000000  0.0000000  2
    255    254    260    262     1  180.0000771  0.3347200  3
    255    254    260    564     1  180.0000771  0.0000000  2
    256    254    260    262     1  0.0000000  3.3472000  1
    256    254    260    262     1  0.0000000  0.0000000  2
    256    254    260    262     1  180.0000771  0.3347200  3
    256    254    260    564     1  180.0000771  0.0000000  2
    257    261    589    590     1  180.0000771  10.4600000  2
    258    257    261    263     1  0.0000000  3.3472000  1
    258    257    261    263     1  0.0000000  0.0000000  2
    258    257    261    263     1  180.0000771  0.3347200  3
    258    257    261    589     1  180.0000771  0.0000000  2
    259    257    261    263     1  0.0000000  3.3472000  1
    259    257    261    263     1  0.0000000  0.0000000  2
    259    257    261    263     1  180.0000771  0.3347200  3
    259    257    261    589     1  180.0000771  0.0000000  2
    260    564    544    545     1  0.0000000  0.0000000  2
    260    564    544    546     1  0.0000000  0.0000000  2
    261    589    569    570     1  0.0000000  0.0000000  2
    261    589    569    571     1  0.0000000  0.0000000  2
    262    260    564    565     1  0.0000000  8.3680000  1
    262    260    564    565     1  180.0000771  10.4600000  2
    263    261    589    590     1  0.0000000  8.3680000  1
    263    261    589    590     1  180.0000771  10.4600000  2
    266    269    289    290     1  0.0000000  0.0000000  2
    266    272    273    274     1  0.0000000  1.2552000  3
    266    272    273    275     1  0.0000000  1.2552000  3
    266    272    276    277     1  0.0000000  1.2552000  3
    266    272    276    278     1  0.0000000  1.2552000  3
    267    266    269    289     1  0.0000000  0.6508444  3
    267    266    269    270     1  0.0000000  0.6508444  3
    267    266    269    271     1  0.0000000  0.6508444  3
    267    266    272    273     1  0.0000000  1.2552000  3
    267    266    272    276     1  0.0000000  1.2552000  3
    268    266    269    289     1  0.0000000  0.6508444  3
    268    266    269    270     1  0.0000000  0.6508444  3
    268    266    269    271     1  0.0000000  0.6508444  3
    268    266    272    273     1  0.0000000  1.2552000  3
    268    266    272    276     1  0.0000000  1.2552000  3
    270    269    266    272     1  0.0000000  0.6508444  3
    270    269    289    290     1  0.0000000  0.0000000  2
    271    269    266    272     1  0.0000000  0.6508444  3
    271    269    289    290     1  0.0000000  0.0000000  2
    272    273    282    283     1  0.0000000  0.6508444  3
    272    273    282    284     1  0.0000000  0.6508444  3
    272    276    279    280     1  0.0000000  0.6508444  3
    272    276    279    281     1  0.0000000  0.6508444  3
    273    272    276    277     1  0.0000000  1.2552000  3
    273    272    276    278     1  0.0000000  1.2552000  3
    274    273    272    276     1  0.0000000  1.2552000  3
    274    273    282    286     1  0.0000000  0.6508444  3
    274    273    282    283     1  0.0000000  0.6508444  3
    274    273    282    284     1  0.0000000  0.6508444  3
    275    273    272    276     1  0.0000000  1.2552000  3
    275    273    282    286     1  0.0000000  0.6508444  3
    275    273    282    283     1  0.0000000  0.6508444  3
    275    273    282    284     1  0.0000000  0.6508444  3
    277    276    279    285     1  0.0000000  0.6508444  3
    277    276    279    280     1  0.0000000  0.6508444  3
    277    276    279    281     1  0.0000000  0.6508444  3
    278    276    279    285     1  0.0000000  0.6508444  3
    278    276    279    280     1  0.0000000  0.6508444  3
    278    276    279    281     1  0.0000000  0.6508444  3
    279    285    614    615     1  180.0000771  10.4600000  2
    280    279    285    287     1  0.0000000  3.3472000  1
    280    279    285    287     1  0.0000000  0.0000000  2
    280    279    285    287     1  180.0000771  0.3347200  3
    280    279    285    614     1  180.0000771  0.0000000  2
    281    279    285    287     1  0.0000000  3.3472000  1
    281    279    285    287     1  0.0000000  0.0000000  2
    281    279    285    287     1  180.0000771  0.3347200  3
    281    279    285    614     1  180.0000771  0.0000000  2
    282    286    639    640     1  180.0000771  10.4600000  2
    283    282    286    288     1  0.0000000  3.3472000  1
    283    282    286    288     1  0.0000000  0.0000000  2
    283    282    286    288     1  180.0000771  0.3347200  3
    283    282    286    639     1  180.0000771  0.0000000  2
    284    282    286    288     1  0.0000000  3.3472000  1
    284    282    286    288     1  0.0000000  0.0000000  2
    284    282    286    288     1  180.0000771  0.3347200  3
    284    282    286    639     1  180.0000771  0.0000000  2
    285    614    594    595     1  0.0000000  0.0000000  2
    285    614    594    596     1  0.0000000  0.0000000  2
    286    639    619    620     1  0.0000000  0.0000000  2
    286    639    619    621     1  0.0000000  0.0000000  2
    287    285    614    615     1  0.0000000  8.3680000  1
    287    285    614    615     1  180.0000771  10.4600000  2
    288    286    639    640     1  0.0000000  8.3680000  1
    288    286    639    640     1  180.0000771  10.4600000  2
    291    294    314    315     1  0.0000000  0.0000000  2
    291    297    298    299     1  0.0000000  1.2552000  3
    291    297    298    300     1  0.0000000  1.2552000  3
    291    297    301    302     1  0.0000000  1.2552000  3
    291    297    301    303     1  0.0000000  1.2552000  3
    292    291    294    314     1  0.0000000  0.6508444  3
    292    291    294    295     1  0.0000000  0.6508444  3
    292    291    294    296     1  0.0000000  0.6508444  3
    292    291    297    298     1  0.0000000  1.2552000  3
    292    291    297    301     1  0.0000000  1.2552000  3
    293    291    294    314     1  0.0000000  0.6508444  3
    293    291    294    295     1  0.0000000  0.6508444  3
    293    291    294    296     1  0.0000000  0.6508444  3
    293    291    297    298     1  0.0000000  1.2552000  3
    293    291    297    301     1  0.0000000  1.2552000  3
    295    294    291    297     1  0.0000000  0.6508444  3
    295    294    314    315     1  0.0000000  0.0000000  2
    296    294    291    297     1  0.0000000  0.6508444  3
    296    294    314    315     1  0.0000000  0.0000000  2
    297    298    307    308     1  0.0000000  0.6508444  3
    297    298    307    309     1  0.0000000  0.6508444  3
    297    301    304    305     1  0.0000000  0.6508444  3
    297    301    304    306     1  0.0000000  0.6508444  3
    298    297    301    302     1  0.0000000  1.2552000  3
    298    297    301    303     1  0.0000000  1.2552000  3
    299    298    297    301     1  0.0000000  1.2552000  3
    299    298    307    311     1  0.0000000  0.6508444  3
    299    298    307    308     1  0.0000000  0.6508444  3
    299    298    307    309     1  0.0000000  0.6508444  3
    300    298    297    301     1  0.0000000  1.2552000  3
    300    298    307    311     1  0.0000000  0.6508444  3
    300    298    307    308     1  0.0000000  0.6508444  3
    300    298    307    309     1  0.0000000  0.6508444  3
    302    301    304    310     1  0.0000000  0.6508444  3
    302    301    304    305     1  0.0000000  0.6508444  3
    302    301    304    306     1  0.0000000  0.6508444  3
    303    301    304    310     1  0.0000000  0.6508444  3
    303    301    304    305     1  0.0000000  0.6508444  3
    303    301    304    306     1  0.0000000  0.6508444  3
    304    310    664    665     1  180.0000771  10.4600000  2
    305    304    310    312     1  0.0000000  3.3472000  1
    305    304    310    312     1  0.0000000  0.0000000  2
    305    304    310    312     1  180.0000771  0.3347200  3
    305    304    310    664     1  180.0000771  0.0000000  2
    306    304    310    312     1  0.0000000  3.3472000  1
    306    304    310    312     1  0.0000000  0.0000000  2
    306    304    310    312     1  180.0000771  0.3347200  3
    306    304    310    664     1  180.0000771  0.0000000  2
    307    311    689    690     1  180.0000771  10.4600000  2
    308    307    311    313     1  0.0000000  3.3472000  1
    308    307    311    313     1  0.0000000  0.0000000  2
    308    307    311    313     1  180.0000771  0.3347200  3
    308    307    311    689     1  180.0000771  0.0000000  2
    309    307    311    313     1  0.0000000  3.3472000  1
    309    307    311    313     1  0.0000000  0.0000000  2
    309    307    311    313     1  180.0000771  0.3347200  3
    309    307    311    689     1  180.0000771  0.0000000  2
    310    664    644    645     1  0.0000000  0.0000000  2
    310    664    644    646     1  0.0000000  0.0000000  2
    311    689    669    670     1  0.0000000  0.0000000  2
    311    689    669    671     1  0.0000000  0.0000000  2
    312    310    664    665     1  0.0000000  8.3680000  1
    312    310    664    665     1  180.0000771  10.4600000  2
    313    311    689    690     1  0.0000000  8.3680000  1
    313    311    689    690     1  180.0000771  10.4600000  2
    316    319    339    340     1  0.0000000  0.0000000  2
    316    322    323    324     1  0.0000000  1.2552000  3
    316    322    323    325     1  0.0000000  1.2552000  3
    316    322    326    327     1  0.0000000  1.2552000  3
    316    322    326    328     1  0.0000000  1.2552000  3
    317    316    319    339     1  0.0000000  0.6508444  3
    317    316    319    320     1  0.0000000  0.6508444  3
    317    316    319    321     1  0.0000000  0.6508444  3
    317    316    322    323     1  0.0000000  1.2552000  3
    317    316    322    326     1  0.0000000  1.2552000  3
    318    316    319    339     1  0.0000000  0.6508444  3
    318    316    319    320     1  0.0000000  0.6508444  3
    318    316    319    321     1  0.0000000  0.6508444  3
    318    316    322    323     1  0.0000000  1.2552000  3
    318    316    322    326     1  0.0000000  1.2552000  3
    320    319    316    322     1  0.0000000  0.6508444  3
    320    319    339    340     1  0.0000000  0.0000000  2
    321    319    316    322     1  0.0000000  0.6508444  3
    321    319    339    340     1  0.0000000  0.0000000  2
    322    323    332    333     1  0.0000000  0.6508444  3
    322    323    332    334     1  0.0000000  0.6508444  3
    322    326    329    330     1  0.0000000  0.6508444  3
    322    326    329    331     1  0.0000000  0.6508444  3
    323    322    326    327     1  0.0000000  1.2552000  3
    323    322    326    328     1  0.0000000  1.2552000  3
    324    323    322    326     1  0.0000000  1.2552000  3
    324    323    332    336     1  0.0000000  0.6508444  3
    324    323    332    333     1  0.0000000  0.6508444  3
    324    323    332    334     1  0.0000000  0.6508444  3
    325    323    322    326     1  0.0000000  1.2552000  3
    325    323    332    336     1  0.0000000  0.6508444  3
    325    323    332    333     1  0.0000000  0.6508444  3
    325    323    332    334     1  0.0000000  0.6508444  3
    327    326    329    335     1  0.0000000  0.6508444  3
    327    326    329    330     1  0.0000000  0.6508444  3
    327    326    329    331     1  0.0000000  0.6508444  3
    328    326    329    335     1  0.0000000  0.6508444  3
    328    326    329    330     1  0.0000000  0.6508444  3
    328    326    329    331     1  0.0000000  0.6508444  3
    329    335    714    715     1  180.0000771  10.4600000  2
    330    329    335    337     1  0.0000000  3.3472000  1
    330    329    335    337     1  0.0000000  0.0000000  2
    330    329    335    337     1  180.0000771  0.3347200  3
    330    329    335    714     1  180.0000771  0.0000000  2
    331    329    335    337     1  0.0000000  3.3472000  1
    331    329    335    337     1  0.0000000  0.0000000  2
    331    329    335    337     1  180.0000771  0.3347200  3
    331    329    335    714     1  180.0000771  0.0000000  2
    332    336    739    740     1  180.0000771  10.4600000  2
    333    332    336    338     1  0.0000000  3.3472000  1
    333    332    336    338     1  0.0000000  0.0000000  2
    333    332    336    338     1  180.0000771  0.3347200  3
    333    332    336    739     1  180.0000771  0.0000000  2
    334    332    336    338     1  0.0000000  3.3472000  1
    334    332    336    338     1  0.0000000  0.0000000  2
    334    332    336    338     1  180.0000771  0.3347200  3
    334    332    336    739     1  180.0000771  0.0000000  2
    335    714    694    695     1  0.0000000  0.0000000  2
    335    714    694    696     1  0.0000000  0.0000000  2
    336    739    719    720     1  0.0000000  0.0000000  2
    336    739    719    721     1  0.0000000  0.0000000  2
    337    335    714    715     1  0.0000000  8.3680000  1
    337    335    714    715     1  180.0000771  10.4600000  2
    338    336    739    740     1  0.0000000  8.3680000  1
    338    336    739    740     1  180.0000771  10.4600000  2
    341    344    364    365     1  0.0000000  0.0000000  2
    341    347    348    349     1  0.0000000  1.2552000  3
    341    347    348    350     1  0.0000000  1.2552000  3
    341    347    351    352     1  0.0000000  1.2552000  3
    341    347    351    353     1  0.0000000  1.2552000  3
    342    341    344    364     1  0.0000000  0.6508444  3
    342    341    344    345     1  0.0000000  0.6508444  3
    342    341    344    346     1  0.0000000  0.6508444  3
    342    341    347    348     1  0.0000000  1.2552000  3
    342    341    347    351     1  0.0000000  1.2552000  3
    343    341    344    364     1  0.0000000  0.6508444  3
    343    341    344    345     1  0.0000000  0.6508444  3
    343    341    344    346     1  0.0000000  0.6508444  3
    343    341    347    348     1  0.0000000  1.2552000  3
    343    341    347    351     1  0.0000000  1.2552000  3
    345    344    341    347     1  0.0000000  0.6508444  3
    345    344    364    365     1  0.0000000  0.0000000  2
    346    344    341    347     1  0.0000000  0.6508444  3
    346    344    364    365     1  0.0000000  0.0000000  2
    347    348    357    358     1  0.0000000  0.6508444  3
    347    348    357    359     1  0.0000000  0.6508444  3
    347    351    354    355     1  0.0000000  0.6508444  3
    347    351    354    356     1  0.0000000  0.6508444  3
    348    347    351    352     1  0.0000000  1.2552000  3
    348    347    351    353     1  0.0000000  1.2552000  3
    349    348    347    351     1  0.0000000  1.2552000  3
    349    348    357    361     1  0.0000000  0.6508444  3
    349    348    357    358     1  0.0000000  0.6508444  3
    349    348    357    359     1  0.0000000  0.6508444  3
    350    348    347    351     1  0.0000000  1.2552000  3
    350    348    357    361     1  0.0000000  0.6508444  3
    350    348    357    358     1  0.0000000  0.6508444  3
    350    348    357    359     1  0.0000000  0.6508444  3
    352    351    354    360     1  0.0000000  0.6508444  3
    352    351    354    355     1  0.0000000  0.6508444  3
    352    351    354    356     1  0.0000000  0.6508444  3
    353    351    354    360     1  0.0000000  0.6508444  3
    353    351    354    355     1  0.0000000  0.6508444  3
    353    351    354    356     1  0.0000000  0.6508444  3
    354    360    764    765     1  180.0000771  10.4600000  2
    355    354    360    362     1  0.0000000  3.3472000  1
    355    354    360    362     1  0.0000000  0.0000000  2
    355    354    360    362     1  180.0000771  0.3347200  3
    355    354    360    764     1  180.0000771  0.0000000  2
    356    354    360    362     1  0.0000000  3.3472000  1
    356    354    360    362     1  0.0000000  0.0000000  2
    356    354    360    362     1  180.0000771  0.3347200  3
    356    354    360    764     1  180.0000771  0.0000000  2
    357    361    789    790     1  180.0000771  10.4600000  2
    358    357    361    363     1  0.0000000  3.3472000  1
    358    357    361    363     1  0.0000000  0.0000000  2
    358    357    361    363     1  180.0000771  0.3347200  3
    358    357    361    789     1  180.0000771  0.0000000  2
    359    357    361    363     1  0.0000000  3.3472000  1
    359    357    361    363     1  0.0000000  0.0000000  2
    359    357    361    363     1  180.0000771  0.3347200  3
    359    357    361    789     1  180.0000771  0.0000000  2
    360    764    744    745     1  0.0000000  0.0000000  2
    360    764    744    746     1  0.0000000  0.0000000  2
    361    789    769    770     1  0.0000000  0.0000000  2
    361    789    769    771     1  0.0000000  0.0000000  2
    362    360    764    765     1  0.0000000  8.3680000  1
    362    360    764    765     1  180.0000771  10.4600000  2
    363    361    789    790     1  0.0000000  8.3680000  1
    363    361    789    790     1  180.0000771  10.4600000  2
    366    369    389    390     1  0.0000000  0.0000000  2
    366    372    373    374     1  0.0000000  1.2552000  3
    366    372    373    375     1  0.0000000  1.2552000  3
    366    372    376    377     1  0.0000000  1.2552000  3
    366    372    376    378     1  0.0000000  1.2552000  3
    367    366    369    389     1  0.0000000  0.6508444  3
    367    366    369    370     1  0.0000000  0.6508444  3
    367    366    369    371     1  0.0000000  0.6508444  3
    367    366    372    373     1  0.0000000  1.2552000  3
    367    366    372    376     1  0.0000000  1.2552000  3
    368    366    369    389     1  0.0000000  0.6508444  3
    368    366    369    370     1  0.0000000  0.6508444  3
    368    366    369    371     1  0.0000000  0.6508444  3
    368    366    372    373     1  0.0000000  1.2552000  3
    368    366    372    376     1  0.0000000  1.2552000  3
    370    369    366    372     1  0.0000000  0.6508444  3
    370    369    389    390     1  0.0000000  0.0000000  2
    371    369    366    372     1  0.0000000  0.6508444  3
    371    369    389    390     1  0.0000000  0.0000000  2
    372    373    382    383     1  0.0000000  0.6508444  3
    372    373    382    384     1  0.0000000  0.6508444  3
    372    376    379    380     1  0.0000000  0.6508444  3
    372    376    379    381     1  0.0000000  0.6508444  3
    373    372    376    377     1  0.0000000  1.2552000  3
    373    372    376    378     1  0.0000000  1.2552000  3
    374    373    372    376     1  0.0000000  1.2552000  3
    374    373    382    386     1  0.0000000  0.6508444  3
    374    373    382    383     1  0.0000000  0.6508444  3
    374    373    382    384     1  0.0000000  0.6508444  3
    375    373    372    376     1  0.0000000  1.2552000  3
    375    373    382    386     1  0.0000000  0.6508444  3
    375    373    382    383     1  0.0000000  0.6508444  3
    375    373    382    384     1  0.0000000  0.6508444  3
    377    376    379    385     1  0.0000000  0.6508444  3
    377    376    379    380     1  0.0000000  0.6508444  3
    377    376    379    381     1  0.0000000  0.6508444  3
    378    376    379    385     1  0.0000000  0.6508444  3
    378    376    379    380     1  0.0000000  0.6508444  3
    378    376    379    381     1  0.0000000  0.6508444  3
    379    385    814    815     1  180.0000771  10.4600000  2
    380    379    385    387     1  0.0000000  3.3472000  1
    380    379    385    387     1  0.0000000  0.0000000  2
    380    379    385    387     1  180.0000771  0.3347200  3
    380    379    385    814     1  180.0000771  0.0000000  2
    381    379    385    387     1  0.0000000  3.3472000  1
    381    379    385    387     1  0.0000000  0.0000000  2
    381    379    385    387     1  180.0000771  0.3347200  3
    381    379    385    814     1  180.0000771  0.0000000  2
    382    386    839    840     1  180.0000771  10.4600000  2
    383    382    386    388     1  0.0000000  3.3472000  1
    383    382    386    388     1  0.0000000  0.0000000  2
    383    382    386    388     1  180.0000771  0.3347200  3
    383    382    386    839     1  180.0000771  0.0000000  2
    384    382    386    388     1  0.0000000  3.3472000  1
    384    382    386    388     1  0.0000000  0.0000000  2
    384    382    386    388     1  180.0000771  0.3347200  3
    384    382    386    839     1  180.0000771  0.0000000  2
    385    814    794    795     1  0.0000000  0.0000000  2
    385    814    794    796     1  0.0000000  0.0000000  2
    386    839    819    820     1  0.0000000  0.0000000  2
    386    839    819    821     1  0.0000000  0.0000000  2
    387    385    814    815     1  0.0000000  8.3680000  1
    387    385    814    815     1  180.0000771  10.4600000  2
    388    386    839    840     1  0.0000000  8.3680000  1
    388    386    839    840     1  180.0000771  10.4600000  2
    391    394    414    415     1  0.0000000  0.0000000  2
    391    397    398    399     1  0.0000000  1.2552000  3
    391    397    398    400     1  0.0000000  1.2552000  3
    391    397    401    402     1  0.0000000  1.2552000  3
    391    397    401    403     1  0.0000000  1.2552000  3
    392    391    394    414     1  0.0000000  0.6508444  3
    392    391    394    395     1  0.0000000  0.6508444  3
    392    391    394    396     1  0.0000000  0.6508444  3
    392    391    397    398     1  0.0000000  1.2552000  3
    392    391    397    401     1  0.0000000  1.2552000  3
    393    391    394    414     1  0.0000000  0.6508444  3
    393    391    394    395     1  0.0000000  0.6508444  3
    393    391    394    396     1  0.0000000  0.6508444  3
    393    391    397    398     1  0.0000000  1.2552000  3
    393    391    397    401     1  0.0000000  1.2552000  3
    395    394    391    397     1  0.0000000  0.6508444  3
    395    394    414    415     1  0.0000000  0.0000000  2
    396    394    391    397     1  0.0000000  0.6508444  3
    396    394    414    415     1  0.0000000  0.0000000  2
    397    398    407    408     1  0.0000000  0.6508444  3
    397    398    407    409     1  0.0000000  0.6508444  3
    397    401    404    405     1  0.0000000  0.6508444  3
    397    401    404    406     1  0.0000000  0.6508444  3
    398    397    401    402     1  0.0000000  1.2552000  3
    398    397    401    403     1  0.0000000  1.2552000  3
    399    398    397    401     1  0.0000000  1.2552000  3
    399    398    407    411     1  0.0000000  0.6508444  3
    399    398    407    408     1  0.0000000  0.6508444  3
    399    398    407    409     1  0.0000000  0.6508444  3
    400    398    397    401     1  0.0000000  1.2552000  3
    400    398    407    411     1  0.0000000  0.6508444  3
    400    398    407    408     1  0.0000000  0.6508444  3
    400    398    407    409     1  0.0000000  0.6508444  3
    402    401    404    410     1  0.0000000  0.6508444  3
    402    401    404    405     1  0.0000000  0.6508444  3
    402    401    404    406     1  0.0000000  0.6508444  3
    403    401    404    410     1  0.0000000  0.6508444  3
    403    401    404    405     1  0.0000000  0.6508444  3
    403    401    404    406     1  0.0000000  0.6508444  3
    404    410    864    865     1  180.0000771  10.4600000  2
    405    404    410    412     1  0.0000000  3.3472000  1
    405    404    410    412     1  0.0000000  0.0000000  2
    405    404    410    412     1  180.0000771  0.3347200  3
    405    404    410    864     1  180.0000771  0.0000000  2
    406    404    410    412     1  0.0000000  3.3472000  1
    406    404    410    412     1  0.0000000  0.0000000  2
    406    404    410    412     1  180.0000771  0.3347200  3
    406    404    410    864     1  180.0000771  0.0000000  2
    407    411    889    890     1  180.0000771  10.4600000  2
    408    407    411    413     1  0.0000000  3.3472000  1
    408    407    411    413     1  0.0000000  0.0000000  2
    408    407    411    413     1  180.0000771  0.3347200  3
    408    407    411    889     1  180.0000771  0.0000000  2
    409    407    411    413     1  0.0000000  3.3472000  1
    409    407    411    413     1  0.0000000  0.0000000  2
    409    407    411    413     1  180.0000771  0.3347200  3
    409    407    411    889     1  180.0000771  0.0000000  2
    410    864    844    845     1  0.0000000  0.0000000  2
    410    864    844    846     1  0.0000000  0.0000000  2
    411    889    869    870     1  0.0000000  0.0000000  2
    411    889    869    871     1  0.0000000  0.0000000  2
    412    410    864    865     1  0.0000000  8.3680000  1
    412    410    864    865     1  180.0000771  10.4600000  2
    413    411    889    890     1  0.0000000  8.3680000  1
    413    411    889    890     1  180.0000771  10.4600000  2
    416    419    439    440     1  0.0000000  0.0000000  2
    416    422    423    424     1  0.0000000  1.2552000  3
    416    422    423    425     1  0.0000000  1.2552000  3
    416    422    426    427     1  0.0000000  1.2552000  3
    416    422    426    428     1  0.0000000  1.2552000  3
    417    416    419    439     1  0.0000000  0.6508444  3
    417    416    419    420     1  0.0000000  0.6508444  3
    417    416    419    421     1  0.0000000  0.6508444  3
    417    416    422    423     1  0.0000000  1.2552000  3
    417    416    422    426     1  0.0000000  1.2552000  3
    418    416    419    439     1  0.0000000  0.6508444  3
    418    416    419    420     1  0.0000000  0.6508444  3
    418    416    419    421     1  0.0000000  0.6508444  3
    418    416    422    423     1  0.0000000  1.2552000  3
    418    416    422    426     1  0.0000000  1.2552000  3
    420    419    416    422     1  0.0000000  0.6508444  3
    420    419    439    440     1  0.0000000  0.0000000  2
    421    419    416    422     1  0.0000000  0.6508444  3
    421    419    439    440     1  0.0000000  0.0000000  2
    422    423    432    433     1  0.0000000  0.6508444  3
    422    423    432    434     1  0.0000000  0.6508444  3
    422    426    429    430     1  0.0000000  0.6508444  3
    422    426    429    431     1  0.0000000  0.6508444  3
    423    422    426    427     1  0.0000000  1.2552000  3
    423    422    426    428     1  0.0000000  1.2552000  3
    424    423    422    426     1  0.0000000  1.2552000  3
    424    423    432    436     1  0.0000000  0.6508444  3
    424    423    432    433     1  0.0000000  0.6508444  3
    424    423    432    434     1  0.0000000  0.6508444  3
    425    423    422    426     1  0.0000000  1.2552000  3
    425    423    432    436     1  0.0000000  0.6508444  3
    425    423    432    433     1  0.0000000  0.6508444  3
    425    423    432    434     1  0.0000000  0.6508444  3
    427    426    429    435     1  0.0000000  0.6508444  3
    427    426    429    430     1  0.0000000  0.6508444  3
    427    426    429    431     1  0.0000000  0.6508444  3
    428    426    429    435     1  0.0000000  0.6508444  3
    428    426    429    430     1  0.0000000  0.6508444  3
    428    426    429    431     1  0.0000000  0.6508444  3
    429    435    914    915     1  180.0000771  10.4600000  2
    430    429    435    437     1  0.0000000  3.3472000  1
    430    429    435    437     1  0.0000000  0.0000000  2
    430    429    435    437     1  180.0000771  0.3347200  3
    430    429    435    914     1  180.0000771  0.0000000  2
    431    429    435    437     1  0.0000000  3.3472000  1
    431    429    435    437     1  0.0000000  0.0000000  2
    431    429    435    437     1  180.0000771  0.3347200  3
    431    429    435    914     1  180.0000771  0.0000000  2
    432    436    939    940     1  180.0000771  10.4600000  2
    433    432    436    438     1  0.0000000  3.3472000  1
    433    432    436    438     1  0.0000000  0.0000000  2
    433    432    436    438     1  180.0000771  0.3347200  3
    433    432    436    939     1  180.0000771  0.0000000  2
    434    432    436    438     1  0.0000000  3.3472000  1
    434    432    436    438     1  0.0000000  0.0000000  2
    434    432    436    438     1  180.0000771  0.3347200  3
    434    432    436    939     1  180.0000771  0.0000000  2
    435    914    894    895     1  0.0000000  0.0000000  2
    435    914    894    896     1  0.0000000  0.0000000  2
    436    939    919    920     1  0.0000000  0.0000000  2
    436    939    919    921     1  0.0000000  0.0000000  2
    437    435    914    915     1  0.0000000  8.3680000  1
    437    435    914    915     1  180.0000771  10.4600000  2
    438    436    939    940     1  0.0000000  8.3680000  1
    438    436    939    940     1  180.0000771  10.4600000  2
    441    444    464    465     1  0.0000000  0.0000000  2
    441    447    448    449     1  0.0000000  1.2552000  3
    441    447    448    450     1  0.0000000  1.2552000  3
    441    447    451    452     1  0.0000000  1.2552000  3
    441    447    451    453     1  0.0000000  1.2552000  3
    442    441    444    464     1  0.0000000  0.6508444  3
    442    441    444    445     1  0.0000000  0.6508444  3
    442    441    444    446     1  0.0000000  0.6508444  3
    442    441    447    448     1  0.0000000  1.2552000  3
    442    441    447    451     1  0.0000000  1.2552000  3
    443    441    444    464     1  0.0000000  0.6508444  3
    443    441    444    445     1  0.0000000  0.6508444  3
    443    441    444    446     1  0.0000000  0.6508444  3
    443    441    447    448     1  0.0000000  1.2552000  3
    443    441    447    451     1  0.0000000  1.2552000  3
    445    444    441    447     1  0.0000000  0.6508444  3
    445    444    464    465     1  0.0000000  0.0000000  2
    446    444    441    447     1  0.0000000  0.6508444  3
    446    444    464    465     1  0.0000000  0.0000000  2
    447    448    457    458     1  0.0000000  0.6508444  3
    447    448    457    459     1  0.0000000  0.6508444  3
    447    451    454    455     1  0.0000000  0.6508444  3
    447    451    454    456     1  0.0000000  0.6508444  3
    448    447    451    452     1  0.0000000  1.2552000  3
    448    447    451    453     1  0.0000000  1.2552000  3
    449    448    447    451     1  0.0000000  1.2552000  3
    449    448    457    461     1  0.0000000  0.6508444  3
    449    448    457    458     1  0.0000000  0.6508444  3
    449    448    457    459     1  0.0000000  0.6508444  3
    450    448    447    451     1  0.0000000  1.2552000  3
    450    448    457    461     1  0.0000000  0.6508444  3
    450    448    457    458     1  0.0000000  0.6508444  3
    450    448    457    459     1  0.0000000  0.6508444  3
    452    451    454    460     1  0.0000000  0.6508444  3
    452    451    454    455     1  0.0000000  0.6508444  3
    452    451    454    456     1  0.0000000  0.6508444  3
    453    451    454    460     1  0.0000000  0.6508444  3
    453    451    454    455     1  0.0000000  0.6508444  3
    453    451    454    456     1  0.0000000  0.6508444  3
    454    460    964    965     1  180.0000771  10.4600000  2
    455    454    460    462     1  0.0000000  3.3472000  1
    455    454    460    462     1  0.0000000  0.0000000  2
    455    454    460    462     1  180.0000771  0.3347200  3
    455    454    460    964     1  180.0000771  0.0000000  2
    456    454    460    462     1  0.0000000  3.3472000  1
    456    454    460    462     1  0.0000000  0.0000000  2
    456    454    460    462     1  180.0000771  0.3347200  3
    456    454    460    964     1  180.0000771  0.0000000  2
    457    461    989    990     1  180.0000771  10.4600000  2
    458    457    461    463     1  0.0000000  3.3472000  1
    458    457    461    463     1  0.0000000  0.0000000  2
    458    457    461    463     1  180.0000771  0.3347200  3
    458    457    461    989     1  180.0000771  0.0000000  2
    459    457    461    463     1  0.0000000  3.3472000  1
    459    457    461    463     1  0.0000000  0.0000000  2
    459    457    461    463     1  180.0000771  0.3347200  3
    459    457    461    989     1  180.0000771  0.0000000  2
    460    964    944    945     1  0.0000000  0.0000000  2
    460    964    944    946     1  0.0000000  0.0000000  2
    461    989    969    970     1  0.0000000  0.0000000  2
    461    989    969    971     1  0.0000000  0.0000000  2
    462    460    964    965     1  0.0000000  8.3680000  1
    462    460    964    965     1  180.0000771  10.4600000  2
    463    461    989    990     1  0.0000000  8.3680000  1
    463    461    989    990     1  180.0000771  10.4600000  2
    466    469    489    490     1  0.0000000  0.0000000  2
    466    472    473    474     1  0.0000000  1.2552000  3
    466    472    473    475     1  0.0000000  1.2552000  3
    466    472    476    477     1  0.0000000  1.2552000  3
    466    472    476    478     1  0.0000000  1.2552000  3
    467    466    469    489     1  0.0000000  0.6508444  3
    467    466    469    470     1  0.0000000  0.6508444  3
    467    466    469    471     1  0.0000000  0.6508444  3
    467    466    472    473     1  0.0000000  1.2552000  3
    467    466    472    476     1  0.0000000  1.2552000  3
    468    466    469    489     1  0.0000000  0.6508444  3
    468    466    469    470     1  0.0000000  0.6508444  3
    468    466    469    471     1  0.0000000  0.6508444  3
    468    466    472    473     1  0.0000000  1.2552000  3
    468    466    472    476     1  0.0000000  1.2552000  3
    470    469    466    472     1  0.0000000  0.6508444  3
    470    469    489    490     1  0.0000000  0.0000000  2
    471    469    466    472     1  0.0000000  0.6508444  3
    471    469    489    490     1  0.0000000  0.0000000  2
    472    473    482    483     1  0.0000000  0.6508444  3
    472    473    482    484     1  0.0000000  0.6508444  3
    472    476    479    480     1  0.0000000  0.6508444  3
    472    476    479    481     1  0.0000000  0.6508444  3
    473    472    476    477     1  0.0000000  1.2552000  3
    473    472    476    478     1  0.0000000  1.2552000  3
    474    473    472    476     1  0.0000000  1.2552000  3
    474    473    482    486     1  0.0000000  0.6508444  3
    474    473    482    483     1  0.0000000  0.6508444  3
    474    473    482    484     1  0.0000000  0.6508444  3
    475    473    472    476     1  0.0000000  1.2552000  3
    475    473    482    486     1  0.0000000  0.6508444  3
    475    473    482    483     1  0.0000000  0.6508444  3
    475    473    482    484     1  0.0000000  0.6508444  3
    477    476    479    485     1  0.0000000  0.6508444  3
    477    476    479    480     1  0.0000000  0.6508444  3
    477    476    479    481     1  0.0000000  0.6508444  3
    478    476    479    485     1  0.0000000  0.6508444  3
    478    476    479    480     1  0.0000000  0.6508444  3
    478    476    479    481     1  0.0000000  0.6508444  3
    479    485   1014   1015     1  180.0000771  10.4600000  2
    480    479    485    487     1  0.0000000  3.3472000  1
    480    479    485    487     1  0.0000000  0.0000000  2
    480    479    485    487     1  180.0000771  0.3347200  3
    480    479    485   1014     1  180.0000771  0.0000000  2
    481    479    485    487     1  0.0000000  3.3472000  1
    481    479    485    487     1  0.0000000  0.0000000  2
    481    479    485    487     1  180.0000771  0.3347200  3
    481    479    485   1014     1  180.0000771  0.0000000  2
    482    486   1039   1040     1  180.0000771  10.4600000  2
    483    482    486    488     1  0.0000000  3.3472000  1
    483    482    486    488     1  0.0000000  0.0000000  2
    483    482    486    488     1  180.0000771  0.3347200  3
    483    482    486   1039     1  180.0000771  0.0000000  2
    484    482    486    488     1  0.0000000  3.3472000  1
    484    482    486    488     1  0.0000000  0.0000000  2
    484    482    486    488     1  180.0000771  0.3347200  3
    484    482    486   1039     1  180.0000771  0.0000000  2
    485   1014    994    995     1  0.0000000  0.0000000  2
    485   1014    994    996     1  0.0000000  0.0000000  2
    486   1039   1019   1020     1  0.0000000  0.0000000  2
    486   1039   1019   1021     1  0.0000000  0.0000000  2
    487    485   1014   1015     1  0.0000000  8.3680000  1
    487    485   1014   1015     1  180.0000771  10.4600000  2
    488    486   1039   1040     1  0.0000000  8.3680000  1
    488    486   1039   1040     1  180.0000771  10.4600000  2
    491    494    514    515     1  0.0000000  0.0000000  2
    491    497    498    499     1  0.0000000  1.2552000  3
    491    497    498    500     1  0.0000000  1.2552000  3
    491    497    501    502     1  0.0000000  1.2552000  3
    491    497    501    503     1  0.0000000  1.2552000  3
    492    491    494    514     1  0.0000000  0.6508444  3
    492    491    494    495     1  0.0000000  0.6508444  3
    492    491    494    496     1  0.0000000  0.6508444  3
    492    491    497    498     1  0.0000000  1.2552000  3
    492    491    497    501     1  0.0000000  1.2552000  3
    493    491    494    514     1  0.0000000  0.6508444  3
    493    491    494    495     1  0.0000000  0.6508444  3
    493    491    494    496     1  0.0000000  0.6508444  3
    493    491    497    498     1  0.0000000  1.2552000  3
    493    491    497    501     1  0.0000000  1.2552000  3
    495    494    491    497     1  0.0000000  0.6508444  3
    495    494    514    515     1  0.0000000  0.0000000  2
    496    494    491    497     1  0.0000000  0.6508444  3
    496    494    514    515     1  0.0000000  0.0000000  2
    497    498    507    508     1  0.0000000  0.6508444  3
    497    498    507    509     1  0.0000000  0.6508444  3
    497    501    504    505     1  0.0000000  0.6508444  3
    497    501    504    506     1  0.0000000  0.6508444  3
    498    497    501    502     1  0.0000000  1.2552000  3
    498    497    501    503     1  0.0000000  1.2552000  3
    499    498    497    501     1  0.0000000  1.2552000  3
    499    498    507    511     1  0.0000000  0.6508444  3
    499    498    507    508     1  0.0000000  0.6508444  3
    499    498    507    509     1  0.0000000  0.6508444  3
    500    498    497    501     1  0.0000000  1.2552000  3
    500    498    507    511     1  0.0000000  0.6508444  3
    500    498    507    508     1  0.0000000  0.6508444  3
    500    498    507    509     1  0.0000000  0.6508444  3
    502    501    504    510     1  0.0000000  0.6508444  3
    502    501    504    505     1  0.0000000  0.6508444  3
    502    501    504    506     1  0.0000000  0.6508444  3
    503    501    504    510     1  0.0000000  0.6508444  3
    503    501    504    505     1  0.0000000  0.6508444  3
    503    501    504    506     1  0.0000000  0.6508444  3
    504    510   1064   1065     1  180.0000771  10.4600000  2
    505    504    510    512     1  0.0000000  3.3472000  1
    505    504    510    512     1  0.0000000  0.0000000  2
    505    504    510    512     1  180.0000771  0.3347200  3
    505    504    510   1064     1  180.0000771  0.0000000  2
    506    504    510    512     1  0.0000000  3.3472000  1
    506    504    510    512     1  0.0000000  0.0000000  2
    506    504    510    512     1  180.0000771  0.3347200  3
    506    504    510   1064     1  180.0000771  0.0000000  2
    507    511   1089   1090     1  180.0000771  10.4600000  2
    508    507    511    513     1  0.0000000  3.3472000  1
    508    507    511    513     1  0.0000000  0.0000000  2
    508    507    511    513     1  180.0000771  0.3347200  3
    508    507    511   1089     1  180.0000771  0.0000000  2
    509    507    511    513     1  0.0000000  3.3472000  1
    509    507    511    513     1  0.0000000  0.0000000  2
    509    507    511    513     1  180.0000771  0.3347200  3
    509    507    511   1089     1  180.0000771  0.0000000  2
    510   1064   1044   1045     1  0.0000000  0.0000000  2
    510   1064   1044   1046     1  0.0000000  0.0000000  2
    511   1089   1069   1070     1  0.0000000  0.0000000  2
    511   1089   1069   1071     1  0.0000000  0.0000000  2
    512    510   1064   1065     1  0.0000000  8.3680000  1
    512    510   1064   1065     1  180.0000771  10.4600000  2
    513    511   1089   1090     1  0.0000000  8.3680000  1
    513    511   1089   1090     1  180.0000771  10.4600000  2
    516    519    539    540     1  0.0000000  0.0000000  2
    516    522    523    524     1  0.0000000  1.2552000  3
    516    522    523    525     1  0.0000000  1.2552000  3
    516    522    526    527     1  0.0000000  1.2552000  3
    516    522    526    528     1  0.0000000  1.2552000  3
    517    516    519    539     1  0.0000000  0.6508444  3
    517    516    519    520     1  0.0000000  0.6508444  3
    517    516    519    521     1  0.0000000  0.6508444  3
    517    516    522    523     1  0.0000000  1.2552000  3
    517    516    522    526     1  0.0000000  1.2552000  3
    518    516    519    539     1  0.0000000  0.6508444  3
    518    516    519    520     1  0.0000000  0.6508444  3
    518    516    519    521     1  0.0000000  0.6508444  3
    518    516    522    523     1  0.0000000  1.2552000  3
    518    516    522    526     1  0.0000000  1.2552000  3
    520    519    516    522     1  0.0000000  0.6508444  3
    520    519    539    540     1  0.0000000  0.0000000  2
    521    519    516    522     1  0.0000000  0.6508444  3
    521    519    539    540     1  0.0000000  0.0000000  2
    522    523    532    533     1  0.0000000  0.6508444  3
    522    523    532    534     1  0.0000000  0.6508444  3
    522    526    529    530     1  0.0000000  0.6508444  3
    522    526    529    531     1  0.0000000  0.6508444  3
    523    522    526    527     1  0.0000000  1.2552000  3
    523    522    526    528     1  0.0000000  1.2552000  3
    524    523    522    526     1  0.0000000  1.2552000  3
    524    523    532    536     1  0.0000000  0.6508444  3
    524    523    532    533     1  0.0000000  0.6508444  3
    524    523    532    534     1  0.0000000  0.6508444  3
    525    523    522    526     1  0.0000000  1.2552000  3
    525    523    532    536     1  0.0000000  0.6508444  3
    525    523    532    533     1  0.0000000  0.6508444  3
    525    523    532    534     1  0.0000000  0.6508444  3
    527    526    529    535     1  0.0000000  0.6508444  3
    527    526    529    530     1  0.0000000  0.6508444  3
    527    526    529    531     1  0.0000000  0.6508444  3
    528    526    529    535     1  0.0000000  0.6508444  3
    528    526    529    530     1  0.0000000  0.6508444  3
    528    526    529    531     1  0.0000000  0.6508444  3
    529    535   1114   1115     1  180.0000771  10.4600000  2
    530    529    535    537     1  0.0000000  3.3472000  1
    530    529    535    537     1  0.0000000  0.0000000  2
    530    529    535    537     1  180.0000771  0.3347200  3
    530    529    535   1114     1  180.0000771  0.0000000  2
    531    529    535    537     1  0.0000000  3.3472000  1
    531    529    535    537     1  0.0000000  0.0000000  2
    531    529    535    537     1  180.0000771  0.3347200  3
    531    529    535   1114     1  180.0000771  0.0000000  2
    532    536   1139   1140     1  180.0000771  10.4600000  2
    533    532    536    538     1  0.0000000  3.3472000  1
    533    532    536    538     1  0.0000000  0.0000000  2
    533    532    536    538     1  180.0000771  0.3347200  3
    533    532    536   1139     1  180.0000771  0.0000000  2
    534    532    536    538     1  0.0000000  3.3472000  1
    534    532    536    538     1  0.0000000  0.0000000  2
    534    532    536    538     1  180.0000771  0.3347200  3
    534    532    536   1139     1  180.0000771  0.0000000  2
    535   1114   1094   1095     1  0.0000000  0.0000000  2
    535   1114   1094   1096     1  0.0000000  0.0000000  2
    536   1139   1119   1120     1  0.0000000  0.0000000  2
    536   1139   1119   1121     1  0.0000000  0.0000000  2
    537    535   1114   1115     1  0.0000000  8.3680000  1
    537    535   1114   1115     1  180.0000771  10.4600000  2
    538    536   1139   1140     1  0.0000000  8.3680000  1
    538    536   1139   1140     1  180.0000771  10.4600000  2
    541    544    564    565     1  0.0000000  0.0000000  2
    541    547    548    549     1  0.0000000  1.2552000  3
    541    547    548    550     1  0.0000000  1.2552000  3
    541    547    551    552     1  0.0000000  1.2552000  3
    541    547    551    553     1  0.0000000  1.2552000  3
    542    541    544    564     1  0.0000000  0.6508444  3
    542    541    544    545     1  0.0000000  0.6508444  3
    542    541    544    546     1  0.0000000  0.6508444  3
    542    541    547    548     1  0.0000000  1.2552000  3
    542    541    547    551     1  0.0000000  1.2552000  3
    543    541    544    564     1  0.0000000  0.6508444  3
    543    541    544    545     1  0.0000000  0.6508444  3
    543    541    544    546     1  0.0000000  0.6508444  3
    543    541    547    548     1  0.0000000  1.2552000  3
    543    541    547    551     1  0.0000000  1.2552000  3
    545    544    541    547     1  0.0000000  0.6508444  3
    545    544    564    565     1  0.0000000  0.0000000  2
    546    544    541    547     1  0.0000000  0.6508444  3
    546    544    564    565     1  0.0000000  0.0000000  2
    547    548    557    558     1  0.0000000  0.6508444  3
    547    548    557    559     1  0.0000000  0.6508444  3
    547    551    554    555     1  0.0000000  0.6508444  3
    547    551    554    556     1  0.0000000  0.6508444  3
    548    547    551    552     1  0.0000000  1.2552000  3
    548    547    551    553     1  0.0000000  1.2552000  3
    549    548    547    551     1  0.0000000  1.2552000  3
    549    548    557    561     1  0.0000000  0.6508444  3
    549    548    557    558     1  0.0000000  0.6508444  3
    549    548    557    559     1  0.0000000  0.6508444  3
    550    548    547    551     1  0.0000000  1.2552000  3
    550    548    557    561     1  0.0000000  0.6508444  3
    550    548    557    558     1  0.0000000  0.6508444  3
    550    548    557    559     1  0.0000000  0.6508444  3
    552    551    554    560     1  0.0000000  0.6508444  3
    552    551    554    555     1  0.0000000  0.6508444  3
    552    551    554    556     1  0.0000000  0.6508444  3
    553    551    554    560     1  0.0000000  0.6508444  3
    553    551    554    555     1  0.0000000  0.6508444  3
    553    551    554    556     1  0.0000000  0.6508444  3
    554    560   1164   1165     1  180.0000771  10.4600000  2
    555    554    560    562     1  0.0000000  3.3472000  1
    555    554    560    562     1  0.0000000  0.0000000  2
    555    554    560    562     1  180.0000771  0.3347200  3
    555    554    560   1164     1  180.0000771  0.0000000  2
    556    554    560    562     1  0.0000000  3.3472000  1
    556    554    560    562     1  0.0000000  0.0000000  2
    556    554    560    562     1  180.0000771  0.3347200  3
    556    554    560   1164     1  180.0000771  0.0000000  2
    557    561   1189   1190     1  180.0000771  10.4600000  2
    558    557    561    563     1  0.0000000  3.3472000  1
    558    557    561    563     1  0.0000000  0.0000000  2
    558    557    561    563     1  180.0000771  0.3347200  3
    558    557    561   1189     1  180.0000771  0.0000000  2
    559    557    561    563     1  0.0000000  3.3472000  1
    559    557    561    563     1  0.0000000  0.0000000  2
    559    557    561    563     1  180.0000771  0.3347200  3
    559    557    561   1189     1  180.0000771  0.0000000  2
    560   1164   1144   1145     1  0.0000000  0.0000000  2
    560   1164   1144   1146     1  0.0000000  0.0000000  2
    561   1189   1169   1170     1  0.0000000  0.0000000  2
    561   1189   1169   1171     1  0.0000000  0.0000000  2
    562    560   1164   1165     1  0.0000000  8.3680000  1
    562    560   1164   1165     1  180.0000771  10.4600000  2
    563    561   1189   1190     1  0.0000000  8.3680000  1
    563    561   1189   1190     1  180.0000771  10.4600000  2
    566    569    589    590     1  0.0000000  0.0000000  2
    566    572    573    574     1  0.0000000  1.2552000  3
    566    572    573    575     1  0.0000000  1.2552000  3
    566    572    576    577     1  0.0000000  1.2552000  3
    566    572    576    578     1  0.0000000  1.2552000  3
    567    566    569    589     1  0.0000000  0.6508444  3
    567    566    569    570     1  0.0000000  0.6508444  3
    567    566    569    571     1  0.0000000  0.6508444  3
    567    566    572    573     1  0.0000000  1.2552000  3
    567    566    572    576     1  0.0000000  1.2552000  3
    568    566    569    589     1  0.0000000  0.6508444  3
    568    566    569    570     1  0.0000000  0.6508444  3
    568    566    569    571     1  0.0000000  0.6508444  3
    568    566    572    573     1  0.0000000  1.2552000  3
    568    566    572    576     1  0.0000000  1.2552000  3
    570    569    566    572     1  0.0000000  0.6508444  3
    570    569    589    590     1  0.0000000  0.0000000  2
    571    569    566    572     1  0.0000000  0.6508444  3
    571    569    589    590     1  0.0000000  0.0000000  2
    572    573    582    583     1  0.0000000  0.6508444  3
    572    573    582    584     1  0.0000000  0.6508444  3
    572    576    579    580     1  0.0000000  0.6508444  3
    572    576    579    581     1  0.0000000  0.6508444  3
    573    572    576    577     1  0.0000000  1.2552000  3
    573    572    576    578     1  0.0000000  1.2552000  3
    574    573    572    576     1  0.0000000  1.2552000  3
    574    573    582    586     1  0.0000000  0.6508444  3
    574    573    582    583     1  0.0000000  0.6508444  3
    574    573    582    584     1  0.0000000  0.6508444  3
    575    573    572    576     1  0.0000000  1.2552000  3
    575    573    582    586     1  0.0000000  0.6508444  3
    575    573    582    583     1  0.0000000  0.6508444  3
    575    573    582    584     1  0.0000000  0.6508444  3
    577    576    579    585     1  0.0000000  0.6508444  3
    577    576    579    580     1  0.0000000  0.6508444  3
    577    576    579    581     1  0.0000000  0.6508444  3
    578    576    579    585     1  0.0000000  0.6508444  3
    578    576    579    580     1  0.0000000  0.6508444  3
    578    576    579    581     1  0.0000000  0.6508444  3
    579    585   1214   1215     1  180.0000771  10.4600000  2
    580    579    585    587     1  0.0000000  3.3472000  1
    580    579    585    587     1  0.0000000  0.0000000  2
    580    579    585    587     1  180.0000771  0.3347200  3
    580    579    585   1214     1  180.0000771  0.0000000  2
    581    579    585    587     1  0.0000000  3.3472000  1
    581    579    585    587     1  0.0000000  0.0000000  2
    581    579    585    587     1  180.0000771  0.3347200  3
    581    579    585   1214     1  180.0000771  0.0000000  2
    582    586   1239   1240     1  180.0000771  10.4600000  2
    583    582    586    588     1  0.0000000  3.3472000  1
    583    582    586    588     1  0.0000000  0.0000000  2
    583    582    586    588     1  180.0000771  0.3347200  3
    583    582    586   1239     1  180.0000771  0.0000000  2
    584    582    586    588     1  0.0000000  3.3472000  1
    584    582    586    588     1  0.0000000  0.0000000  2
    584    582    586    588     1  180.0000771  0.3347200  3
    584    582    586   1239     1  180.0000771  0.0000000  2
    585   1214   1194   1195     1  0.0000000  0.0000000  2
    585   1214   1194   1196     1  0.0000000  0.0000000  2
    586   1239   1219   1220     1  0.0000000  0.0000000  2
    586   1239   1219   1221     1  0.0000000  0.0000000  2
    587    585   1214   1215     1  0.0000000  8.3680000  1
    587    585   1214   1215     1  180.0000771  10.4600000  2
    588    586   1239   1240     1  0.0000000  8.3680000  1
    588    586   1239   1240     1  180.0000771  10.4600000  2
    591    594    614    615     1  0.0000000  0.0000000  2
    591    597    598    599     1  0.0000000  1.2552000  3
    591    597    598    600     1  0.0000000  1.2552000  3
    591    597    601    602     1  0.0000000  1.2552000  3
    591    597    601    603     1  0.0000000  1.2552000  3
    592    591    594    614     1  0.0000000  0.6508444  3
    592    591    594    595     1  0.0000000  0.6508444  3
    592    591    594    596     1  0.0000000  0.6508444  3
    592    591    597    598     1  0.0000000  1.2552000  3
    592    591    597    601     1  0.0000000  1.2552000  3
    593    591    594    614     1  0.0000000  0.6508444  3
    593    591    594    595     1  0.0000000  0.6508444  3
    593    591    594    596     1  0.0000000  0.6508444  3
    593    591    597    598     1  0.0000000  1.2552000  3
    593    591    597    601     1  0.0000000  1.2552000  3
    595    594    591    597     1  0.0000000  0.6508444  3
    595    594    614    615     1  0.0000000  0.0000000  2
    596    594    591    597     1  0.0000000  0.6508444  3
    596    594    614    615     1  0.0000000  0.0000000  2
    597    598    607    608     1  0.0000000  0.6508444  3
    597    598    607    609     1  0.0000000  0.6508444  3
    597    601    604    605     1  0.0000000  0.6508444  3
    597    601    604    606     1  0.0000000  0.6508444  3
    598    597    601    602     1  0.0000000  1.2552000  3
    598    597    601    603     1  0.0000000  1.2552000  3
    599    598    597    601     1  0.0000000  1.2552000  3
    599    598    607    611     1  0.0000000  0.6508444  3
    599    598    607    608     1  0.0000000  0.6508444  3
    599    598    607    609     1  0.0000000  0.6508444  3
    600    598    597    601     1  0.0000000  1.2552000  3
    600    598    607    611     1  0.0000000  0.6508444  3
    600    598    607    608     1  0.0000000  0.6508444  3
    600    598    607    609     1  0.0000000  0.6508444  3
    602    601    604    610     1  0.0000000  0.6508444  3
    602    601    604    605     1  0.0000000  0.6508444  3
    602    601    604    606     1  0.0000000  0.6508444  3
    603    601    604    610     1  0.0000000  0.6508444  3
    603    601    604    605     1  0.0000000  0.6508444  3
    603    601    604    606     1  0.0000000  0.6508444  3
    604    610   1264   1265     1  180.0000771  10.4600000  2
    605    604    610    612     1  0.0000000  3.3472000  1
    605    604    610    612     1  0.0000000  0.0000000  2
    605    604    610    612     1  180.0000771  0.3347200  3
    605    604    610   1264     1  180.0000771  0.0000000  2
    606    604    610    612     1  0.0000000  3.3472000  1
    606    604    610    612     1  0.0000000  0.0000000  2
    606    604    610    612     1  180.0000771  0.3347200  3
    606    604    610   1264     1  180.0000771  0.0000000  2
    607    611   1289   1290     1  180.0000771  10.4600000  2
    608    607    611    613     1  0.0000000  3.3472000  1
    608    607    611    613     1  0.0000000  0.0000000  2
    608    607    611    613     1  180.0000771  0.3347200  3
    608    607    611   1289     1  180.0000771  0.0000000  2
    609    607    611    613     1  0.0000000  3.3472000  1
    609    607    611    613     1  0.0000000  0.0000000  2
    609    607    611    613     1  180.0000771  0.3347200  3
    609    607    611   1289     1  180.0000771  0.0000000  2
    610   1264   1244   1245     1  0.0000000  0.0000000  2
    610   1264   1244   1246     1  0.0000000  0.0000000  2
    611   1289   1269   1270     1  0.0000000  0.0000000  2
    611   1289   1269   1271     1  0.0000000  0.0000000  2
    612    610   1264   1265     1  0.0000000  8.3680000  1
    612    610   1264   1265     1  180.0000771  10.4600000  2
    613    611   1289   1290     1  0.0000000  8.3680000  1
    613    611   1289   1290     1  180.0000771  10.4600000  2
    616    619    639    640     1  0.0000000  0.0000000  2
    616    622    623    624     1  0.0000000  1.2552000  3
    616    622    623    625     1  0.0000000  1.2552000  3
    616    622    626    627     1  0.0000000  1.2552000  3
    616    622    626    628     1  0.0000000  1.2552000  3
    617    616    619    639     1  0.0000000  0.6508444  3
    617    616    619    620     1  0.0000000  0.6508444  3
    617    616    619    621     1  0.0000000  0.6508444  3
    617    616    622    623     1  0.0000000  1.2552000  3
    617    616    622    626     1  0.0000000  1.2552000  3
    618    616    619    639     1  0.0000000  0.6508444  3
    618    616    619    620     1  0.0000000  0.6508444  3
    618    616    619    621     1  0.0000000  0.6508444  3
    618    616    622    623     1  0.0000000  1.2552000  3
    618    616    622    626     1  0.0000000  1.2552000  3
    620    619    616    622     1  0.0000000  0.6508444  3
    620    619    639    640     1  0.0000000  0.0000000  2
    621    619    616    622     1  0.0000000  0.6508444  3
    621    619    639    640     1  0.0000000  0.0000000  2
    622    623    632    633     1  0.0000000  0.6508444  3
    622    623    632    634     1  0.0000000  0.6508444  3
    622    626    629    630     1  0.0000000  0.6508444  3
    622    626    629    631     1  0.0000000  0.6508444  3
    623    622    626    627     1  0.0000000  1.2552000  3
    623    622    626    628     1  0.0000000  1.2552000  3
    624    623    622    626     1  0.0000000  1.2552000  3
    624    623    632    636     1  0.0000000  0.6508444  3
    624    623    632    633     1  0.0000000  0.6508444  3
    624    623    632    634     1  0.0000000  0.6508444  3
    625    623    622    626     1  0.0000000  1.2552000  3
    625    623    632    636     1  0.0000000  0.6508444  3
    625    623    632    633     1  0.0000000  0.6508444  3
    625    623    632    634     1  0.0000000  0.6508444  3
    627    626    629    635     1  0.0000000  0.6508444  3
    627    626    629    630     1  0.0000000  0.6508444  3
    627    626    629    631     1  0.0000000  0.6508444  3
    628    626    629    635     1  0.0000000  0.6508444  3
    628    626    629    630     1  0.0000000  0.6508444  3
    628    626    629    631     1  0.0000000  0.6508444  3
    629    635   1314   1315     1  180.0000771  10.4600000  2
    630    629    635    637     1  0.0000000  3.3472000  1
    630    629    635    637     1  0.0000000  0.0000000  2
    630    629    635    637     1  180.0000771  0.3347200  3
    630    629    635   1314     1  180.0000771  0.0000000  2
    631    629    635    637     1  0.0000000  3.3472000  1
    631    629    635    637     1  0.0000000  0.0000000  2
    631    629    635    637     1  180.0000771  0.3347200  3
    631    629    635   1314     1  180.0000771  0.0000000  2
    632    636   1339   1340     1  180.0000771  10.4600000  2
    633    632    636    638     1  0.0000000  3.3472000  1
    633    632    636    638     1  0.0000000  0.0000000  2
    633    632    636    638     1  180.0000771  0.3347200  3
    633    632    636   1339     1  180.0000771  0.0000000  2
    634    632    636    638     1  0.0000000  3.3472000  1
    634    632    636    638     1  0.0000000  0.0000000  2
    634    632    636    638     1  180.0000771  0.3347200  3
    634    632    636   1339     1  180.0000771  0.0000000  2
    635   1314   1294   1295     1  0.0000000  0.0000000  2
    635   1314   1294   1296     1  0.0000000  0.0000000  2
    636   1339   1319   1320     1  0.0000000  0.0000000  2
    636   1339   1319   1321     1  0.0000000  0.0000000  2
    637    635   1314   1315     1  0.0000000  8.3680000  1
    637    635   1314   1315     1  180.0000771  10.4600000  2
    638    636   1339   1340     1  0.0000000  8.3680000  1
    638    636   1339   1340     1  180.0000771  10.4600000  2
    641    644    664    665     1  0.0000000  0.0000000  2
    641    647    648    649     1  0.0000000  1.2552000  3
    641    647    648    650     1  0.0000000  1.2552000  3
    641    647    651    652     1  0.0000000  1.2552000  3
    641    647    651    653     1  0.0000000  1.2552000  3
    642    641    644    664     1  0.0000000  0.6508444  3
    642    641    644    645     1  0.0000000  0.6508444  3
    642    641    644    646     1  0.0000000  0.6508444  3
    642    641    647    648     1  0.0000000  1.2552000  3
    642    641    647    651     1  0.0000000  1.2552000  3
    643    641    644    664     1  0.0000000  0.6508444  3
    643    641    644    645     1  0.0000000  0.6508444  3
    643    641    644    646     1  0.0000000  0.6508444  3
    643    641    647    648     1  0.0000000  1.2552000  3
    643    641    647    651     1  0.0000000  1.2552000  3
    645    644    641    647     1  0.0000000  0.6508444  3
    645    644    664    665     1  0.0000000  0.0000000  2
    646    644    641    647     1  0.0000000  0.6508444  3
    646    644    664    665     1  0.0000000  0.0000000  2
    647    648    657    658     1  0.0000000  0.6508444  3
    647    648    657    659     1  0.0000000  0.6508444  3
    647    651    654    655     1  0.0000000  0.6508444  3
    647    651    654    656     1  0.0000000  0.6508444  3
    648    647    651    652     1  0.0000000  1.2552000  3
    648    647    651    653     1  0.0000000  1.2552000  3
    649    648    647    651     1  0.0000000  1.2552000  3
    649    648    657    661     1  0.0000000  0.6508444  3
    649    648    657    658     1  0.0000000  0.6508444  3
    649    648    657    659     1  0.0000000  0.6508444  3
    650    648    647    651     1  0.0000000  1.2552000  3
    650    648    657    661     1  0.0000000  0.6508444  3
    650    648    657    658     1  0.0000000  0.6508444  3
    650    648    657    659     1  0.0000000  0.6508444  3
    652    651    654    660     1  0.0000000  0.6508444  3
    652    651    654    655     1  0.0000000  0.6508444  3
    652    651    654    656     1  0.0000000  0.6508444  3
    653    651    654    660     1  0.0000000  0.6508444  3
    653    651    654    655     1  0.0000000  0.6508444  3
    653    651    654    656     1  0.0000000  0.6508444  3
    654    660   1364   1365     1  180.0000771  10.4600000  2
    655    654    660    662     1  0.0000000  3.3472000  1
    655    654    660    662     1  0.0000000  0.0000000  2
    655    654    660    662     1  180.0000771  0.3347200  3
    655    654    660   1364     1  180.0000771  0.0000000  2
    656    654    660    662     1  0.0000000  3.3472000  1
    656    654    660    662     1  0.0000000  0.0000000  2
    656    654    660    662     1  180.0000771  0.3347200  3
    656    654    660   1364     1  180.0000771  0.0000000  2
    657    661   1389   1390     1  180.0000771  10.4600000  2
    658    657    661    663     1  0.0000000  3.3472000  1
    658    657    661    663     1  0.0000000  0.0000000  2
    658    657    661    663     1  180.0000771  0.3347200  3
    658    657    661   1389     1  180.0000771  0.0000000  2
    659    657    661    663     1  0.0000000  3.3472000  1
    659    657    661    663     1  0.0000000  0.0000000  2
    659    657    661    663     1  180.0000771  0.3347200  3
    659    657    661   1389     1  180.0000771  0.0000000  2
    660   1364   1344   1345     1  0.0000000  0.0000000  2
    660   1364   1344   1346     1  0.0000000  0.0000000  2
    661   1389   1369   1370     1  0.0000000  0.0000000  2
    661   1389   1369   1371     1  0.0000000  0.0000000  2
    662    660   1364   1365     1  0.0000000  8.3680000  1
    662    660   1364   1365     1  180.0000771  10.4600000  2
    663    661   1389   1390     1  0.0000000  8.3680000  1
    663    661   1389   1390     1  180.0000771  10.4600000  2
    666    669    689    690     1  0.0000000  0.0000000  2
    666    672    673    674     1  0.0000000  1.2552000  3
    666    672    673    675     1  0.0000000  1.2552000  3
    666    672    676    677     1  0.0000000  1.2552000  3
    666    672    676    678     1  0.0000000  1.2552000  3
    667    666    669    689     1  0.0000000  0.6508444  3
    667    666    669    670     1  0.0000000  0.6508444  3
    667    666    669    671     1  0.0000000  0.6508444  3
    667    666    672    673     1  0.0000000  1.2552000  3
    667    666    672    676     1  0.0000000  1.2552000  3
    668    666    669    689     1  0.0000000  0.6508444  3
    668    666    669    670     1  0.0000000  0.6508444  3
    668    666    669    671     1  0.0000000  0.6508444  3
    668    666    672    673     1  0.0000000  1.2552000  3
    668    666    672    676     1  0.0000000  1.2552000  3
    670    669    666    672     1  0.0000000  0.6508444  3
    670    669    689    690     1  0.0000000  0.0000000  2
    671    669    666    672     1  0.0000000  0.6508444  3
    671    669    689    690     1  0.0000000  0.0000000  2
    672    673    682    683     1  0.0000000  0.6508444  3
    672    673    682    684     1  0.0000000  0.6508444  3
    672    676    679    680     1  0.0000000  0.6508444  3
    672    676    679    681     1  0.0000000  0.6508444  3
    673    672    676    677     1  0.0000000  1.2552000  3
    673    672    676    678     1  0.0000000  1.2552000  3
    674    673    672    676     1  0.0000000  1.2552000  3
    674    673    682    686     1  0.0000000  0.6508444  3
    674    673    682    683     1  0.0000000  0.6508444  3
    674    673    682    684     1  0.0000000  0.6508444  3
    675    673    672    676     1  0.0000000  1.2552000  3
    675    673    682    686     1  0.0000000  0.6508444  3
    675    673    682    683     1  0.0000000  0.6508444  3
    675    673    682    684     1  0.0000000  0.6508444  3
    677    676    679    685     1  0.0000000  0.6508444  3
    677    676    679    680     1  0.0000000  0.6508444  3
    677    676    679    681     1  0.0000000  0.6508444  3
    678    676    679    685     1  0.0000000  0.6508444  3
    678    676    679    680     1  0.0000000  0.6508444  3
    678    676    679    681     1  0.0000000  0.6508444  3
    679    685   1414   1415     1  180.0000771  10.4600000  2
    680    679    685    687     1  0.0000000  3.3472000  1
    680    679    685    687     1  0.0000000  0.0000000  2
    680    679    685    687     1  180.0000771  0.3347200  3
    680    679    685   1414     1  180.0000771  0.0000000  2
    681    679    685    687     1  0.0000000  3.3472000  1
    681    679    685    687     1  0.0000000  0.0000000  2
    681    679    685    687     1  180.0000771  0.3347200  3
    681    679    685   1414     1  180.0000771  0.0000000  2
    682    686   1439   1440     1  180.0000771  10.4600000  2
    683    682    686    688     1  0.0000000  3.3472000  1
    683    682    686    688     1  0.0000000  0.0000000  2
    683    682    686    688     1  180.0000771  0.3347200  3
    683    682    686   1439     1  180.0000771  0.0000000  2
    684    682    686    688     1  0.0000000  3.3472000  1
    684    682    686    688     1  0.0000000  0.0000000  2
    684    682    686    688     1  180.0000771  0.3347200  3
    684    682    686   1439     1  180.0000771  0.0000000  2
    685   1414   1394   1395     1  0.0000000  0.0000000  2
    685   1414   1394   1396     1  0.0000000  0.0000000  2
    686   1439   1419   1420     1  0.0000000  0.0000000  2
    686   1439   1419   1421     1  0.0000000  0.0000000  2
    687    685   1414   1415     1  0.0000000  8.3680000  1
    687    685   1414   1415     1  180.0000771  10.4600000  2
    688    686   1439   1440     1  0.0000000  8.3680000  1
    688    686   1439   1440     1  180.0000771  10.4600000  2
    691    694    714    715     1  0.0000000  0.0000000  2
    691    697    698    699     1  0.0000000  1.2552000  3
    691    697    698    700     1  0.0000000  1.2552000  3
    691    697    701    702     1  0.0000000  1.2552000  3
    691    697    701    703     1  0.0000000  1.2552000  3
    692    691    694    714     1  0.0000000  0.6508444  3
    692    691    694    695     1  0.0000000  0.6508444  3
    692    691    694    696     1  0.0000000  0.6508444  3
    692    691    697    698     1  0.0000000  1.2552000  3
    692    691    697    701     1  0.0000000  1.2552000  3
    693    691    694    714     1  0.0000000  0.6508444  3
    693    691    694    695     1  0.0000000  0.6508444  3
    693    691    694    696     1  0.0000000  0.6508444  3
    693    691    697    698     1  0.0000000  1.2552000  3
    693    691    697    701     1  0.0000000  1.2552000  3
    695    694    691    697     1  0.0000000  0.6508444  3
    695    694    714    715     1  0.0000000  0.0000000  2
    696    694    691    697     1  0.0000000  0.6508444  3
    696    694    714    715     1  0.0000000  0.0000000  2
    697    698    707    708     1  0.0000000  0.6508444  3
    697    698    707    709     1  0.0000000  0.6508444  3
    697    701    704    705     1  0.0000000  0.6508444  3
    697    701    704    706     1  0.0000000  0.6508444  3
    698    697    701    702     1  0.0000000  1.2552000  3
    698    697    701    703     1  0.0000000  1.2552000  3
    699    698    697    701     1  0.0000000  1.2552000  3
    699    698    707    711     1  0.0000000  0.6508444  3
    699    698    707    708     1  0.0000000  0.6508444  3
    699    698    707    709     1  0.0000000  0.6508444  3
    700    698    697    701     1  0.0000000  1.2552000  3
    700    698    707    711     1  0.0000000  0.6508444  3
    700    698    707    708     1  0.0000000  0.6508444  3
    700    698    707    709     1  0.0000000  0.6508444  3
    702    701    704    710     1  0.0000000  0.6508444  3
    702    701    704    705     1  0.0000000  0.6508444  3
    702    701    704    706     1  0.0000000  0.6508444  3
    703    701    704    710     1  0.0000000  0.6508444  3
    703    701    704    705     1  0.0000000  0.6508444  3
    703    701    704    706     1  0.0000000  0.6508444  3
    704    710   1464   1465     1  180.0000771  10.4600000  2
    705    704    710    712     1  0.0000000  3.3472000  1
    705    704    710    712     1  0.0000000  0.0000000  2
    705    704    710    712     1  180.0000771  0.3347200  3
    705    704    710   1464     1  180.0000771  0.0000000  2
    706    704    710    712     1  0.0000000  3.3472000  1
    706    704    710    712     1  0.0000000  0.0000000  2
    706    704    710    712     1  180.0000771  0.3347200  3
    706    704    710   1464     1  180.0000771  0.0000000  2
    707    711   1489   1490     1  180.0000771  10.4600000  2
    708    707    711    713     1  0.0000000  3.3472000  1
    708    707    711    713     1  0.0000000  0.0000000  2
    708    707    711    713     1  180.0000771  0.3347200  3
    708    707    711   1489     1  180.0000771  0.0000000  2
    709    707    711    713     1  0.0000000  3.3472000  1
    709    707    711    713     1  0.0000000  0.0000000  2
    709    707    711    713     1  180.0000771  0.3347200  3
    709    707    711   1489     1  180.0000771  0.0000000  2
    710   1464   1444   1445     1  0.0000000  0.0000000  2
    710   1464   1444   1446     1  0.0000000  0.0000000  2
    711   1489   1469   1470     1  0.0000000  0.0000000  2
    711   1489   1469   1471     1  0.0000000  0.0000000  2
    712    710   1464   1465     1  0.0000000  8.3680000  1
    712    710   1464   1465     1  180.0000771  10.4600000  2
    713    711   1489   1490     1  0.0000000  8.3680000  1
    713    711   1489   1490     1  180.0000771  10.4600000  2
    716    719    739    740     1  0.0000000  0.0000000  2
    716    722    723    724     1  0.0000000  1.2552000  3
    716    722    723    725     1  0.0000000  1.2552000  3
    716    722    726    727     1  0.0000000  1.2552000  3
    716    722    726    728     1  0.0000000  1.2552000  3
    717    716    719    739     1  0.0000000  0.6508444  3
    717    716    719    720     1  0.0000000  0.6508444  3
    717    716    719    721     1  0.0000000  0.6508444  3
    717    716    722    723     1  0.0000000  1.2552000  3
    717    716    722    726     1  0.0000000  1.2552000  3
    718    716    719    739     1  0.0000000  0.6508444  3
    718    716    719    720     1  0.0000000  0.6508444  3
    718    716    719    721     1  0.0000000  0.6508444  3
    718    716    722    723     1  0.0000000  1.2552000  3
    718    716    722    726     1  0.0000000  1.2552000  3
    720    719    716    722     1  0.0000000  0.6508444  3
    720    719    739    740     1  0.0000000  0.0000000  2
    721    719    716    722     1  0.0000000  0.6508444  3
    721    719    739    740     1  0.0000000  0.0000000  2
    722    723    732    733     1  0.0000000  0.6508444  3
    722    723    732    734     1  0.0000000  0.6508444  3
    722    726    729    730     1  0.0000000  0.6508444  3
    722    726    729    731     1  0.0000000  0.6508444  3
    723    722    726    727     1  0.0000000  1.2552000  3
    723    722    726    728     1  0.0000000  1.2552000  3
    724    723    722    726     1  0.0000000  1.2552000  3
    724    723    732    736     1  0.0000000  0.6508444  3
    724    723    732    733     1  0.0000000  0.6508444  3
    724    723    732    734     1  0.0000000  0.6508444  3
    725    723    722    726     1  0.0000000  1.2552000  3
    725    723    732    736     1  0.0000000  0.6508444  3
    725    723    732    733     1  0.0000000  0.6508444  3
    725    723    732    734     1  0.0000000  0.6508444  3
    727    726    729    735     1  0.0000000  0.6508444  3
    727    726    729    730     1  0.0000000  0.6508444  3
    727    726    729    731     1  0.0000000  0.6508444  3
    728    726    729    735     1  0.0000000  0.6508444  3
    728    726    729    730     1  0.0000000  0.6508444  3
    728    726    729    731     1  0.0000000  0.6508444  3
    729    735   1514   1515     1  180.0000771  10.4600000  2
    730    729    735    737     1  0.0000000  3.3472000  1
    730    729    735    737     1  0.0000000  0.0000000  2
    730    729    735    737     1  180.0000771  0.3347200  3
    730    729    735   1514     1  180.0000771  0.0000000  2
    731    729    735    737     1  0.0000000  3.3472000  1
    731    729    735    737     1  0.0000000  0.0000000  2
    731    729    735    737     1  180.0000771  0.3347200  3
    731    729    735   1514     1  180.0000771  0.0000000  2
    732    736   1539   1540     1  180.0000771  10.4600000  2
    733    732    736    738     1  0.0000000  3.3472000  1
    733    732    736    738     1  0.0000000  0.0000000  2
    733    732    736    738     1  180.0000771  0.3347200  3
    733    732    736   1539     1  180.0000771  0.0000000  2
    734    732    736    738     1  0.0000000  3.3472000  1
    734    732    736    738     1  0.0000000  0.0000000  2
    734    732    736    738     1  180.0000771  0.3347200  3
    734    732    736   1539     1  180.0000771  0.0000000  2
    735   1514   1494   1495     1  0.0000000  0.0000000  2
    735   1514   1494   1496     1  0.0000000  0.0000000  2
    736   1539   1519   1520     1  0.0000000  0.0000000  2
    736   1539   1519   1521     1  0.0000000  0.0000000  2
    737    735   1514   1515     1  0.0000000  8.3680000  1
    737    735   1514   1515     1  180.0000771  10.4600000  2
    738    736   1539   1540     1  0.0000000  8.3680000  1
    738    736   1539   1540     1  180.0000771  10.4600000  2
    741    744    764    765     1  0.0000000  0.0000000  2
    741    747    748    749     1  0.0000000  1.2552000  3
    741    747    748    750     1  0.0000000  1.2552000  3
    741    747    751    752     1  0.0000000  1.2552000  3
    741    747    751    753     1  0.0000000  1.2552000  3
    742    741    744    764     1  0.0000000  0.6508444  3
    742    741    744    745     1  0.0000000  0.6508444  3
    742    741    744    746     1  0.0000000  0.6508444  3
    742    741    747    748     1  0.0000000  1.2552000  3
    742    741    747    751     1  0.0000000  1.2552000  3
    743    741    744    764     1  0.0000000  0.6508444  3
    743    741    744    745     1  0.0000000  0.6508444  3
    743    741    744    746     1  0.0000000  0.6508444  3
    743    741    747    748     1  0.0000000  1.2552000  3
    743    741    747    751     1  0.0000000  1.2552000  3
    745    744    741    747     1  0.0000000  0.6508444  3
    745    744    764    765     1  0.0000000  0.0000000  2
    746    744    741    747     1  0.0000000  0.6508444  3
    746    744    764    765     1  0.0000000  0.0000000  2
    747    748    757    758     1  0.0000000  0.6508444  3
    747    748    757    759     1  0.0000000  0.6508444  3
    747    751    754    755     1  0.0000000  0.6508444  3
    747    751    754    756     1  0.0000000  0.6508444  3
    748    747    751    752     1  0.0000000  1.2552000  3
    748    747    751    753     1  0.0000000  1.2552000  3
    749    748    747    751     1  0.0000000  1.2552000  3
    749    748    757    761     1  0.0000000  0.6508444  3
    749    748    757    758     1  0.0000000  0.6508444  3
    749    748    757    759     1  0.0000000  0.6508444  3
    750    748    747    751     1  0.0000000  1.2552000  3
    750    748    757    761     1  0.0000000  0.6508444  3
    750    748    757    758     1  0.0000000  0.6508444  3
    750    748    757    759     1  0.0000000  0.6508444  3
    752    751    754    760     1  0.0000000  0.6508444  3
    752    751    754    755     1  0.0000000  0.6508444  3
    752    751    754    756     1  0.0000000  0.6508444  3
    753    751    754    760     1  0.0000000  0.6508444  3
    753    751    754    755     1  0.0000000  0.6508444  3
    753    751    754    756     1  0.0000000  0.6508444  3
    754    760   1564   1565     1  180.0000771  10.4600000  2
    755    754    760    762     1  0.0000000  3.3472000  1
    755    754    760    762     1  0.0000000  0.0000000  2
    755    754    760    762     1  180.0000771  0.3347200  3
    755    754    760   1564     1  180.0000771  0.0000000  2
    756    754    760    762     1  0.0000000  3.3472000  1
    756    754    760    762     1  0.0000000  0.0000000  2
    756    754    760    762     1  180.0000771  0.3347200  3
    756    754    760   1564     1  180.0000771  0.0000000  2
    757    761   1589   1590     1  180.0000771  10.4600000  2
    758    757    761    763     1  0.0000000  3.3472000  1
    758    757    761    763     1  0.0000000  0.0000000  2
    758    757    761    763     1  180.0000771  0.3347200  3
    758    757    761   1589     1  180.0000771  0.0000000  2
    759    757    761    763     1  0.0000000  3.3472000  1
    759    757    761    763     1  0.0000000  0.0000000  2
    759    757    761    763     1  180.0000771  0.3347200  3
    759    757    761   1589     1  180.0000771  0.0000000  2
    760   1564   1544   1545     1  0.0000000  0.0000000  2
    760   1564   1544   1546     1  0.0000000  0.0000000  2
    761   1589   1569   1570     1  0.0000000  0.0000000  2
    761   1589   1569   1571     1  0.0000000  0.0000000  2
    762    760   1564   1565     1  0.0000000  8.3680000  1
    762    760   1564   1565     1  180.0000771  10.4600000  2
    763    761   1589   1590     1  0.0000000  8.3680000  1
    763    761   1589   1590     1  180.0000771  10.4600000  2
    766    769    789    790     1  0.0000000  0.0000000  2
    766    772    773    774     1  0.0000000  1.2552000  3
    766    772    773    775     1  0.0000000  1.2552000  3
    766    772    776    777     1  0.0000000  1.2552000  3
    766    772    776    778     1  0.0000000  1.2552000  3
    767    766    769    789     1  0.0000000  0.6508444  3
    767    766    769    770     1  0.0000000  0.6508444  3
    767    766    769    771     1  0.0000000  0.6508444  3
    767    766    772    773     1  0.0000000  1.2552000  3
    767    766    772    776     1  0.0000000  1.2552000  3
    768    766    769    789     1  0.0000000  0.6508444  3
    768    766    769    770     1  0.0000000  0.6508444  3
    768    766    769    771     1  0.0000000  0.6508444  3
    768    766    772    773     1  0.0000000  1.2552000  3
    768    766    772    776     1  0.0000000  1.2552000  3
    770    769    766    772     1  0.0000000  0.6508444  3
    770    769    789    790     1  0.0000000  0.0000000  2
    771    769    766    772     1  0.0000000  0.6508444  3
    771    769    789    790     1  0.0000000  0.0000000  2
    772    773    782    783     1  0.0000000  0.6508444  3
    772    773    782    784     1  0.0000000  0.6508444  3
    772    776    779    780     1  0.0000000  0.6508444  3
    772    776    779    781     1  0.0000000  0.6508444  3
    773    772    776    777     1  0.0000000  1.2552000  3
    773    772    776    778     1  0.0000000  1.2552000  3
    774    773    772    776     1  0.0000000  1.2552000  3
    774    773    782    786     1  0.0000000  0.6508444  3
    774    773    782    783     1  0.0000000  0.6508444  3
    774    773    782    784     1  0.0000000  0.6508444  3
    775    773    772    776     1  0.0000000  1.2552000  3
    775    773    782    786     1  0.0000000  0.6508444  3
    775    773    782    783     1  0.0000000  0.6508444  3
    775    773    782    784     1  0.0000000  0.6508444  3
    777    776    779    785     1  0.0000000  0.6508444  3
    777    776    779    780     1  0.0000000  0.6508444  3
    777    776    779    781     1  0.0000000  0.6508444  3
    778    776    779    785     1  0.0000000  0.6508444  3
    778    776    779    780     1  0.0000000  0.6508444  3
    778    776    779    781     1  0.0000000  0.6508444  3
    779    785   1614   1615     1  180.0000771  10.4600000  2
    780    779    785    787     1  0.0000000  3.3472000  1
    780    779    785    787     1  0.0000000  0.0000000  2
    780    779    785    787     1  180.0000771  0.3347200  3
    780    779    785   1614     1  180.0000771  0.0000000  2
    781    779    785    787     1  0.0000000  3.3472000  1
    781    779    785    787     1  0.0000000  0.0000000  2
    781    779    785    787     1  180.0000771  0.3347200  3
    781    779    785   1614     1  180.0000771  0.0000000  2
    782    786   1639   1640     1  180.0000771  10.4600000  2
    783    782    786    788     1  0.0000000  3.3472000  1
    783    782    786    788     1  0.0000000  0.0000000  2
    783    782    786    788     1  180.0000771  0.3347200  3
    783    782    786   1639     1  180.0000771  0.0000000  2
    784    782    786    788     1  0.0000000  3.3472000  1
    784    782    786    788     1  0.0000000  0.0000000  2
    784    782    786    788     1  180.0000771  0.3347200  3
    784    782    786   1639     1  180.0000771  0.0000000  2
    785   1614   1594   1595     1  0.0000000  0.0000000  2
    785   1614   1594   1596     1  0.0000000  0.0000000  2
    786   1639   1619   1620     1  0.0000000  0.0000000  2
    786   1639   1619   1621     1  0.0000000  0.0000000  2
    787    785   1614   1615     1  0.0000000  8.3680000  1
    787    785   1614   1615     1  180.0000771  10.4600000  2
    788    786   1639   1640     1  0.0000000  8.3680000  1
    788    786   1639   1640     1  180.0000771  10.4600000  2
    791    794    814    815     1  0.0000000  0.0000000  2
    791    797    798    799     1  0.0000000  1.2552000  3
    791    797    798    800     1  0.0000000  1.2552000  3
    791    797    801    802     1  0.0000000  1.2552000  3
    791    797    801    803     1  0.0000000  1.2552000  3
    792    791    794    814     1  0.0000000  0.6508444  3
    792    791    794    795     1  0.0000000  0.6508444  3
    792    791    794    796     1  0.0000000  0.6508444  3
    792    791    797    798     1  0.0000000  1.2552000  3
    792    791    797    801     1  0.0000000  1.2552000  3
    793    791    794    814     1  0.0000000  0.6508444  3
    793    791    794    795     1  0.0000000  0.6508444  3
    793    791    794    796     1  0.0000000  0.6508444  3
    793    791    797    798     1  0.0000000  1.2552000  3
    793    791    797    801     1  0.0000000  1.2552000  3
    795    794    791    797     1  0.0000000  0.6508444  3
    795    794    814    815     1  0.0000000  0.0000000  2
    796    794    791    797     1  0.0000000  0.6508444  3
    796    794    814    815     1  0.0000000  0.0000000  2
    797    798    807    808     1  0.0000000  0.6508444  3
    797    798    807    809     1  0.0000000  0.6508444  3
    797    801    804    805     1  0.0000000  0.6508444  3
    797    801    804    806     1  0.0000000  0.6508444  3
    798    797    801    802     1  0.0000000  1.2552000  3
    798    797    801    803     1  0.0000000  1.2552000  3
    799    798    797    801     1  0.0000000  1.2552000  3
    799    798    807    811     1  0.0000000  0.6508444  3
    799    798    807    808     1  0.0000000  0.6508444  3
    799    798    807    809     1  0.0000000  0.6508444  3
    800    798    797    801     1  0.0000000  1.2552000  3
    800    798    807    811     1  0.0000000  0.6508444  3
    800    798    807    808     1  0.0000000  0.6508444  3
    800    798    807    809     1  0.0000000  0.6508444  3
    802    801    804    810     1  0.0000000  0.6508444  3
    802    801    804    805     1  0.0000000  0.6508444  3
    802    801    804    806     1  0.0000000  0.6508444  3
    803    801    804    810     1  0.0000000  0.6508444  3
    803    801    804    805     1  0.0000000  0.6508444  3
    803    801    804    806     1  0.0000000  0.6508444  3
    804    810   1664   1665     1  180.0000771  10.4600000  2
    805    804    810    812     1  0.0000000  3.3472000  1
    805    804    810    812     1  0.0000000  0.0000000  2
    805    804    810    812     1  180.0000771  0.3347200  3
    805    804    810   1664     1  180.0000771  0.0000000  2
    806    804    810    812     1  0.0000000  3.3472000  1
    806    804    810    812     1  0.0000000  0.0000000  2
    806    804    810    812     1  180.0000771  0.3347200  3
    806    804    810   1664     1  180.0000771  0.0000000  2
    807    811   1689   1690     1  180.0000771  10.4600000  2
    808    807    811    813     1  0.0000000  3.3472000  1
    808    807    811    813     1  0.0000000  0.0000000  2
    808    807    811    813     1  180.0000771  0.3347200  3
    808    807    811   1689     1  180.0000771  0.0000000  2
    809    807    811    813     1  0.0000000  3.3472000  1
    809    807    811    813     1  0.0000000  0.0000000  2
    809    807    811    813     1  180.0000771  0.3347200  3
    809    807    811   1689     1  180.0000771  0.0000000  2
    810   1664   1644   1645     1  0.0000000  0.0000000  2
    810   1664   1644   1646     1  0.0000000  0.0000000  2
    811   1689   1669   1670     1  0.0000000  0.0000000  2
    811   1689   1669   1671     1  0.0000000  0.0000000  2
    812    810   1664   1665     1  0.0000000  8.3680000  1
    812    810   1664   1665     1  180.0000771  10.4600000  2
    813    811   1689   1690     1  0.0000000  8.3680000  1
    813    811   1689   1690     1  180.0000771  10.4600000  2
    816    819    839    840     1  0.0000000  0.0000000  2
    816    822    823    824     1  0.0000000  1.2552000  3
    816    822    823    825     1  0.0000000  1.2552000  3
    816    822    826    827     1  0.0000000  1.2552000  3
    816    822    826    828     1  0.0000000  1.2552000  3
    817    816    819    839     1  0.0000000  0.6508444  3
    817    816    819    820     1  0.0000000  0.6508444  3
    817    816    819    821     1  0.0000000  0.6508444  3
    817    816    822    823     1  0.0000000  1.2552000  3
    817    816    822    826     1  0.0000000  1.2552000  3
    818    816    819    839     1  0.0000000  0.6508444  3
    818    816    819    820     1  0.0000000  0.6508444  3
    818    816    819    821     1  0.0000000  0.6508444  3
    818    816    822    823     1  0.0000000  1.2552000  3
    818    816    822    826     1  0.0000000  1.2552000  3
    820    819    816    822     1  0.0000000  0.6508444  3
    820    819    839    840     1  0.0000000  0.0000000  2
    821    819    816    822     1  0.0000000  0.6508444  3
    821    819    839    840     1  0.0000000  0.0000000  2
    822    823    832    833     1  0.0000000  0.6508444  3
    822    823    832    834     1  0.0000000  0.6508444  3
    822    826    829    830     1  0.0000000  0.6508444  3
    822    826    829    831     1  0.0000000  0.6508444  3
    823    822    826    827     1  0.0000000  1.2552000  3
    823    822    826    828     1  0.0000000  1.2552000  3
    824    823    822    826     1  0.0000000  1.2552000  3
    824    823    832    836     1  0.0000000  0.6508444  3
    824    823    832    833     1  0.0000000  0.6508444  3
    824    823    832    834     1  0.0000000  0.6508444  3
    825    823    822    826     1  0.0000000  1.2552000  3
    825    823    832    836     1  0.0000000  0.6508444  3
    825    823    832    833     1  0.0000000  0.6508444  3
    825    823    832    834     1  0.0000000  0.6508444  3
    827    826    829    835     1  0.0000000  0.6508444  3
    827    826    829    830     1  0.0000000  0.6508444  3
    827    826    829    831     1  0.0000000  0.6508444  3
    828    826    829    835     1  0.0000000  0.6508444  3
    828    826    829    830     1  0.0000000  0.6508444  3
    828    826    829    831     1  0.0000000  0.6508444  3
    829    835   1714   1715     1  180.0000771  10.4600000  2
    830    829    835    837     1  0.0000000  3.3472000  1
    830    829    835    837     1  0.0000000  0.0000000  2
    830    829    835    837     1  180.0000771  0.3347200  3
    830    829    835   1714     1  180.0000771  0.0000000  2
    831    829    835    837     1  0.0000000  3.3472000  1
    831    829    835    837     1  0.0000000  0.0000000  2
    831    829    835    837     1  180.0000771  0.3347200  3
    831    829    835   1714     1  180.0000771  0.0000000  2
    832    836   1739   1740     1  180.0000771  10.4600000  2
    833    832    836    838     1  0.0000000  3.3472000  1
    833    832    836    838     1  0.0000000  0.0000000  2
    833    832    836    838     1  180.0000771  0.3347200  3
    833    832    836   1739     1  180.0000771  0.0000000  2
    834    832    836    838     1  0.0000000  3.3472000  1
    834    832    836    838     1  0.0000000  0.0000000  2
    834    832    836    838     1  180.0000771  0.3347200  3
    834    832    836   1739     1  180.0000771  0.0000000  2
    835   1714   1694   1695     1  0.0000000  0.0000000  2
    835   1714   1694   1696     1  0.0000000  0.0000000  2
    836   1739   1719   1720     1  0.0000000  0.0000000  2
    836   1739   1719   1721     1  0.0000000  0.0000000  2
    837    835   1714   1715     1  0.0000000  8.3680000  1
    837    835   1714   1715     1  180.0000771  10.4600000  2
    838    836   1739   1740     1  0.0000000  8.3680000  1
    838    836   1739   1740     1  180.0000771  10.4600000  2
    841    844    864    865     1  0.0000000  0.0000000  2
    841    847    848    849     1  0.0000000  1.2552000  3
    841    847    848    850     1  0.0000000  1.2552000  3
    841    847    851    852     1  0.0000000  1.2552000  3
    841    847    851    853     1  0.0000000  1.2552000  3
    842    841    844    864     1  0.0000000  0.6508444  3
    842    841    844    845     1  0.0000000  0.6508444  3
    842    841    844    846     1  0.0000000  0.6508444  3
    842    841    847    848     1  0.0000000  1.2552000  3
    842    841    847    851     1  0.0000000  1.2552000  3
    843    841    844    864     1  0.0000000  0.6508444  3
    843    841    844    845     1  0.0000000  0.6508444  3
    843    841    844    846     1  0.0000000  0.6508444  3
    843    841    847    848     1  0.0000000  1.2552000  3
    843    841    847    851     1  0.0000000  1.2552000  3
    845    844    841    847     1  0.0000000  0.6508444  3
    845    844    864    865     1  0.0000000  0.0000000  2
    846    844    841    847     1  0.0000000  0.6508444  3
    846    844    864    865     1  0.0000000  0.0000000  2
    847    848    857    858     1  0.0000000  0.6508444  3
    847    848    857    859     1  0.0000000  0.6508444  3
    847    851    854    855     1  0.0000000  0.6508444  3
    847    851    854    856     1  0.0000000  0.6508444  3
    848    847    851    852     1  0.0000000  1.2552000  3
    848    847    851    853     1  0.0000000  1.2552000  3
    849    848    847    851     1  0.0000000  1.2552000  3
    849    848    857    861     1  0.0000000  0.6508444  3
    849    848    857    858     1  0.0000000  0.6508444  3
    849    848    857    859     1  0.0000000  0.6508444  3
    850    848    847    851     1  0.0000000  1.2552000  3
    850    848    857    861     1  0.0000000  0.6508444  3
    850    848    857    858     1  0.0000000  0.6508444  3
    850    848    857    859     1  0.0000000  0.6508444  3
    852    851    854    860     1  0.0000000  0.6508444  3
    852    851    854    855     1  0.0000000  0.6508444  3
    852    851    854    856     1  0.0000000  0.6508444  3
    853    851    854    860     1  0.0000000  0.6508444  3
    853    851    854    855     1  0.0000000  0.6508444  3
    853    851    854    856     1  0.0000000  0.6508444  3
    854    860   1764   1765     1  180.0000771  10.4600000  2
    855    854    860    862     1  0.0000000  3.3472000  1
    855    854    860    862     1  0.0000000  0.0000000  2
    855    854    860    862     1  180.0000771  0.3347200  3
    855    854    860   1764     1  180.0000771  0.0000000  2
    856    854    860    862     1  0.0000000  3.3472000  1
    856    854    860    862     1  0.0000000  0.0000000  2
    856    854    860    862     1  180.0000771  0.3347200  3
    856    854    860   1764     1  180.0000771  0.0000000  2
    857    861   1789   1790     1  180.0000771  10.4600000  2
    858    857    861    863     1  0.0000000  3.3472000  1
    858    857    861    863     1  0.0000000  0.0000000  2
    858    857    861    863     1  180.0000771  0.3347200  3
    858    857    861   1789     1  180.0000771  0.0000000  2
    859    857    861    863     1  0.0000000  3.3472000  1
    859    857    861    863     1  0.0000000  0.0000000  2
    859    857    861    863     1  180.0000771  0.3347200  3
    859    857    861   1789     1  180.0000771  0.0000000  2
    860   1764   1744   1745     1  0.0000000  0.0000000  2
    860   1764   1744   1746     1  0.0000000  0.0000000  2
    861   1789   1769   1770     1  0.0000000  0.0000000  2
    861   1789   1769   1771     1  0.0000000  0.0000000  2
    862    860   1764   1765     1  0.0000000  8.3680000  1
    862    860   1764   1765     1  180.0000771  10.4600000  2
    863    861   1789   1790     1  0.0000000  8.3680000  1
    863    861   1789   1790     1  180.0000771  10.4600000  2
    866    869    889    890     1  0.0000000  0.0000000  2
    866    872    873    874     1  0.0000000  1.2552000  3
    866    872    873    875     1  0.0000000  1.2552000  3
    866    872    876    877     1  0.0000000  1.2552000  3
    866    872    876    878     1  0.0000000  1.2552000  3
    867    866    869    889     1  0.0000000  0.6508444  3
    867    866    869    870     1  0.0000000  0.6508444  3
    867    866    869    871     1  0.0000000  0.6508444  3
    867    866    872    873     1  0.0000000  1.2552000  3
    867    866    872    876     1  0.0000000  1.2552000  3
    868    866    869    889     1  0.0000000  0.6508444  3
    868    866    869    870     1  0.0000000  0.6508444  3
    868    866    869    871     1  0.0000000  0.6508444  3
    868    866    872    873     1  0.0000000  1.2552000  3
    868    866    872    876     1  0.0000000  1.2552000  3
    870    869    866    872     1  0.0000000  0.6508444  3
    870    869    889    890     1  0.0000000  0.0000000  2
    871    869    866    872     1  0.0000000  0.6508444  3
    871    869    889    890     1  0.0000000  0.0000000  2
    872    873    882    883     1  0.0000000  0.6508444  3
    872    873    882    884     1  0.0000000  0.6508444  3
    872    876    879    880     1  0.0000000  0.6508444  3
    872    876    879    881     1  0.0000000  0.6508444  3
    873    872    876    877     1  0.0000000  1.2552000  3
    873    872    876    878     1  0.0000000  1.2552000  3
    874    873    872    876     1  0.0000000  1.2552000  3
    874    873    882    886     1  0.0000000  0.6508444  3
    874    873    882    883     1  0.0000000  0.6508444  3
    874    873    882    884     1  0.0000000  0.6508444  3
    875    873    872    876     1  0.0000000  1.2552000  3
    875    873    882    886     1  0.0000000  0.6508444  3
    875    873    882    883     1  0.0000000  0.6508444  3
    875    873    882    884     1  0.0000000  0.6508444  3
    877    876    879    885     1  0.0000000  0.6508444  3
    877    876    879    880     1  0.0000000  0.6508444  3
    877    876    879    881     1  0.0000000  0.6508444  3
    878    876    879    885     1  0.0000000  0.6508444  3
    878    876    879    880     1  0.0000000  0.6508444  3
    878    876    879    881     1  0.0000000  0.6508444  3
    879    885   1814   1815     1  180.0000771  10.4600000  2
    880    879    885    887     1  0.0000000  3.3472000  1
    880    879    885    887     1  0.0000000  0.0000000  2
    880    879    885    887     1  180.0000771  0.3347200  3
    880    879    885   1814     1  180.0000771  0.0000000  2
    881    879    885    887     1  0.0000000  3.3472000  1
    881    879    885    887     1  0.0000000  0.0000000  2
    881    879    885    887     1  180.0000771  0.3347200  3
    881    879    885   1814     1  180.0000771  0.0000000  2
    882    886   1839   1840     1  180.0000771  10.4600000  2
    883    882    886    888     1  0.0000000  3.3472000  1
    883    882    886    888     1  0.0000000  0.0000000  2
    883    882    886    888     1  180.0000771  0.3347200  3
    883    882    886   1839     1  180.0000771  0.0000000  2
    884    882    886    888     1  0.0000000  3.3472000  1
    884    882    886    888     1  0.0000000  0.0000000  2
    884    882    886    888     1  180.0000771  0.3347200  3
    884    882    886   1839     1  180.0000771  0.0000000  2
    885   1814   1794   1795     1  0.0000000  0.0000000  2
    885   1814   1794   1796     1  0.0000000  0.0000000  2
    886   1839   1819   1820     1  0.0000000  0.0000000  2
    886   1839   1819   1821     1  0.0000000  0.0000000  2
    887    885   1814   1815     1  0.0000000  8.3680000  1
    887    885   1814   1815     1  180.0000771  10.4600000  2
    888    886   1839   1840     1  0.0000000  8.3680000  1
    888    886   1839   1840     1  180.0000771  10.4600000  2
    891    894    914    915     1  0.0000000  0.0000000  2
    891    897    898    899     1  0.0000000  1.2552000  3
    891    897    898    900     1  0.0000000  1.2552000  3
    891    897    901    902     1  0.0000000  1.2552000  3
    891    897    901    903     1  0.0000000  1.2552000  3
    892    891    894    914     1  0.0000000  0.6508444  3
    892    891    894    895     1  0.0000000  0.6508444  3
    892    891    894    896     1  0.0000000  0.6508444  3
    892    891    897    898     1  0.0000000  1.2552000  3
    892    891    897    901     1  0.0000000  1.2552000  3
    893    891    894    914     1  0.0000000  0.6508444  3
    893    891    894    895     1  0.0000000  0.6508444  3
    893    891    894    896     1  0.0000000  0.6508444  3
    893    891    897    898     1  0.0000000  1.2552000  3
    893    891    897    901     1  0.0000000  1.2552000  3
    895    894    891    897     1  0.0000000  0.6508444  3
    895    894    914    915     1  0.0000000  0.0000000  2
    896    894    891    897     1  0.0000000  0.6508444  3
    896    894    914    915     1  0.0000000  0.0000000  2
    897    898    907    908     1  0.0000000  0.6508444  3
    897    898    907    909     1  0.0000000  0.6508444  3
    897    901    904    905     1  0.0000000  0.6508444  3
    897    901    904    906     1  0.0000000  0.6508444  3
    898    897    901    902     1  0.0000000  1.2552000  3
    898    897    901    903     1  0.0000000  1.2552000  3
    899    898    897    901     1  0.0000000  1.2552000  3
    899    898    907    911     1  0.0000000  0.6508444  3
    899    898    907    908     1  0.0000000  0.6508444  3
    899    898    907    909     1  0.0000000  0.6508444  3
    900    898    897    901     1  0.0000000  1.2552000  3
    900    898    907    911     1  0.0000000  0.6508444  3
    900    898    907    908     1  0.0000000  0.6508444  3
    900    898    907    909     1  0.0000000  0.6508444  3
    902    901    904    910     1  0.0000000  0.6508444  3
    902    901    904    905     1  0.0000000  0.6508444  3
    902    901    904    906     1  0.0000000  0.6508444  3
    903    901    904    910     1  0.0000000  0.6508444  3
    903    901    904    905     1  0.0000000  0.6508444  3
    903    901    904    906     1  0.0000000  0.6508444  3
    904    910   1864   1865     1  180.0000771  10.4600000  2
    905    904    910    912     1  0.0000000  3.3472000  1
    905    904    910    912     1  0.0000000  0.0000000  2
    905    904    910    912     1  180.0000771  0.3347200  3
    905    904    910   1864     1  180.0000771  0.0000000  2
    906    904    910    912     1  0.0000000  3.3472000  1
    906    904    910    912     1  0.0000000  0.0000000  2
    906    904    910    912     1  180.0000771  0.3347200  3
    906    904    910   1864     1  180.0000771  0.0000000  2
    907    911   1889   1890     1  180.0000771  10.4600000  2
    908    907    911    913     1  0.0000000  3.3472000  1
    908    907    911    913     1  0.0000000  0.0000000  2
    908    907    911    913     1  180.0000771  0.3347200  3
    908    907    911   1889     1  180.0000771  0.0000000  2
    909    907    911    913     1  0.0000000  3.3472000  1
    909    907    911    913     1  0.0000000  0.0000000  2
    909    907    911    913     1  180.0000771  0.3347200  3
    909    907    911   1889     1  180.0000771  0.0000000  2
    910   1864   1844   1845     1  0.0000000  0.0000000  2
    910   1864   1844   1846     1  0.0000000  0.0000000  2
    911   1889   1869   1870     1  0.0000000  0.0000000  2
    911   1889   1869   1871     1  0.0000000  0.0000000  2
    912    910   1864   1865     1  0.0000000  8.3680000  1
    912    910   1864   1865     1  180.0000771  10.4600000  2
    913    911   1889   1890     1  0.0000000  8.3680000  1
    913    911   1889   1890     1  180.0000771  10.4600000  2
    916    919    939    940     1  0.0000000  0.0000000  2
    916    922    923    924     1  0.0000000  1.2552000  3
    916    922    923    925     1  0.0000000  1.2552000  3
    916    922    926    927     1  0.0000000  1.2552000  3
    916    922    926    928     1  0.0000000  1.2552000  3
    917    916    919    939     1  0.0000000  0.6508444  3
    917    916    919    920     1  0.0000000  0.6508444  3
    917    916    919    921     1  0.0000000  0.6508444  3
    917    916    922    923     1  0.0000000  1.2552000  3
    917    916    922    926     1  0.0000000  1.2552000  3
    918    916    919    939     1  0.0000000  0.6508444  3
    918    916    919    920     1  0.0000000  0.6508444  3
    918    916    919    921     1  0.0000000  0.6508444  3
    918    916    922    923     1  0.0000000  1.2552000  3
    918    916    922    926     1  0.0000000  1.2552000  3
    920    919    916    922     1  0.0000000  0.6508444  3
    920    919    939    940     1  0.0000000  0.0000000  2
    921    919    916    922     1  0.0000000  0.6508444  3
    921    919    939    940     1  0.0000000  0.0000000  2
    922    923    932    933     1  0.0000000  0.6508444  3
    922    923    932    934     1  0.0000000  0.6508444  3
    922    926    929    930     1  0.0000000  0.6508444  3
    922    926    929    931     1  0.0000000  0.6508444  3
    923    922    926    927     1  0.0000000  1.2552000  3
    923    922    926    928     1  0.0000000  1.2552000  3
    924    923    922    926     1  0.0000000  1.2552000  3
    924    923    932    936     1  0.0000000  0.6508444  3
    924    923    932    933     1  0.0000000  0.6508444  3
    924    923    932    934     1  0.0000000  0.6508444  3
    925    923    922    926     1  0.0000000  1.2552000  3
    925    923    932    936     1  0.0000000  0.6508444  3
    925    923    932    933     1  0.0000000  0.6508444  3
    925    923    932    934     1  0.0000000  0.6508444  3
    927    926    929    935     1  0.0000000  0.6508444  3
    927    926    929    930     1  0.0000000  0.6508444  3
    927    926    929    931     1  0.0000000  0.6508444  3
    928    926    929    935     1  0.0000000  0.6508444  3
    928    926    929    930     1  0.0000000  0.6508444  3
    928    926    929    931     1  0.0000000  0.6508444  3
    929    935   1914   1915     1  180.0000771  10.4600000  2
    930    929    935    937     1  0.0000000  3.3472000  1
    930    929    935    937     1  0.0000000  0.0000000  2
    930    929    935    937     1  180.0000771  0.3347200  3
    930    929    935   1914     1  180.0000771  0.0000000  2
    931    929    935    937     1  0.0000000  3.3472000  1
    931    929    935    937     1  0.0000000  0.0000000  2
    931    929    935    937     1  180.0000771  0.3347200  3
    931    929    935   1914     1  180.0000771  0.0000000  2
    932    936   1939   1940     1  180.0000771  10.4600000  2
    933    932    936    938     1  0.0000000  3.3472000  1
    933    932    936    938     1  0.0000000  0.0000000  2
    933    932    936    938     1  180.0000771  0.3347200  3
    933    932    936   1939     1  180.0000771  0.0000000  2
    934    932    936    938     1  0.0000000  3.3472000  1
    934    932    936    938     1  0.0000000  0.0000000  2
    934    932    936    938     1  180.0000771  0.3347200  3
    934    932    936   1939     1  180.0000771  0.0000000  2
    935   1914   1894   1895     1  0.0000000  0.0000000  2
    935   1914   1894   1896     1  0.0000000  0.0000000  2
    936   1939   1919   1920     1  0.0000000  0.0000000  2
    936   1939   1919   1921     1  0.0000000  0.0000000  2
    937    935   1914   1915     1  0.0000000  8.3680000  1
    937    935   1914   1915     1  180.0000771  10.4600000  2
    938    936   1939   1940     1  0.0000000  8.3680000  1
    938    936   1939   1940     1  180.0000771  10.4600000  2
    941    944    964    965     1  0.0000000  0.0000000  2
    941    947    948    949     1  0.0000000  1.2552000  3
    941    947    948    950     1  0.0000000  1.2552000  3
    941    947    951    952     1  0.0000000  1.2552000  3
    941    947    951    953     1  0.0000000  1.2552000  3
    942    941    944    964     1  0.0000000  0.6508444  3
    942    941    944    945     1  0.0000000  0.6508444  3
    942    941    944    946     1  0.0000000  0.6508444  3
    942    941    947    948     1  0.0000000  1.2552000  3
    942    941    947    951     1  0.0000000  1.2552000  3
    943    941    944    964     1  0.0000000  0.6508444  3
    943    941    944    945     1  0.0000000  0.6508444  3
    943    941    944    946     1  0.0000000  0.6508444  3
    943    941    947    948     1  0.0000000  1.2552000  3
    943    941    947    951     1  0.0000000  1.2552000  3
    945    944    941    947     1  0.0000000  0.6508444  3
    945    944    964    965     1  0.0000000  0.0000000  2
    946    944    941    947     1  0.0000000  0.6508444  3
    946    944    964    965     1  0.0000000  0.0000000  2
    947    948    957    958     1  0.0000000  0.6508444  3
    947    948    957    959     1  0.0000000  0.6508444  3
    947    951    954    955     1  0.0000000  0.6508444  3
    947    951    954    956     1  0.0000000  0.6508444  3
    948    947    951    952     1  0.0000000  1.2552000  3
    948    947    951    953     1  0.0000000  1.2552000  3
    949    948    947    951     1  0.0000000  1.2552000  3
    949    948    957    961     1  0.0000000  0.6508444  3
    949    948    957    958     1  0.0000000  0.6508444  3
    949    948    957    959     1  0.0000000  0.6508444  3
    950    948    947    951     1  0.0000000  1.2552000  3
    950    948    957    961     1  0.0000000  0.6508444  3
    950    948    957    958     1  0.0000000  0.6508444  3
    950    948    957    959     1  0.0000000  0.6508444  3
    952    951    954    960     1  0.0000000  0.6508444  3
    952    951    954    955     1  0.0000000  0.6508444  3
    952    951    954    956     1  0.0000000  0.6508444  3
    953    951    954    960     1  0.0000000  0.6508444  3
    953    951    954    955     1  0.0000000  0.6508444  3
    953    951    954    956     1  0.0000000  0.6508444  3
    954    960   1964   1965     1  180.0000771  10.4600000  2
    955    954    960    962     1  0.0000000  3.3472000  1
    955    954    960    962     1  0.0000000  0.0000000  2
    955    954    960    962     1  180.0000771  0.3347200  3
    955    954    960   1964     1  180.0000771  0.0000000  2
    956    954    960    962     1  0.0000000  3.3472000  1
    956    954    960    962     1  0.0000000  0.0000000  2
    956    954    960    962     1  180.0000771  0.3347200  3
    956    954    960   1964     1  180.0000771  0.0000000  2
    957    961   1989   1990     1  180.0000771  10.4600000  2
    958    957    961    963     1  0.0000000  3.3472000  1
    958    957    961    963     1  0.0000000  0.0000000  2
    958    957    961    963     1  180.0000771  0.3347200  3
    958    957    961   1989     1  180.0000771  0.0000000  2
    959    957    961    963     1  0.0000000  3.3472000  1
    959    957    961    963     1  0.0000000  0.0000000  2
    959    957    961    963     1  180.0000771  0.3347200  3
    959    957    961   1989     1  180.0000771  0.0000000  2
    960   1964   1944   1945     1  0.0000000  0.0000000  2
    960   1964   1944   1946     1  0.0000000  0.0000000  2
    961   1989   1969   1970     1  0.0000000  0.0000000  2
    961   1989   1969   1971     1  0.0000000  0.0000000  2
    962    960   1964   1965     1  0.0000000  8.3680000  1
    962    960   1964   1965     1  180.0000771  10.4600000  2
    963    961   1989   1990     1  0.0000000  8.3680000  1
    963    961   1989   1990     1  180.0000771  10.4600000  2
    966    969    989    990     1  0.0000000  0.0000000  2
    966    972    973    974     1  0.0000000  1.2552000  3
    966    972    973    975     1  0.0000000  1.2552000  3
    966    972    976    977     1  0.0000000  1.2552000  3
    966    972    976    978     1  0.0000000  1.2552000  3
    967    966    969    989     1  0.0000000  0.6508444  3
    967    966    969    970     1  0.0000000  0.6508444  3
    967    966    969    971     1  0.0000000  0.6508444  3
    967    966    972    973     1  0.0000000  1.2552000  3
    967    966    972    976     1  0.0000000  1.2552000  3
    968    966    969    989     1  0.0000000  0.6508444  3
    968    966    969    970     1  0.0000000  0.6508444  3
    968    966    969    971     1  0.0000000  0.6508444  3
    968    966    972    973     1  0.0000000  1.2552000  3
    968    966    972    976     1  0.0000000  1.2552000  3
    970    969    966    972     1  0.0000000  0.6508444  3
    970    969    989    990     1  0.0000000  0.0000000  2
    971    969    966    972     1  0.0000000  0.6508444  3
    971    969    989    990     1  0.0000000  0.0000000  2
    972    973    982    983     1  0.0000000  0.6508444  3
    972    973    982    984     1  0.0000000  0.6508444  3
    972    976    979    980     1  0.0000000  0.6508444  3
    972    976    979    981     1  0.0000000  0.6508444  3
    973    972    976    977     1  0.0000000  1.2552000  3
    973    972    976    978     1  0.0000000  1.2552000  3
    974    973    972    976     1  0.0000000  1.2552000  3
    974    973    982    986     1  0.0000000  0.6508444  3
    974    973    982    983     1  0.0000000  0.6508444  3
    974    973    982    984     1  0.0000000  0.6508444  3
    975    973    972    976     1  0.0000000  1.2552000  3
    975    973    982    986     1  0.0000000  0.6508444  3
    975    973    982    983     1  0.0000000  0.6508444  3
    975    973    982    984     1  0.0000000  0.6508444  3
    977    976    979    985     1  0.0000000  0.6508444  3
    977    976    979    980     1  0.0000000  0.6508444  3
    977    976    979    981     1  0.0000000  0.6508444  3
    978    976    979    985     1  0.0000000  0.6508444  3
    978    976    979    980     1  0.0000000  0.6508444  3
    978    976    979    981     1  0.0000000  0.6508444  3
    979    985   2014   2015     1  180.0000771  10.4600000  2
    980    979    985    987     1  0.0000000  3.3472000  1
    980    979    985    987     1  0.0000000  0.0000000  2
    980    979    985    987     1  180.0000771  0.3347200  3
    980    979    985   2014     1  180.0000771  0.0000000  2
    981    979    985    987     1  0.0000000  3.3472000  1
    981    979    985    987     1  0.0000000  0.0000000  2
    981    979    985    987     1  180.0000771  0.3347200  3
    981    979    985   2014     1  180.0000771  0.0000000  2
    982    986   2039   2040     1  180.0000771  10.4600000  2
    983    982    986    988     1  0.0000000  3.3472000  1
    983    982    986    988     1  0.0000000  0.0000000  2
    983    982    986    988     1  180.0000771  0.3347200  3
    983    982    986   2039     1  180.0000771  0.0000000  2
    984    982    986    988     1  0.0000000  3.3472000  1
    984    982    986    988     1  0.0000000  0.0000000  2
    984    982    986    988     1  180.0000771  0.3347200  3
    984    982    986   2039     1  180.0000771  0.0000000  2
    985   2014   1994   1995     1  0.0000000  0.0000000  2
    985   2014   1994   1996     1  0.0000000  0.0000000  2
    986   2039   2019   2020     1  0.0000000  0.0000000  2
    986   2039   2019   2021     1  0.0000000  0.0000000  2
    987    985   2014   2015     1  0.0000000  8.3680000  1
    987    985   2014   2015     1  180.0000771  10.4600000  2
    988    986   2039   2040     1  0.0000000  8.3680000  1
    988    986   2039   2040     1  180.0000771  10.4600000  2
    991    994   1014   1015     1  0.0000000  0.0000000  2
    991    997    998    999     1  0.0000000  1.2552000  3
    991    997    998   1000     1  0.0000000  1.2552000  3
    991    997   1001   1002     1  0.0000000  1.2552000  3
    991    997   1001   1003     1  0.0000000  1.2552000  3
    992    991    994   1014     1  0.0000000  0.6508444  3
    992    991    994    995     1  0.0000000  0.6508444  3
    992    991    994    996     1  0.0000000  0.6508444  3
    992    991    997    998     1  0.0000000  1.2552000  3
    992    991    997   1001     1  0.0000000  1.2552000  3
    993    991    994   1014     1  0.0000000  0.6508444  3
    993    991    994    995     1  0.0000000  0.6508444  3
    993    991    994    996     1  0.0000000  0.6508444  3
    993    991    997    998     1  0.0000000  1.2552000  3
    993    991    997   1001     1  0.0000000  1.2552000  3
    995    994    991    997     1  0.0000000  0.6508444  3
    995    994   1014   1015     1  0.0000000  0.0000000  2
    996    994    991    997     1  0.0000000  0.6508444  3
    996    994   1014   1015     1  0.0000000  0.0000000  2
    997    998   1007   1008     1  0.0000000  0.6508444  3
    997    998   1007   1009     1  0.0000000  0.6508444  3
    997   1001   1004   1005     1  0.0000000  0.6508444  3
    997   1001   1004   1006     1  0.0000000  0.6508444  3
    998    997   1001   1002     1  0.0000000  1.2552000  3
    998    997   1001   1003     1  0.0000000  1.2552000  3
    999    998    997   1001     1  0.0000000  1.2552000  3
    999    998   1007   1011     1  0.0000000  0.6508444  3
    999    998   1007   1008     1  0.0000000  0.6508444  3
    999    998   1007   1009     1  0.0000000  0.6508444  3
   1000    998    997   1001     1  0.0000000  1.2552000  3
   1000    998   1007   1011     1  0.0000000  0.6508444  3
   1000    998   1007   1008     1  0.0000000  0.6508444  3
   1000    998   1007   1009     1  0.0000000  0.6508444  3
   1002   1001   1004   1010     1  0.0000000  0.6508444  3
   1002   1001   1004   1005     1  0.0000000  0.6508444  3
   1002   1001   1004   1006     1  0.0000000  0.6508444  3
   1003   1001   1004   1010     1  0.0000000  0.6508444  3
   1003   1001   1004   1005     1  0.0000000  0.6508444  3
   1003   1001   1004   1006     1  0.0000000  0.6508444  3
   1004   1010   2064   2065     1  180.0000771  10.4600000  2
   1005   1004   1010   1012     1  0.0000000  3.3472000  1
   1005   1004   1010   1012     1  0.0000000  0.0000000  2
   1005   1004   1010   1012     1  180.0000771  0.3347200  3
   1005   1004   1010   2064     1  180.0000771  0.0000000  2
   1006   1004   1010   1012     1  0.0000000  3.3472000  1
   1006   1004   1010   1012     1  0.0000000  0.0000000  2
   1006   1004   1010   1012     1  180.0000771  0.3347200  3
   1006   1004   1010   2064     1  180.0000771  0.0000000  2
   1007   1011   2089   2090     1  180.0000771  10.4600000  2
   1008   1007   1011   1013     1  0.0000000  3.3472000  1
   1008   1007   1011   1013     1  0.0000000  0.0000000  2
   1008   1007   1011   1013     1  180.0000771  0.3347200  3
   1008   1007   1011   2089     1  180.0000771  0.0000000  2
   1009   1007   1011   1013     1  0.0000000  3.3472000  1
   1009   1007   1011   1013     1  0.0000000  0.0000000  2
   1009   1007   1011   1013     1  180.0000771  0.3347200  3
   1009   1007   1011   2089     1  180.0000771  0.0000000  2
   1010   2064   2044   2045     1  0.0000000  0.0000000  2
   1010   2064   2044   2046     1  0.0000000  0.0000000  2
   1011   2089   2069   2070     1  0.0000000  0.0000000  2
   1011   2089   2069   2071     1  0.0000000  0.0000000  2
   1012   1010   2064   2065     1  0.0000000  8.3680000  1
   1012   1010   2064   2065     1  180.0000771  10.4600000  2
   1013   1011   2089   2090     1  0.0000000  8.3680000  1
   1013   1011   2089   2090     1  180.0000771  10.4600000  2
   1016   1019   1039   1040     1  0.0000000  0.0000000  2
   1016   1022   1023   1024     1  0.0000000  1.2552000  3
   1016   1022   1023   1025     1  0.0000000  1.2552000  3
   1016   1022   1026   1027     1  0.0000000  1.2552000  3
   1016   1022   1026   1028     1  0.0000000  1.2552000  3
   1017   1016   1019   1039     1  0.0000000  0.6508444  3
   1017   1016   1019   1020     1  0.0000000  0.6508444  3
   1017   1016   1019   1021     1  0.0000000  0.6508444  3
   1017   1016   1022   1023     1  0.0000000  1.2552000  3
   1017   1016   1022   1026     1  0.0000000  1.2552000  3
   1018   1016   1019   1039     1  0.0000000  0.6508444  3
   1018   1016   1019   1020     1  0.0000000  0.6508444  3
   1018   1016   1019   1021     1  0.0000000  0.6508444  3
   1018   1016   1022   1023     1  0.0000000  1.2552000  3
   1018   1016   1022   1026     1  0.0000000  1.2552000  3
   1020   1019   1016   1022     1  0.0000000  0.6508444  3
   1020   1019   1039   1040     1  0.0000000  0.0000000  2
   1021   1019   1016   1022     1  0.0000000  0.6508444  3
   1021   1019   1039   1040     1  0.0000000  0.0000000  2
   1022   1023   1032   1033     1  0.0000000  0.6508444  3
   1022   1023   1032   1034     1  0.0000000  0.6508444  3
   1022   1026   1029   1030     1  0.0000000  0.6508444  3
   1022   1026   1029   1031     1  0.0000000  0.6508444  3
   1023   1022   1026   1027     1  0.0000000  1.2552000  3
   1023   1022   1026   1028     1  0.0000000  1.2552000  3
   1024   1023   1022   1026     1  0.0000000  1.2552000  3
   1024   1023   1032   1036     1  0.0000000  0.6508444  3
   1024   1023   1032   1033     1  0.0000000  0.6508444  3
   1024   1023   1032   1034     1  0.0000000  0.6508444  3
   1025   1023   1022   1026     1  0.0000000  1.2552000  3
   1025   1023   1032   1036     1  0.0000000  0.6508444  3
   1025   1023   1032   1033     1  0.0000000  0.6508444  3
   1025   1023   1032   1034     1  0.0000000  0.6508444  3
   1027   1026   1029   1035     1  0.0000000  0.6508444  3
   1027   1026   1029   1030     1  0.0000000  0.6508444  3
   1027   1026   1029   1031     1  0.0000000  0.6508444  3
   1028   1026   1029   1035     1  0.0000000  0.6508444  3
   1028   1026   1029   1030     1  0.0000000  0.6508444  3
   1028   1026   1029   1031     1  0.0000000  0.6508444  3
   1029   1035   2114   2115     1  180.0000771  10.4600000  2
   1030   1029   1035   1037     1  0.0000000  3.3472000  1
   1030   1029   1035   1037     1  0.0000000  0.0000000  2
   1030   1029   1035   1037     1  180.0000771  0.3347200  3
   1030   1029   1035   2114     1  180.0000771  0.0000000  2
   1031   1029   1035   1037     1  0.0000000  3.3472000  1
   1031   1029   1035   1037     1  0.0000000  0.0000000  2
   1031   1029   1035   1037     1  180.0000771  0.3347200  3
   1031   1029   1035   2114     1  180.0000771  0.0000000  2
   1032   1036   2139   2140     1  180.0000771  10.4600000  2
   1033   1032   1036   1038     1  0.0000000  3.3472000  1
   1033   1032   1036   1038     1  0.0000000  0.0000000  2
   1033   1032   1036   1038     1  180.0000771  0.3347200  3
   1033   1032   1036   2139     1  180.0000771  0.0000000  2
   1034   1032   1036   1038     1  0.0000000  3.3472000  1
   1034   1032   1036   1038     1  0.0000000  0.0000000  2
   1034   1032   1036   1038     1  180.0000771  0.3347200  3
   1034   1032   1036   2139     1  180.0000771  0.0000000  2
   1035   2114   2094   2095     1  0.0000000  0.0000000  2
   1035   2114   2094   2096     1  0.0000000  0.0000000  2
   1036   2139   2119   2120     1  0.0000000  0.0000000  2
   1036   2139   2119   2121     1  0.0000000  0.0000000  2
   1037   1035   2114   2115     1  0.0000000  8.3680000  1
   1037   1035   2114   2115     1  180.0000771  10.4600000  2
   1038   1036   2139   2140     1  0.0000000  8.3680000  1
   1038   1036   2139   2140     1  180.0000771  10.4600000  2
   1041   1044   1064   1065     1  0.0000000  0.0000000  2
   1041   1047   1048   1049     1  0.0000000  1.2552000  3
   1041   1047   1048   1050     1  0.0000000  1.2552000  3
   1041   1047   1051   1052     1  0.0000000  1.2552000  3
   1041   1047   1051   1053     1  0.0000000  1.2552000  3
   1042   1041   1044   1064     1  0.0000000  0.6508444  3
   1042   1041   1044   1045     1  0.0000000  0.6508444  3
   1042   1041   1044   1046     1  0.0000000  0.6508444  3
   1042   1041   1047   1048     1  0.0000000  1.2552000  3
   1042   1041   1047   1051     1  0.0000000  1.2552000  3
   1043   1041   1044   1064     1  0.0000000  0.6508444  3
   1043   1041   1044   1045     1  0.0000000  0.6508444  3
   1043   1041   1044   1046     1  0.0000000  0.6508444  3
   1043   1041   1047   1048     1  0.0000000  1.2552000  3
   1043   1041   1047   1051     1  0.0000000  1.2552000  3
   1045   1044   1041   1047     1  0.0000000  0.6508444  3
   1045   1044   1064   1065     1  0.0000000  0.0000000  2
   1046   1044   1041   1047     1  0.0000000  0.6508444  3
   1046   1044   1064   1065     1  0.0000000  0.0000000  2
   1047   1048   1057   1058     1  0.0000000  0.6508444  3
   1047   1048   1057   1059     1  0.0000000  0.6508444  3
   1047   1051   1054   1055     1  0.0000000  0.6508444  3
   1047   1051   1054   1056     1  0.0000000  0.6508444  3
   1048   1047   1051   1052     1  0.0000000  1.2552000  3
   1048   1047   1051   1053     1  0.0000000  1.2552000  3
   1049   1048   1047   1051     1  0.0000000  1.2552000  3
   1049   1048   1057   1061     1  0.0000000  0.6508444  3
   1049   1048   1057   1058     1  0.0000000  0.6508444  3
   1049   1048   1057   1059     1  0.0000000  0.6508444  3
   1050   1048   1047   1051     1  0.0000000  1.2552000  3
   1050   1048   1057   1061     1  0.0000000  0.6508444  3
   1050   1048   1057   1058     1  0.0000000  0.6508444  3
   1050   1048   1057   1059     1  0.0000000  0.6508444  3
   1052   1051   1054   1060     1  0.0000000  0.6508444  3
   1052   1051   1054   1055     1  0.0000000  0.6508444  3
   1052   1051   1054   1056     1  0.0000000  0.6508444  3
   1053   1051   1054   1060     1  0.0000000  0.6508444  3
   1053   1051   1054   1055     1  0.0000000  0.6508444  3
   1053   1051   1054   1056     1  0.0000000  0.6508444  3
   1054   1060   2164   2165     1  180.0000771  10.4600000  2
   1055   1054   1060   1062     1  0.0000000  3.3472000  1
   1055   1054   1060   1062     1  0.0000000  0.0000000  2
   1055   1054   1060   1062     1  180.0000771  0.3347200  3
   1055   1054   1060   2164     1  180.0000771  0.0000000  2
   1056   1054   1060   1062     1  0.0000000  3.3472000  1
   1056   1054   1060   1062     1  0.0000000  0.0000000  2
   1056   1054   1060   1062     1  180.0000771  0.3347200  3
   1056   1054   1060   2164     1  180.0000771  0.0000000  2
   1057   1061   2189   2190     1  180.0000771  10.4600000  2
   1058   1057   1061   1063     1  0.0000000  3.3472000  1
   1058   1057   1061   1063     1  0.0000000  0.0000000  2
   1058   1057   1061   1063     1  180.0000771  0.3347200  3
   1058   1057   1061   2189     1  180.0000771  0.0000000  2
   1059   1057   1061   1063     1  0.0000000  3.3472000  1
   1059   1057   1061   1063     1  0.0000000  0.0000000  2
   1059   1057   1061   1063     1  180.0000771  0.3347200  3
   1059   1057   1061   2189     1  180.0000771  0.0000000  2
   1060   2164   2144   2145     1  0.0000000  0.0000000  2
   1060   2164   2144   2146     1  0.0000000  0.0000000  2
   1061   2189   2169   2170     1  0.0000000  0.0000000  2
   1061   2189   2169   2171     1  0.0000000  0.0000000  2
   1062   1060   2164   2165     1  0.0000000  8.3680000  1
   1062   1060   2164   2165     1  180.0000771  10.4600000  2
   1063   1061   2189   2190     1  0.0000000  8.3680000  1
   1063   1061   2189   2190     1  180.0000771  10.4600000  2
   1066   1069   1089   1090     1  0.0000000  0.0000000  2
   1066   1072   1073   1074     1  0.0000000  1.2552000  3
   1066   1072   1073   1075     1  0.0000000  1.2552000  3
   1066   1072   1076   1077     1  0.0000000  1.2552000  3
   1066   1072   1076   1078     1  0.0000000  1.2552000  3
   1067   1066   1069   1089     1  0.0000000  0.6508444  3
   1067   1066   1069   1070     1  0.0000000  0.6508444  3
   1067   1066   1069   1071     1  0.0000000  0.6508444  3
   1067   1066   1072   1073     1  0.0000000  1.2552000  3
   1067   1066   1072   1076     1  0.0000000  1.2552000  3
   1068   1066   1069   1089     1  0.0000000  0.6508444  3
   1068   1066   1069   1070     1  0.0000000  0.6508444  3
   1068   1066   1069   1071     1  0.0000000  0.6508444  3
   1068   1066   1072   1073     1  0.0000000  1.2552000  3
   1068   1066   1072   1076     1  0.0000000  1.2552000  3
   1070   1069   1066   1072     1  0.0000000  0.6508444  3
   1070   1069   1089   1090     1  0.0000000  0.0000000  2
   1071   1069   1066   1072     1  0.0000000  0.6508444  3
   1071   1069   1089   1090     1  0.0000000  0.0000000  2
   1072   1073   1082   1083     1  0.0000000  0.6508444  3
   1072   1073   1082   1084     1  0.0000000  0.6508444  3
   1072   1076   1079   1080     1  0.0000000  0.6508444  3
   1072   1076   1079   1081     1  0.0000000  0.6508444  3
   1073   1072   1076   1077     1  0.0000000  1.2552000  3
   1073   1072   1076   1078     1  0.0000000  1.2552000  3
   1074   1073   1072   1076     1  0.0000000  1.2552000  3
   1074   1073   1082   1086     1  0.0000000  0.6508444  3
   1074   1073   1082   1083     1  0.0000000  0.6508444  3
   1074   1073   1082   1084     1  0.0000000  0.6508444  3
   1075   1073   1072   1076     1  0.0000000  1.2552000  3
   1075   1073   1082   1086     1  0.0000000  0.6508444  3
   1075   1073   1082   1083     1  0.0000000  0.6508444  3
   1075   1073   1082   1084     1  0.0000000  0.6508444  3
   1077   1076   1079   1085     1  0.0000000  0.6508444  3
   1077   1076   1079   1080     1  0.0000000  0.6508444  3
   1077   1076   1079   1081     1  0.0000000  0.6508444  3
   1078   1076   1079   1085     1  0.0000000  0.6508444  3
   1078   1076   1079   1080     1  0.0000000  0.6508444  3
   1078   1076   1079   1081     1  0.0000000  0.6508444  3
   1079   1085   2214   2215     1  180.0000771  10.4600000  2
   1080   1079   1085   1087     1  0.0000000  3.3472000  1
   1080   1079   1085   1087     1  0.0000000  0.0000000  2
   1080   1079   1085   1087     1  180.0000771  0.3347200  3
   1080   1079   1085   2214     1  180.0000771  0.0000000  2
   1081   1079   1085   1087     1  0.0000000  3.3472000  1
   1081   1079   1085   1087     1  0.0000000  0.0000000  2
   1081   1079   1085   1087     1  180.0000771  0.3347200  3
   1081   1079   1085   2214     1  180.0000771  0.0000000  2
   1082   1086   2239   2240     1  180.0000771  10.4600000  2
   1083   1082   1086   1088     1  0.0000000  3.3472000  1
   1083   1082   1086   1088     1  0.0000000  0.0000000  2
   1083   1082   1086   1088     1  180.0000771  0.3347200  3
   1083   1082   1086   2239     1  180.0000771  0.0000000  2
   1084   1082   1086   1088     1  0.0000000  3.3472000  1
   1084   1082   1086   1088     1  0.0000000  0.0000000  2
   1084   1082   1086   1088     1  180.0000771  0.3347200  3
   1084   1082   1086   2239     1  180.0000771  0.0000000  2
   1085   2214   2194   2195     1  0.0000000  0.0000000  2
   1085   2214   2194   2196     1  0.0000000  0.0000000  2
   1086   2239   2219   2220     1  0.0000000  0.0000000  2
   1086   2239   2219   2221     1  0.0000000  0.0000000  2
   1087   1085   2214   2215     1  0.0000000  8.3680000  1
   1087   1085   2214   2215     1  180.0000771  10.4600000  2
   1088   1086   2239   2240     1  0.0000000  8.3680000  1
   1088   1086   2239   2240     1  180.0000771  10.4600000  2
   1091   1094   1114   1115     1  0.0000000  0.0000000  2
   1091   1097   1098   1099     1  0.0000000  1.2552000  3
   1091   1097   1098   1100     1  0.0000000  1.2552000  3
   1091   1097   1101   1102     1  0.0000000  1.2552000  3
   1091   1097   1101   1103     1  0.0000000  1.2552000  3
   1092   1091   1094   1114     1  0.0000000  0.6508444  3
   1092   1091   1094   1095     1  0.0000000  0.6508444  3
   1092   1091   1094   1096     1  0.0000000  0.6508444  3
   1092   1091   1097   1098     1  0.0000000  1.2552000  3
   1092   1091   1097   1101     1  0.0000000  1.2552000  3
   1093   1091   1094   1114     1  0.0000000  0.6508444  3
   1093   1091   1094   1095     1  0.0000000  0.6508444  3
   1093   1091   1094   1096     1  0.0000000  0.6508444  3
   1093   1091   1097   1098     1  0.0000000  1.2552000  3
   1093   1091   1097   1101     1  0.0000000  1.2552000  3
   1095   1094   1091   1097     1  0.0000000  0.6508444  3
   1095   1094   1114   1115     1  0.0000000  0.0000000  2
   1096   1094   1091   1097     1  0.0000000  0.6508444  3
   1096   1094   1114   1115     1  0.0000000  0.0000000  2
   1097   1098   1107   1108     1  0.0000000  0.6508444  3
   1097   1098   1107   1109     1  0.0000000  0.6508444  3
   1097   1101   1104   1105     1  0.0000000  0.6508444  3
   1097   1101   1104   1106     1  0.0000000  0.6508444  3
   1098   1097   1101   1102     1  0.0000000  1.2552000  3
   1098   1097   1101   1103     1  0.0000000  1.2552000  3
   1099   1098   1097   1101     1  0.0000000  1.2552000  3
   1099   1098   1107   1111     1  0.0000000  0.6508444  3
   1099   1098   1107   1108     1  0.0000000  0.6508444  3
   1099   1098   1107   1109     1  0.0000000  0.6508444  3
   1100   1098   1097   1101     1  0.0000000  1.2552000  3
   1100   1098   1107   1111     1  0.0000000  0.6508444  3
   1100   1098   1107   1108     1  0.0000000  0.6508444  3
   1100   1098   1107   1109     1  0.0000000  0.6508444  3
   1102   1101   1104   1110     1  0.0000000  0.6508444  3
   1102   1101   1104   1105     1  0.0000000  0.6508444  3
   1102   1101   1104   1106     1  0.0000000  0.6508444  3
   1103   1101   1104   1110     1  0.0000000  0.6508444  3
   1103   1101   1104   1105     1  0.0000000  0.6508444  3
   1103   1101   1104   1106     1  0.0000000  0.6508444  3
   1104   1110   2264   2265     1  180.0000771  10.4600000  2
   1105   1104   1110   1112     1  0.0000000  3.3472000  1
   1105   1104   1110   1112     1  0.0000000  0.0000000  2
   1105   1104   1110   1112     1  180.0000771  0.3347200  3
   1105   1104   1110   2264     1  180.0000771  0.0000000  2
   1106   1104   1110   1112     1  0.0000000  3.3472000  1
   1106   1104   1110   1112     1  0.0000000  0.0000000  2
   1106   1104   1110   1112     1  180.0000771  0.3347200  3
   1106   1104   1110   2264     1  180.0000771  0.0000000  2
   1107   1111   2289   2290     1  180.0000771  10.4600000  2
   1108   1107   1111   1113     1  0.0000000  3.3472000  1
   1108   1107   1111   1113     1  0.0000000  0.0000000  2
   1108   1107   1111   1113     1  180.0000771  0.3347200  3
   1108   1107   1111   2289     1  180.0000771  0.0000000  2
   1109   1107   1111   1113     1  0.0000000  3.3472000  1
   1109   1107   1111   1113     1  0.0000000  0.0000000  2
   1109   1107   1111   1113     1  180.0000771  0.3347200  3
   1109   1107   1111   2289     1  180.0000771  0.0000000  2
   1110   2264   2244   2245     1  0.0000000  0.0000000  2
   1110   2264   2244   2246     1  0.0000000  0.0000000  2
   1111   2289   2269   2270     1  0.0000000  0.0000000  2
   1111   2289   2269   2271     1  0.0000000  0.0000000  2
   1112   1110   2264   2265     1  0.0000000  8.3680000  1
   1112   1110   2264   2265     1  180.0000771  10.4600000  2
   1113   1111   2289   2290     1  0.0000000  8.3680000  1
   1113   1111   2289   2290     1  180.0000771  10.4600000  2
   1116   1119   1139   1140     1  0.0000000  0.0000000  2
   1116   1122   1123   1124     1  0.0000000  1.2552000  3
   1116   1122   1123   1125     1  0.0000000  1.2552000  3
   1116   1122   1126   1127     1  0.0000000  1.2552000  3
   1116   1122   1126   1128     1  0.0000000  1.2552000  3
   1117   1116   1119   1139     1  0.0000000  0.6508444  3
   1117   1116   1119   1120     1  0.0000000  0.6508444  3
   1117   1116   1119   1121     1  0.0000000  0.6508444  3
   1117   1116   1122   1123     1  0.0000000  1.2552000  3
   1117   1116   1122   1126     1  0.0000000  1.2552000  3
   1118   1116   1119   1139     1  0.0000000  0.6508444  3
   1118   1116   1119   1120     1  0.0000000  0.6508444  3
   1118   1116   1119   1121     1  0.0000000  0.6508444  3
   1118   1116   1122   1123     1  0.0000000  1.2552000  3
   1118   1116   1122   1126     1  0.0000000  1.2552000  3
   1120   1119   1116   1122     1  0.0000000  0.6508444  3
   1120   1119   1139   1140     1  0.0000000  0.0000000  2
   1121   1119   1116   1122     1  0.0000000  0.6508444  3
   1121   1119   1139   1140     1  0.0000000  0.0000000  2
   1122   1123   1132   1133     1  0.0000000  0.6508444  3
   1122   1123   1132   1134     1  0.0000000  0.6508444  3
   1122   1126   1129   1130     1  0.0000000  0.6508444  3
   1122   1126   1129   1131     1  0.0000000  0.6508444  3
   1123   1122   1126   1127     1  0.0000000  1.2552000  3
   1123   1122   1126   1128     1  0.0000000  1.2552000  3
   1124   1123   1122   1126     1  0.0000000  1.2552000  3
   1124   1123   1132   1136     1  0.0000000  0.6508444  3
   1124   1123   1132   1133     1  0.0000000  0.6508444  3
   1124   1123   1132   1134     1  0.0000000  0.6508444  3
   1125   1123   1122   1126     1  0.0000000  1.2552000  3
   1125   1123   1132   1136     1  0.0000000  0.6508444  3
   1125   1123   1132   1133     1  0.0000000  0.6508444  3
   1125   1123   1132   1134     1  0.0000000  0.6508444  3
   1127   1126   1129   1135     1  0.0000000  0.6508444  3
   1127   1126   1129   1130     1  0.0000000  0.6508444  3
   1127   1126   1129   1131     1  0.0000000  0.6508444  3
   1128   1126   1129   1135     1  0.0000000  0.6508444  3
   1128   1126   1129   1130     1  0.0000000  0.6508444  3
   1128   1126   1129   1131     1  0.0000000  0.6508444  3
   1129   1135   2314   2315     1  180.0000771  10.4600000  2
   1130   1129   1135   1137     1  0.0000000  3.3472000  1
   1130   1129   1135   1137     1  0.0000000  0.0000000  2
   1130   1129   1135   1137     1  180.0000771  0.3347200  3
   1130   1129   1135   2314     1  180.0000771  0.0000000  2
   1131   1129   1135   1137     1  0.0000000  3.3472000  1
   1131   1129   1135   1137     1  0.0000000  0.0000000  2
   1131   1129   1135   1137     1  180.0000771  0.3347200  3
   1131   1129   1135   2314     1  180.0000771  0.0000000  2
   1132   1136   2339   2340     1  180.0000771  10.4600000  2
   1133   1132   1136   1138     1  0.0000000  3.3472000  1
   1133   1132   1136   1138     1  0.0000000  0.0000000  2
   1133   1132   1136   1138     1  180.0000771  0.3347200  3
   1133   1132   1136   2339     1  180.0000771  0.0000000  2
   1134   1132   1136   1138     1  0.0000000  3.3472000  1
   1134   1132   1136   1138     1  0.0000000  0.0000000  2
   1134   1132   1136   1138     1  180.0000771  0.3347200  3
   1134   1132   1136   2339     1  180.0000771  0.0000000  2
   1135   2314   2294   2295     1  0.0000000  0.0000000  2
   1135   2314   2294   2296     1  0.0000000  0.0000000  2
   1136   2339   2319   2320     1  0.0000000  0.0000000  2
   1136   2339   2319   2321     1  0.0000000  0.0000000  2
   1137   1135   2314   2315     1  0.0000000  8.3680000  1
   1137   1135   2314   2315     1  180.0000771  10.4600000  2
   1138   1136   2339   2340     1  0.0000000  8.3680000  1
   1138   1136   2339   2340     1  180.0000771  10.4600000  2
   1141   1144   1164   1165     1  0.0000000  0.0000000  2
   1141   1147   1148   1149     1  0.0000000  1.2552000  3
   1141   1147   1148   1150     1  0.0000000  1.2552000  3
   1141   1147   1151   1152     1  0.0000000  1.2552000  3
   1141   1147   1151   1153     1  0.0000000  1.2552000  3
   1142   1141   1144   1164     1  0.0000000  0.6508444  3
   1142   1141   1144   1145     1  0.0000000  0.6508444  3
   1142   1141   1144   1146     1  0.0000000  0.6508444  3
   1142   1141   1147   1148     1  0.0000000  1.2552000  3
   1142   1141   1147   1151     1  0.0000000  1.2552000  3
   1143   1141   1144   1164     1  0.0000000  0.6508444  3
   1143   1141   1144   1145     1  0.0000000  0.6508444  3
   1143   1141   1144   1146     1  0.0000000  0.6508444  3
   1143   1141   1147   1148     1  0.0000000  1.2552000  3
   1143   1141   1147   1151     1  0.0000000  1.2552000  3
   1145   1144   1141   1147     1  0.0000000  0.6508444  3
   1145   1144   1164   1165     1  0.0000000  0.0000000  2
   1146   1144   1141   1147     1  0.0000000  0.6508444  3
   1146   1144   1164   1165     1  0.0000000  0.0000000  2
   1147   1148   1157   1158     1  0.0000000  0.6508444  3
   1147   1148   1157   1159     1  0.0000000  0.6508444  3
   1147   1151   1154   1155     1  0.0000000  0.6508444  3
   1147   1151   1154   1156     1  0.0000000  0.6508444  3
   1148   1147   1151   1152     1  0.0000000  1.2552000  3
   1148   1147   1151   1153     1  0.0000000  1.2552000  3
   1149   1148   1147   1151     1  0.0000000  1.2552000  3
   1149   1148   1157   1161     1  0.0000000  0.6508444  3
   1149   1148   1157   1158     1  0.0000000  0.6508444  3
   1149   1148   1157   1159     1  0.0000000  0.6508444  3
   1150   1148   1147   1151     1  0.0000000  1.2552000  3
   1150   1148   1157   1161     1  0.0000000  0.6508444  3
   1150   1148   1157   1158     1  0.0000000  0.6508444  3
   1150   1148   1157   1159     1  0.0000000  0.6508444  3
   1152   1151   1154   1160     1  0.0000000  0.6508444  3
   1152   1151   1154   1155     1  0.0000000  0.6508444  3
   1152   1151   1154   1156     1  0.0000000  0.6508444  3
   1153   1151   1154   1160     1  0.0000000  0.6508444  3
   1153   1151   1154   1155     1  0.0000000  0.6508444  3
   1153   1151   1154   1156     1  0.0000000  0.6508444  3
   1154   1160   2364   2365     1  180.0000771  10.4600000  2
   1155   1154   1160   1162     1  0.0000000  3.3472000  1
   1155   1154   1160   1162     1  0.0000000  0.0000000  2
   1155   1154   1160   1162     1  180.0000771  0.3347200  3
   1155   1154   1160   2364     1  180.0000771  0.0000000  2
   1156   1154   1160   1162     1  0.0000000  3.3472000  1
   1156   1154   1160   1162     1  0.0000000  0.0000000  2
   1156   1154   1160   1162     1  180.0000771  0.3347200  3
   1156   1154   1160   2364     1  180.0000771  0.0000000  2
   1157   1161   2389   2390     1  180.0000771  10.4600000  2
   1158   1157   1161   1163     1  0.0000000  3.3472000  1
   1158   1157   1161   1163     1  0.0000000  0.0000000  2
   1158   1157   1161   1163     1  180.0000771  0.3347200  3
   1158   1157   1161   2389     1  180.0000771  0.0000000  2
   1159   1157   1161   1163     1  0.0000000  3.3472000  1
   1159   1157   1161   1163     1  0.0000000  0.0000000  2
   1159   1157   1161   1163     1  180.0000771  0.3347200  3
   1159   1157   1161   2389     1  180.0000771  0.0000000  2
   1160   2364   2344   2345     1  0.0000000  0.0000000  2
   1160   2364   2344   2346     1  0.0000000  0.0000000  2
   1161   2389   2369   2370     1  0.0000000  0.0000000  2
   1161   2389   2369   2371     1  0.0000000  0.0000000  2
   1162   1160   2364   2365     1  0.0000000  8.3680000  1
   1162   1160   2364   2365     1  180.0000771  10.4600000  2
   1163   1161   2389   2390     1  0.0000000  8.3680000  1
   1163   1161   2389   2390     1  180.0000771  10.4600000  2
   1166   1169   1189   1190     1  0.0000000  0.0000000  2
   1166   1172   1173   1174     1  0.0000000  1.2552000  3
   1166   1172   1173   1175     1  0.0000000  1.2552000  3
   1166   1172   1176   1177     1  0.0000000  1.2552000  3
   1166   1172   1176   1178     1  0.0000000  1.2552000  3
   1167   1166   1169   1189     1  0.0000000  0.6508444  3
   1167   1166   1169   1170     1  0.0000000  0.6508444  3
   1167   1166   1169   1171     1  0.0000000  0.6508444  3
   1167   1166   1172   1173     1  0.0000000  1.2552000  3
   1167   1166   1172   1176     1  0.0000000  1.2552000  3
   1168   1166   1169   1189     1  0.0000000  0.6508444  3
   1168   1166   1169   1170     1  0.0000000  0.6508444  3
   1168   1166   1169   1171     1  0.0000000  0.6508444  3
   1168   1166   1172   1173     1  0.0000000  1.2552000  3
   1168   1166   1172   1176     1  0.0000000  1.2552000  3
   1170   1169   1166   1172     1  0.0000000  0.6508444  3
   1170   1169   1189   1190     1  0.0000000  0.0000000  2
   1171   1169   1166   1172     1  0.0000000  0.6508444  3
   1171   1169   1189   1190     1  0.0000000  0.0000000  2
   1172   1173   1182   1183     1  0.0000000  0.6508444  3
   1172   1173   1182   1184     1  0.0000000  0.6508444  3
   1172   1176   1179   1180     1  0.0000000  0.6508444  3
   1172   1176   1179   1181     1  0.0000000  0.6508444  3
   1173   1172   1176   1177     1  0.0000000  1.2552000  3
   1173   1172   1176   1178     1  0.0000000  1.2552000  3
   1174   1173   1172   1176     1  0.0000000  1.2552000  3
   1174   1173   1182   1186     1  0.0000000  0.6508444  3
   1174   1173   1182   1183     1  0.0000000  0.6508444  3
   1174   1173   1182   1184     1  0.0000000  0.6508444  3
   1175   1173   1172   1176     1  0.0000000  1.2552000  3
   1175   1173   1182   1186     1  0.0000000  0.6508444  3
   1175   1173   1182   1183     1  0.0000000  0.6508444  3
   1175   1173   1182   1184     1  0.0000000  0.6508444  3
   1177   1176   1179   1185     1  0.0000000  0.6508444  3
   1177   1176   1179   1180     1  0.0000000  0.6508444  3
   1177   1176   1179   1181     1  0.0000000  0.6508444  3
   1178   1176   1179   1185     1  0.0000000  0.6508444  3
   1178   1176   1179   1180     1  0.0000000  0.6508444  3
   1178   1176   1179   1181     1  0.0000000  0.6508444  3
   1179   1185   2414   2415     1  180.0000771  10.4600000  2
   1180   1179   1185   1187     1  0.0000000  3.3472000  1
   1180   1179   1185   1187     1  0.0000000  0.0000000  2
   1180   1179   1185   1187     1  180.0000771  0.3347200  3
   1180   1179   1185   2414     1  180.0000771  0.0000000  2
   1181   1179   1185   1187     1  0.0000000  3.3472000  1
   1181   1179   1185   1187     1  0.0000000  0.0000000  2
   1181   1179   1185   1187     1  180.0000771  0.3347200  3
   1181   1179   1185   2414     1  180.0000771  0.0000000  2
   1182   1186   2439   2440     1  180.0000771  10.4600000  2
   1183   1182   1186   1188     1  0.0000000  3.3472000  1
   1183   1182   1186   1188     1  0.0000000  0.0000000  2
   1183   1182   1186   1188     1  180.0000771  0.3347200  3
   1183   1182   1186   2439     1  180.0000771  0.0000000  2
   1184   1182   1186   1188     1  0.0000000  3.3472000  1
   1184   1182   1186   1188     1  0.0000000  0.0000000  2
   1184   1182   1186   1188     1  180.0000771  0.3347200  3
   1184   1182   1186   2439     1  180.0000771  0.0000000  2
   1185   2414   2394   2395     1  0.0000000  0.0000000  2
   1185   2414   2394   2396     1  0.0000000  0.0000000  2
   1186   2439   2419   2420     1  0.0000000  0.0000000  2
   1186   2439   2419   2421     1  0.0000000  0.0000000  2
   1187   1185   2414   2415     1  0.0000000  8.3680000  1
   1187   1185   2414   2415     1  180.0000771  10.4600000  2
   1188   1186   2439   2440     1  0.0000000  8.3680000  1
   1188   1186   2439   2440     1  180.0000771  10.4600000  2
   1191   1194   1214   1215     1  0.0000000  0.0000000  2
   1191   1197   1198   1199     1  0.0000000  1.2552000  3
   1191   1197   1198   1200     1  0.0000000  1.2552000  3
   1191   1197   1201   1202     1  0.0000000  1.2552000  3
   1191   1197   1201   1203     1  0.0000000  1.2552000  3
   1192   1191   1194   1214     1  0.0000000  0.6508444  3
   1192   1191   1194   1195     1  0.0000000  0.6508444  3
   1192   1191   1194   1196     1  0.0000000  0.6508444  3
   1192   1191   1197   1198     1  0.0000000  1.2552000  3
   1192   1191   1197   1201     1  0.0000000  1.2552000  3
   1193   1191   1194   1214     1  0.0000000  0.6508444  3
   1193   1191   1194   1195     1  0.0000000  0.6508444  3
   1193   1191   1194   1196     1  0.0000000  0.6508444  3
   1193   1191   1197   1198     1  0.0000000  1.2552000  3
   1193   1191   1197   1201     1  0.0000000  1.2552000  3
   1195   1194   1191   1197     1  0.0000000  0.6508444  3
   1195   1194   1214   1215     1  0.0000000  0.0000000  2
   1196   1194   1191   1197     1  0.0000000  0.6508444  3
   1196   1194   1214   1215     1  0.0000000  0.0000000  2
   1197   1198   1207   1208     1  0.0000000  0.6508444  3
   1197   1198   1207   1209     1  0.0000000  0.6508444  3
   1197   1201   1204   1205     1  0.0000000  0.6508444  3
   1197   1201   1204   1206     1  0.0000000  0.6508444  3
   1198   1197   1201   1202     1  0.0000000  1.2552000  3
   1198   1197   1201   1203     1  0.0000000  1.2552000  3
   1199   1198   1197   1201     1  0.0000000  1.2552000  3
   1199   1198   1207   1211     1  0.0000000  0.6508444  3
   1199   1198   1207   1208     1  0.0000000  0.6508444  3
   1199   1198   1207   1209     1  0.0000000  0.6508444  3
   1200   1198   1197   1201     1  0.0000000  1.2552000  3
   1200   1198   1207   1211     1  0.0000000  0.6508444  3
   1200   1198   1207   1208     1  0.0000000  0.6508444  3
   1200   1198   1207   1209     1  0.0000000  0.6508444  3
   1202   1201   1204   1210     1  0.0000000  0.6508444  3
   1202   1201   1204   1205     1  0.0000000  0.6508444  3
   1202   1201   1204   1206     1  0.0000000  0.6508444  3
   1203   1201   1204   1210     1  0.0000000  0.6508444  3
   1203   1201   1204   1205     1  0.0000000  0.6508444  3
   1203   1201   1204   1206     1  0.0000000  0.6508444  3
   1204   1210   2464   2465     1  180.0000771  10.4600000  2
   1205   1204   1210   1212     1  0.0000000  3.3472000  1
   1205   1204   1210   1212     1  0.0000000  0.0000000  2
   1205   1204   1210   1212     1  180.0000771  0.3347200  3
   1205   1204   1210   2464     1  180.0000771  0.0000000  2
   1206   1204   1210   1212     1  0.0000000  3.3472000  1
   1206   1204   1210   1212     1  0.0000000  0.0000000  2
   1206   1204   1210   1212     1  180.0000771  0.3347200  3
   1206   1204   1210   2464     1  180.0000771  0.0000000  2
   1207   1211   2489   2490     1  180.0000771  10.4600000  2
   1208   1207   1211   1213     1  0.0000000  3.3472000  1
   1208   1207   1211   1213     1  0.0000000  0.0000000  2
   1208   1207   1211   1213     1  180.0000771  0.3347200  3
   1208   1207   1211   2489     1  180.0000771  0.0000000  2
   1209   1207   1211   1213     1  0.0000000  3.3472000  1
   1209   1207   1211   1213     1  0.0000000  0.0000000  2
   1209   1207   1211   1213     1  180.0000771  0.3347200  3
   1209   1207   1211   2489     1  180.0000771  0.0000000  2
   1210   2464   2444   2445     1  0.0000000  0.0000000  2
   1210   2464   2444   2446     1  0.0000000  0.0000000  2
   1211   2489   2469   2470     1  0.0000000  0.0000000  2
   1211   2489   2469   2471     1  0.0000000  0.0000000  2
   1212   1210   2464   2465     1  0.0000000  8.3680000  1
   1212   1210   2464   2465     1  180.0000771  10.4600000  2
   1213   1211   2489   2490     1  0.0000000  8.3680000  1
   1213   1211   2489   2490     1  180.0000771  10.4600000  2
   1216   1219   1239   1240     1  0.0000000  0.0000000  2
   1216   1222   1223   1224     1  0.0000000  1.2552000  3
   1216   1222   1223   1225     1  0.0000000  1.2552000  3
   1216   1222   1226   1227     1  0.0000000  1.2552000  3
   1216   1222   1226   1228     1  0.0000000  1.2552000  3
   1217   1216   1219   1239     1  0.0000000  0.6508444  3
   1217   1216   1219   1220     1  0.0000000  0.6508444  3
   1217   1216   1219   1221     1  0.0000000  0.6508444  3
   1217   1216   1222   1223     1  0.0000000  1.2552000  3
   1217   1216   1222   1226     1  0.0000000  1.2552000  3
   1218   1216   1219   1239     1  0.0000000  0.6508444  3
   1218   1216   1219   1220     1  0.0000000  0.6508444  3
   1218   1216   1219   1221     1  0.0000000  0.6508444  3
   1218   1216   1222   1223     1  0.0000000  1.2552000  3
   1218   1216   1222   1226     1  0.0000000  1.2552000  3
   1220   1219   1216   1222     1  0.0000000  0.6508444  3
   1220   1219   1239   1240     1  0.0000000  0.0000000  2
   1221   1219   1216   1222     1  0.0000000  0.6508444  3
   1221   1219   1239   1240     1  0.0000000  0.0000000  2
   1222   1223   1232   1233     1  0.0000000  0.6508444  3
   1222   1223   1232   1234     1  0.0000000  0.6508444  3
   1222   1226   1229   1230     1  0.0000000  0.6508444  3
   1222   1226   1229   1231     1  0.0000000  0.6508444  3
   1223   1222   1226   1227     1  0.0000000  1.2552000  3
   1223   1222   1226   1228     1  0.0000000  1.2552000  3
   1224   1223   1222   1226     1  0.0000000  1.2552000  3
   1224   1223   1232   1236     1  0.0000000  0.6508444  3
   1224   1223   1232   1233     1  0.0000000  0.6508444  3
   1224   1223   1232   1234     1  0.0000000  0.6508444  3
   1225   1223   1222   1226     1  0.0000000  1.2552000  3
   1225   1223   1232   1236     1  0.0000000  0.6508444  3
   1225   1223   1232   1233     1  0.0000000  0.6508444  3
   1225   1223   1232   1234     1  0.0000000  0.6508444  3
   1227   1226   1229   1235     1  0.0000000  0.6508444  3
   1227   1226   1229   1230     1  0.0000000  0.6508444  3
   1227   1226   1229   1231     1  0.0000000  0.6508444  3
   1228   1226   1229   1235     1  0.0000000  0.6508444  3
   1228   1226   1229   1230     1  0.0000000  0.6508444  3
   1228   1226   1229   1231     1  0.0000000  0.6508444  3
   1229   1235   2514   2515     1  180.0000771  10.4600000  2
   1230   1229   1235   1237     1  0.0000000  3.3472000  1
   1230   1229   1235   1237     1  0.0000000  0.0000000  2
   1230   1229   1235   1237     1  180.0000771  0.3347200  3
   1230   1229   1235   2514     1  180.0000771  0.0000000  2
   1231   1229   1235   1237     1  0.0000000  3.3472000  1
   1231   1229   1235   1237     1  0.0000000  0.0000000  2
   1231   1229   1235   1237     1  180.0000771  0.3347200  3
   1231   1229   1235   2514     1  180.0000771  0.0000000  2
   1232   1236   2539   2540     1  180.0000771  10.4600000  2
   1233   1232   1236   1238     1  0.0000000  3.3472000  1
   1233   1232   1236   1238     1  0.0000000  0.0000000  2
   1233   1232   1236   1238     1  180.0000771  0.3347200  3
   1233   1232   1236   2539     1  180.0000771  0.0000000  2
   1234   1232   1236   1238     1  0.0000000  3.3472000  1
   1234   1232   1236   1238     1  0.0000000  0.0000000  2
   1234   1232   1236   1238     1  180.0000771  0.3347200  3
   1234   1232   1236   2539     1  180.0000771  0.0000000  2
   1235   2514   2494   2495     1  0.0000000  0.0000000  2
   1235   2514   2494   2496     1  0.0000000  0.0000000  2
   1236   2539   2519   2520     1  0.0000000  0.0000000  2
   1236   2539   2519   2521     1  0.0000000  0.0000000  2
   1237   1235   2514   2515     1  0.0000000  8.3680000  1
   1237   1235   2514   2515     1  180.0000771  10.4600000  2
   1238   1236   2539   2540     1  0.0000000  8.3680000  1
   1238   1236   2539   2540     1  180.0000771  10.4600000  2
   1241   1244   1264   1265     1  0.0000000  0.0000000  2
   1241   1247   1248   1249     1  0.0000000  1.2552000  3
   1241   1247   1248   1250     1  0.0000000  1.2552000  3
   1241   1247   1251   1252     1  0.0000000  1.2552000  3
   1241   1247   1251   1253     1  0.0000000  1.2552000  3
   1242   1241   1244   1264     1  0.0000000  0.6508444  3
   1242   1241   1244   1245     1  0.0000000  0.6508444  3
   1242   1241   1244   1246     1  0.0000000  0.6508444  3
   1242   1241   1247   1248     1  0.0000000  1.2552000  3
   1242   1241   1247   1251     1  0.0000000  1.2552000  3
   1243   1241   1244   1264     1  0.0000000  0.6508444  3
   1243   1241   1244   1245     1  0.0000000  0.6508444  3
   1243   1241   1244   1246     1  0.0000000  0.6508444  3
   1243   1241   1247   1248     1  0.0000000  1.2552000  3
   1243   1241   1247   1251     1  0.0000000  1.2552000  3
   1245   1244   1241   1247     1  0.0000000  0.6508444  3
   1245   1244   1264   1265     1  0.0000000  0.0000000  2
   1246   1244   1241   1247     1  0.0000000  0.6508444  3
   1246   1244   1264   1265     1  0.0000000  0.0000000  2
   1247   1248   1257   1258     1  0.0000000  0.6508444  3
   1247   1248   1257   1259     1  0.0000000  0.6508444  3
   1247   1251   1254   1255     1  0.0000000  0.6508444  3
   1247   1251   1254   1256     1  0.0000000  0.6508444  3
   1248   1247   1251   1252     1  0.0000000  1.2552000  3
   1248   1247   1251   1253     1  0.0000000  1.2552000  3
   1249   1248   1247   1251     1  0.0000000  1.2552000  3
   1249   1248   1257   1261     1  0.0000000  0.6508444  3
   1249   1248   1257   1258     1  0.0000000  0.6508444  3
   1249   1248   1257   1259     1  0.0000000  0.6508444  3
   1250   1248   1247   1251     1  0.0000000  1.2552000  3
   1250   1248   1257   1261     1  0.0000000  0.6508444  3
   1250   1248   1257   1258     1  0.0000000  0.6508444  3
   1250   1248   1257   1259     1  0.0000000  0.6508444  3
   1252   1251   1254   1260     1  0.0000000  0.6508444  3
   1252   1251   1254   1255     1  0.0000000  0.6508444  3
   1252   1251   1254   1256     1  0.0000000  0.6508444  3
   1253   1251   1254   1260     1  0.0000000  0.6508444  3
   1253   1251   1254   1255     1  0.0000000  0.6508444  3
   1253   1251   1254   1256     1  0.0000000  0.6508444  3
   1254   1260   2564   2565     1  180.0000771  10.4600000  2
   1255   1254   1260   1262     1  0.0000000  3.3472000  1
   1255   1254   1260   1262     1  0.0000000  0.0000000  2
   1255   1254   1260   1262     1  180.0000771  0.3347200  3
   1255   1254   1260   2564     1  180.0000771  0.0000000  2
   1256   1254   1260   1262     1  0.0000000  3.3472000  1
   1256   1254   1260   1262     1  0.0000000  0.0000000  2
   1256   1254   1260   1262     1  180.0000771  0.3347200  3
   1256   1254   1260   2564     1  180.0000771  0.0000000  2
   1257   1261   2589   2590     1  180.0000771  10.4600000  2
   1258   1257   1261   1263     1  0.0000000  3.3472000  1
   1258   1257   1261   1263     1  0.0000000  0.0000000  2
   1258   1257   1261   1263     1  180.0000771  0.3347200  3
   1258   1257   1261   2589     1  180.0000771  0.0000000  2
   1259   1257   1261   1263     1  0.0000000  3.3472000  1
   1259   1257   1261   1263     1  0.0000000  0.0000000  2
   1259   1257   1261   1263     1  180.0000771  0.3347200  3
   1259   1257   1261   2589     1  180.0000771  0.0000000  2
   1260   2564   2544   2545     1  0.0000000  0.0000000  2
   1260   2564   2544   2546     1  0.0000000  0.0000000  2
   1261   2589   2569   2570     1  0.0000000  0.0000000  2
   1261   2589   2569   2571     1  0.0000000  0.0000000  2
   1262   1260   2564   2565     1  0.0000000  8.3680000  1
   1262   1260   2564   2565     1  180.0000771  10.4600000  2
   1263   1261   2589   2590     1  0.0000000  8.3680000  1
   1263   1261   2589   2590     1  180.0000771  10.4600000  2
   1266   1269   1289   1290     1  0.0000000  0.0000000  2
   1266   1272   1273   1274     1  0.0000000  1.2552000  3
   1266   1272   1273   1275     1  0.0000000  1.2552000  3
   1266   1272   1276   1277     1  0.0000000  1.2552000  3
   1266   1272   1276   1278     1  0.0000000  1.2552000  3
   1267   1266   1269   1289     1  0.0000000  0.6508444  3
   1267   1266   1269   1270     1  0.0000000  0.6508444  3
   1267   1266   1269   1271     1  0.0000000  0.6508444  3
   1267   1266   1272   1273     1  0.0000000  1.2552000  3
   1267   1266   1272   1276     1  0.0000000  1.2552000  3
   1268   1266   1269   1289     1  0.0000000  0.6508444  3
   1268   1266   1269   1270     1  0.0000000  0.6508444  3
   1268   1266   1269   1271     1  0.0000000  0.6508444  3
   1268   1266   1272   1273     1  0.0000000  1.2552000  3
   1268   1266   1272   1276     1  0.0000000  1.2552000  3
   1270   1269   1266   1272     1  0.0000000  0.6508444  3
   1270   1269   1289   1290     1  0.0000000  0.0000000  2
   1271   1269   1266   1272     1  0.0000000  0.6508444  3
   1271   1269   1289   1290     1  0.0000000  0.0000000  2
   1272   1273   1282   1283     1  0.0000000  0.6508444  3
   1272   1273   1282   1284     1  0.0000000  0.6508444  3
   1272   1276   1279   1280     1  0.0000000  0.6508444  3
   1272   1276   1279   1281     1  0.0000000  0.6508444  3
   1273   1272   1276   1277     1  0.0000000  1.2552000  3
   1273   1272   1276   1278     1  0.0000000  1.2552000  3
   1274   1273   1272   1276     1  0.0000000  1.2552000  3
   1274   1273   1282   1286     1  0.0000000  0.6508444  3
   1274   1273   1282   1283     1  0.0000000  0.6508444  3
   1274   1273   1282   1284     1  0.0000000  0.6508444  3
   1275   1273   1272   1276     1  0.0000000  1.2552000  3
   1275   1273   1282   1286     1  0.0000000  0.6508444  3
   1275   1273   1282   1283     1  0.0000000  0.6508444  3
   1275   1273   1282   1284     1  0.0000000  0.6508444  3
   1277   1276   1279   1285     1  0.0000000  0.6508444  3
   1277   1276   1279   1280     1  0.0000000  0.6508444  3
   1277   1276   1279   1281     1  0.0000000  0.6508444  3
   1278   1276   1279   1285     1  0.0000000  0.6508444  3
   1278   1276   1279   1280     1  0.0000000  0.6508444  3
   1278   1276   1279   1281     1  0.0000000  0.6508444  3
   1279   1285   2614   2615     1  180.0000771  10.4600000  2
   1280   1279   1285   1287     1  0.0000000  3.3472000  1
   1280   1279   1285   1287     1  0.0000000  0.0000000  2
   1280   1279   1285   1287     1  180.0000771  0.3347200  3
   1280   1279   1285   2614     1  180.0000771  0.0000000  2
   1281   1279   1285   1287     1  0.0000000  3.3472000  1
   1281   1279   1285   1287     1  0.0000000  0.0000000  2
   1281   1279   1285   1287     1  180.0000771  0.3347200  3
   1281   1279   1285   2614     1  180.0000771  0.0000000  2
   1282   1286   2639   2640     1  180.0000771  10.4600000  2
   1283   1282   1286   1288     1  0.0000000  3.3472000  1
   1283   1282   1286   1288     1  0.0000000  0.0000000  2
   1283   1282   1286   1288     1  180.0000771  0.3347200  3
   1283   1282   1286   2639     1  180.0000771  0.0000000  2
   1284   1282   1286   1288     1  0.0000000  3.3472000  1
   1284   1282   1286   1288     1  0.0000000  0.0000000  2
   1284   1282   1286   1288     1  180.0000771  0.3347200  3
   1284   1282   1286   2639     1  180.0000771  0.0000000  2
   1285   2614   2594   2595     1  0.0000000  0.0000000  2
   1285   2614   2594   2596     1  0.0000000  0.0000000  2
   1286   2639   2619   2620     1  0.0000000  0.0000000  2
   1286   2639   2619   2621     1  0.0000000  0.0000000  2
   1287   1285   2614   2615     1  0.0000000  8.3680000  1
   1287   1285   2614   2615     1  180.0000771  10.4600000  2
   1288   1286   2639   2640     1  0.0000000  8.3680000  1
   1288   1286   2639   2640     1  180.0000771  10.4600000  2
   1291   1294   1314   1315     1  0.0000000  0.0000000  2
   1291   1297   1298   1299     1  0.0000000  1.2552000  3
   1291   1297   1298   1300     1  0.0000000  1.2552000  3
   1291   1297   1301   1302     1  0.0000000  1.2552000  3
   1291   1297   1301   1303     1  0.0000000  1.2552000  3
   1292   1291   1294   1314     1  0.0000000  0.6508444  3
   1292   1291   1294   1295     1  0.0000000  0.6508444  3
   1292   1291   1294   1296     1  0.0000000  0.6508444  3
   1292   1291   1297   1298     1  0.0000000  1.2552000  3
   1292   1291   1297   1301     1  0.0000000  1.2552000  3
   1293   1291   1294   1314     1  0.0000000  0.6508444  3
   1293   1291   1294   1295     1  0.0000000  0.6508444  3
   1293   1291   1294   1296     1  0.0000000  0.6508444  3
   1293   1291   1297   1298     1  0.0000000  1.2552000  3
   1293   1291   1297   1301     1  0.0000000  1.2552000  3
   1295   1294   1291   1297     1  0.0000000  0.6508444  3
   1295   1294   1314   1315     1  0.0000000  0.0000000  2
   1296   1294   1291   1297     1  0.0000000  0.6508444  3
   1296   1294   1314   1315     1  0.0000000  0.0000000  2
   1297   1298   1307   1308     1  0.0000000  0.6508444  3
   1297   1298   1307   1309     1  0.0000000  0.6508444  3
   1297   1301   1304   1305     1  0.0000000  0.6508444  3
   1297   1301   1304   1306     1  0.0000000  0.6508444  3
   1298   1297   1301   1302     1  0.0000000  1.2552000  3
   1298   1297   1301   1303     1  0.0000000  1.2552000  3
   1299   1298   1297   1301     1  0.0000000  1.2552000  3
   1299   1298   1307   1311     1  0.0000000  0.6508444  3
   1299   1298   1307   1308     1  0.0000000  0.6508444  3
   1299   1298   1307   1309     1  0.0000000  0.6508444  3
   1300   1298   1297   1301     1  0.0000000  1.2552000  3
   1300   1298   1307   1311     1  0.0000000  0.6508444  3
   1300   1298   1307   1308     1  0.0000000  0.6508444  3
   1300   1298   1307   1309     1  0.0000000  0.6508444  3
   1302   1301   1304   1310     1  0.0000000  0.6508444  3
   1302   1301   1304   1305     1  0.0000000  0.6508444  3
   1302   1301   1304   1306     1  0.0000000  0.6508444  3
   1303   1301   1304   1310     1  0.0000000  0.6508444  3
   1303   1301   1304   1305     1  0.0000000  0.6508444  3
   1303   1301   1304   1306     1  0.0000000  0.6508444  3
   1304   1310   2664   2665     1  180.0000771  10.4600000  2
   1305   1304   1310   1312     1  0.0000000  3.3472000  1
   1305   1304   1310   1312     1  0.0000000  0.0000000  2
   1305   1304   1310   1312     1  180.0000771  0.3347200  3
   1305   1304   1310   2664     1  180.0000771  0.0000000  2
   1306   1304   1310   1312     1  0.0000000  3.3472000  1
   1306   1304   1310   1312     1  0.0000000  0.0000000  2
   1306   1304   1310   1312     1  180.0000771  0.3347200  3
   1306   1304   1310   2664     1  180.0000771  0.0000000  2
   1307   1311   2689   2690     1  180.0000771  10.4600000  2
   1308   1307   1311   1313     1  0.0000000  3.3472000  1
   1308   1307   1311   1313     1  0.0000000  0.0000000  2
   1308   1307   1311   1313     1  180.0000771  0.3347200  3
   1308   1307   1311   2689     1  180.0000771  0.0000000  2
   1309   1307   1311   1313     1  0.0000000  3.3472000  1
   1309   1307   1311   1313     1  0.0000000  0.0000000  2
   1309   1307   1311   1313     1  180.0000771  0.3347200  3
   1309   1307   1311   2689     1  180.0000771  0.0000000  2
   1310   2664   2644   2645     1  0.0000000  0.0000000  2
   1310   2664   2644   2646     1  0.0000000  0.0000000  2
   1311   2689   2669   2670     1  0.0000000  0.0000000  2
   1311   2689   2669   2671     1  0.0000000  0.0000000  2
   1312   1310   2664   2665     1  0.0000000  8.3680000  1
   1312   1310   2664   2665     1  180.0000771  10.4600000  2
   1313   1311   2689   2690     1  0.0000000  8.3680000  1
   1313   1311   2689   2690     1  180.0000771  10.4600000  2
   1316   1319   1339   1340     1  0.0000000  0.0000000  2
   1316   1322   1323   1324     1  0.0000000  1.2552000  3
   1316   1322   1323   1325     1  0.0000000  1.2552000  3
   1316   1322   1326   1327     1  0.0000000  1.2552000  3
   1316   1322   1326   1328     1  0.0000000  1.2552000  3
   1317   1316   1319   1339     1  0.0000000  0.6508444  3
   1317   1316   1319   1320     1  0.0000000  0.6508444  3
   1317   1316   1319   1321     1  0.0000000  0.6508444  3
   1317   1316   1322   1323     1  0.0000000  1.2552000  3
   1317   1316   1322   1326     1  0.0000000  1.2552000  3
   1318   1316   1319   1339     1  0.0000000  0.6508444  3
   1318   1316   1319   1320     1  0.0000000  0.6508444  3
   1318   1316   1319   1321     1  0.0000000  0.6508444  3
   1318   1316   1322   1323     1  0.0000000  1.2552000  3
   1318   1316   1322   1326     1  0.0000000  1.2552000  3
   1320   1319   1316   1322     1  0.0000000  0.6508444  3
   1320   1319   1339   1340     1  0.0000000  0.0000000  2
   1321   1319   1316   1322     1  0.0000000  0.6508444  3
   1321   1319   1339   1340     1  0.0000000  0.0000000  2
   1322   1323   1332   1333     1  0.0000000  0.6508444  3
   1322   1323   1332   1334     1  0.0000000  0.6508444  3
   1322   1326   1329   1330     1  0.0000000  0.6508444  3
   1322   1326   1329   1331     1  0.0000000  0.6508444  3
   1323   1322   1326   1327     1  0.0000000  1.2552000  3
   1323   1322   1326   1328     1  0.0000000  1.2552000  3
   1324   1323   1322   1326     1  0.0000000  1.2552000  3
   1324   1323   1332   1336     1  0.0000000  0.6508444  3
   1324   1323   1332   1333     1  0.0000000  0.6508444  3
   1324   1323   1332   1334     1  0.0000000  0.6508444  3
   1325   1323   1322   1326     1  0.0000000  1.2552000  3
   1325   1323   1332   1336     1  0.0000000  0.6508444  3
   1325   1323   1332   1333     1  0.0000000  0.6508444  3
   1325   1323   1332   1334     1  0.0000000  0.6508444  3
   1327   1326   1329   1335     1  0.0000000  0.6508444  3
   1327   1326   1329   1330     1  0.0000000  0.6508444  3
   1327   1326   1329   1331     1  0.0000000  0.6508444  3
   1328   1326   1329   1335     1  0.0000000  0.6508444  3
   1328   1326   1329   1330     1  0.0000000  0.6508444  3
   1328   1326   1329   1331     1  0.0000000  0.6508444  3
   1329   1335   2714   2715     1  180.0000771  10.4600000  2
   1330   1329   1335   1337     1  0.0000000  3.3472000  1
   1330   1329   1335   1337     1  0.0000000  0.0000000  2
   1330   1329   1335   1337     1  180.0000771  0.3347200  3
   1330   1329   1335   2714     1  180.0000771  0.0000000  2
   1331   1329   1335   1337     1  0.0000000  3.3472000  1
   1331   1329   1335   1337     1  0.0000000  0.0000000  2
   1331   1329   1335   1337     1  180.0000771  0.3347200  3
   1331   1329   1335   2714     1  180.0000771  0.0000000  2
   1332   1336   2739   2740     1  180.0000771  10.4600000  2
   1333   1332   1336   1338     1  0.0000000  3.3472000  1
   1333   1332   1336   1338     1  0.0000000  0.0000000  2
   1333   1332   1336   1338     1  180.0000771  0.3347200  3
   1333   1332   1336   2739     1  180.0000771  0.0000000  2
   1334   1332   1336   1338     1  0.0000000  3.3472000  1
   1334   1332   1336   1338     1  0.0000000  0.0000000  2
   1334   1332   1336   1338     1  180.0000771  0.3347200  3
   1334   1332   1336   2739     1  180.0000771  0.0000000  2
   1335   2714   2694   2695     1  0.0000000  0.0000000  2
   1335   2714   2694   2696     1  0.0000000  0.0000000  2
   1336   2739   2719   2720     1  0.0000000  0.0000000  2
   1336   2739   2719   2721     1  0.0000000  0.0000000  2
   1337   1335   2714   2715     1  0.0000000  8.3680000  1
   1337   1335   2714   2715     1  180.0000771  10.4600000  2
   1338   1336   2739   2740     1  0.0000000  8.3680000  1
   1338   1336   2739   2740     1  180.0000771  10.4600000  2
   1341   1344   1364   1365     1  0.0000000  0.0000000  2
   1341   1347   1348   1349     1  0.0000000  1.2552000  3
   1341   1347   1348   1350     1  0.0000000  1.2552000  3
   1341   1347   1351   1352     1  0.0000000  1.2552000  3
   1341   1347   1351   1353     1  0.0000000  1.2552000  3
   1342   1341   1344   1364     1  0.0000000  0.6508444  3
   1342   1341   1344   1345     1  0.0000000  0.6508444  3
   1342   1341   1344   1346     1  0.0000000  0.6508444  3
   1342   1341   1347   1348     1  0.0000000  1.2552000  3
   1342   1341   1347   1351     1  0.0000000  1.2552000  3
   1343   1341   1344   1364     1  0.0000000  0.6508444  3
   1343   1341   1344   1345     1  0.0000000  0.6508444  3
   1343   1341   1344   1346     1  0.0000000  0.6508444  3
   1343   1341   1347   1348     1  0.0000000  1.2552000  3
   1343   1341   1347   1351     1  0.0000000  1.2552000  3
   1345   1344   1341   1347     1  0.0000000  0.6508444  3
   1345   1344   1364   1365     1  0.0000000  0.0000000  2
   1346   1344   1341   1347     1  0.0000000  0.6508444  3
   1346   1344   1364   1365     1  0.0000000  0.0000000  2
   1347   1348   1357   1358     1  0.0000000  0.6508444  3
   1347   1348   1357   1359     1  0.0000000  0.6508444  3
   1347   1351   1354   1355     1  0.0000000  0.6508444  3
   1347   1351   1354   1356     1  0.0000000  0.6508444  3
   1348   1347   1351   1352     1  0.0000000  1.2552000  3
   1348   1347   1351   1353     1  0.0000000  1.2552000  3
   1349   1348   1347   1351     1  0.0000000  1.2552000  3
   1349   1348   1357   1361     1  0.0000000  0.6508444  3
   1349   1348   1357   1358     1  0.0000000  0.6508444  3
   1349   1348   1357   1359     1  0.0000000  0.6508444  3
   1350   1348   1347   1351     1  0.0000000  1.2552000  3
   1350   1348   1357   1361     1  0.0000000  0.6508444  3
   1350   1348   1357   1358     1  0.0000000  0.6508444  3
   1350   1348   1357   1359     1  0.0000000  0.6508444  3
   1352   1351   1354   1360     1  0.0000000  0.6508444  3
   1352   1351   1354   1355     1  0.0000000  0.6508444  3
   1352   1351   1354   1356     1  0.0000000  0.6508444  3
   1353   1351   1354   1360     1  0.0000000  0.6508444  3
   1353   1351   1354   1355     1  0.0000000  0.6508444  3
   1353   1351   1354   1356     1  0.0000000  0.6508444  3
   1354   1360   2764   2765     1  180.0000771  10.4600000  2
   1355   1354   1360   1362     1  0.0000000  3.3472000  1
   1355   1354   1360   1362     1  0.0000000  0.0000000  2
   1355   1354   1360   1362     1  180.0000771  0.3347200  3
   1355   1354   1360   2764     1  180.0000771  0.0000000  2
   1356   1354   1360   1362     1  0.0000000  3.3472000  1
   1356   1354   1360   1362     1  0.0000000  0.0000000  2
   1356   1354   1360   1362     1  180.0000771  0.3347200  3
   1356   1354   1360   2764     1  180.0000771  0.0000000  2
   1357   1361   2789   2790     1  180.0000771  10.4600000  2
   1358   1357   1361   1363     1  0.0000000  3.3472000  1
   1358   1357   1361   1363     1  0.0000000  0.0000000  2
   1358   1357   1361   1363     1  180.0000771  0.3347200  3
   1358   1357   1361   2789     1  180.0000771  0.0000000  2
   1359   1357   1361   1363     1  0.0000000  3.3472000  1
   1359   1357   1361   1363     1  0.0000000  0.0000000  2
   1359   1357   1361   1363     1  180.0000771  0.3347200  3
   1359   1357   1361   2789     1  180.0000771  0.0000000  2
   1360   2764   2744   2745     1  0.0000000  0.0000000  2
   1360   2764   2744   2746     1  0.0000000  0.0000000  2
   1361   2789   2769   2770     1  0.0000000  0.0000000  2
   1361   2789   2769   2771     1  0.0000000  0.0000000  2
   1362   1360   2764   2765     1  0.0000000  8.3680000  1
   1362   1360   2764   2765     1  180.0000771  10.4600000  2
   1363   1361   2789   2790     1  0.0000000  8.3680000  1
   1363   1361   2789   2790     1  180.0000771  10.4600000  2
   1366   1369   1389   1390     1  0.0000000  0.0000000  2
   1366   1372   1373   1374     1  0.0000000  1.2552000  3
   1366   1372   1373   1375     1  0.0000000  1.2552000  3
   1366   1372   1376   1377     1  0.0000000  1.2552000  3
   1366   1372   1376   1378     1  0.0000000  1.2552000  3
   1367   1366   1369   1389     1  0.0000000  0.6508444  3
   1367   1366   1369   1370     1  0.0000000  0.6508444  3
   1367   1366   1369   1371     1  0.0000000  0.6508444  3
   1367   1366   1372   1373     1  0.0000000  1.2552000  3
   1367   1366   1372   1376     1  0.0000000  1.2552000  3
   1368   1366   1369   1389     1  0.0000000  0.6508444  3
   1368   1366   1369   1370     1  0.0000000  0.6508444  3
   1368   1366   1369   1371     1  0.0000000  0.6508444  3
   1368   1366   1372   1373     1  0.0000000  1.2552000  3
   1368   1366   1372   1376     1  0.0000000  1.2552000  3
   1370   1369   1366   1372     1  0.0000000  0.6508444  3
   1370   1369   1389   1390     1  0.0000000  0.0000000  2
   1371   1369   1366   1372     1  0.0000000  0.6508444  3
   1371   1369   1389   1390     1  0.0000000  0.0000000  2
   1372   1373   1382   1383     1  0.0000000  0.6508444  3
   1372   1373   1382   1384     1  0.0000000  0.6508444  3
   1372   1376   1379   1380     1  0.0000000  0.6508444  3
   1372   1376   1379   1381     1  0.0000000  0.6508444  3
   1373   1372   1376   1377     1  0.0000000  1.2552000  3
   1373   1372   1376   1378     1  0.0000000  1.2552000  3
   1374   1373   1372   1376     1  0.0000000  1.2552000  3
   1374   1373   1382   1386     1  0.0000000  0.6508444  3
   1374   1373   1382   1383     1  0.0000000  0.6508444  3
   1374   1373   1382   1384     1  0.0000000  0.6508444  3
   1375   1373   1372   1376     1  0.0000000  1.2552000  3
   1375   1373   1382   1386     1  0.0000000  0.6508444  3
   1375   1373   1382   1383     1  0.0000000  0.6508444  3
   1375   1373   1382   1384     1  0.0000000  0.6508444  3
   1377   1376   1379   1385     1  0.0000000  0.6508444  3
   1377   1376   1379   1380     1  0.0000000  0.6508444  3
   1377   1376   1379   1381     1  0.0000000  0.6508444  3
   1378   1376   1379   1385     1  0.0000000  0.6508444  3
   1378   1376   1379   1380     1  0.0000000  0.6508444  3
   1378   1376   1379   1381     1  0.0000000  0.6508444  3
   1379   1385   2814   2815     1  180.0000771  10.4600000  2
   1380   1379   1385   1387     1  0.0000000  3.3472000  1
   1380   1379   1385   1387     1  0.0000000  0.0000000  2
   1380   1379   1385   1387     1  180.0000771  0.3347200  3
   1380   1379   1385   2814     1  180.0000771  0.0000000  2
   1381   1379   1385   1387     1  0.0000000  3.3472000  1
   1381   1379   1385   1387     1  0.0000000  0.0000000  2
   1381   1379   1385   1387     1  180.0000771  0.3347200  3
   1381   1379   1385   2814     1  180.0000771  0.0000000  2
   1382   1386   2839   2840     1  180.0000771  10.4600000  2
   1383   1382   1386   1388     1  0.0000000  3.3472000  1
   1383   1382   1386   1388     1  0.0000000  0.0000000  2
   1383   1382   1386   1388     1  180.0000771  0.3347200  3
   1383   1382   1386   2839     1  180.0000771  0.0000000  2
   1384   1382   1386   1388     1  0.0000000  3.3472000  1
   1384   1382   1386   1388     1  0.0000000  0.0000000  2
   1384   1382   1386   1388     1  180.0000771  0.3347200  3
   1384   1382   1386   2839     1  180.0000771  0.0000000  2
   1385   2814   2794   2795     1  0.0000000  0.0000000  2
   1385   2814   2794   2796     1  0.0000000  0.0000000  2
   1386   2839   2819   2820     1  0.0000000  0.0000000  2
   1386   2839   2819   2821     1  0.0000000  0.0000000  2
   1387   1385   2814   2815     1  0.0000000  8.3680000  1
   1387   1385   2814   2815     1  180.0000771  10.4600000  2
   1388   1386   2839   2840     1  0.0000000  8.3680000  1
   1388   1386   2839   2840     1  180.0000771  10.4600000  2
   1391   1394   1414   1415     1  0.0000000  0.0000000  2
   1391   1397   1398   1399     1  0.0000000  1.2552000  3
   1391   1397   1398   1400     1  0.0000000  1.2552000  3
   1391   1397   1401   1402     1  0.0000000  1.2552000  3
   1391   1397   1401   1403     1  0.0000000  1.2552000  3
   1392   1391   1394   1414     1  0.0000000  0.6508444  3
   1392   1391   1394   1395     1  0.0000000  0.6508444  3
   1392   1391   1394   1396     1  0.0000000  0.6508444  3
   1392   1391   1397   1398     1  0.0000000  1.2552000  3
   1392   1391   1397   1401     1  0.0000000  1.2552000  3
   1393   1391   1394   1414     1  0.0000000  0.6508444  3
   1393   1391   1394   1395     1  0.0000000  0.6508444  3
   1393   1391   1394   1396     1  0.0000000  0.6508444  3
   1393   1391   1397   1398     1  0.0000000  1.2552000  3
   1393   1391   1397   1401     1  0.0000000  1.2552000  3
   1395   1394   1391   1397     1  0.0000000  0.6508444  3
   1395   1394   1414   1415     1  0.0000000  0.0000000  2
   1396   1394   1391   1397     1  0.0000000  0.6508444  3
   1396   1394   1414   1415     1  0.0000000  0.0000000  2
   1397   1398   1407   1408     1  0.0000000  0.6508444  3
   1397   1398   1407   1409     1  0.0000000  0.6508444  3
   1397   1401   1404   1405     1  0.0000000  0.6508444  3
   1397   1401   1404   1406     1  0.0000000  0.6508444  3
   1398   1397   1401   1402     1  0.0000000  1.2552000  3
   1398   1397   1401   1403     1  0.0000000  1.2552000  3
   1399   1398   1397   1401     1  0.0000000  1.2552000  3
   1399   1398   1407   1411     1  0.0000000  0.6508444  3
   1399   1398   1407   1408     1  0.0000000  0.6508444  3
   1399   1398   1407   1409     1  0.0000000  0.6508444  3
   1400   1398   1397   1401     1  0.0000000  1.2552000  3
   1400   1398   1407   1411     1  0.0000000  0.6508444  3
   1400   1398   1407   1408     1  0.0000000  0.6508444  3
   1400   1398   1407   1409     1  0.0000000  0.6508444  3
   1402   1401   1404   1410     1  0.0000000  0.6508444  3
   1402   1401   1404   1405     1  0.0000000  0.6508444  3
   1402   1401   1404   1406     1  0.0000000  0.6508444  3
   1403   1401   1404   1410     1  0.0000000  0.6508444  3
   1403   1401   1404   1405     1  0.0000000  0.6508444  3
   1403   1401   1404   1406     1  0.0000000  0.6508444  3
   1404   1410   2864   2865     1  180.0000771  10.4600000  2
   1405   1404   1410   1412     1  0.0000000  3.3472000  1
   1405   1404   1410   1412     1  0.0000000  0.0000000  2
   1405   1404   1410   1412     1  180.0000771  0.3347200  3
   1405   1404   1410   2864     1  180.0000771  0.0000000  2
   1406   1404   1410   1412     1  0.0000000  3.3472000  1
   1406   1404   1410   1412     1  0.0000000  0.0000000  2
   1406   1404   1410   1412     1  180.0000771  0.3347200  3
   1406   1404   1410   2864     1  180.0000771  0.0000000  2
   1407   1411   2889   2890     1  180.0000771  10.4600000  2
   1408   1407   1411   1413     1  0.0000000  3.3472000  1
   1408   1407   1411   1413     1  0.0000000  0.0000000  2
   1408   1407   1411   1413     1  180.0000771  0.3347200  3
   1408   1407   1411   2889     1  180.0000771  0.0000000  2
   1409   1407   1411   1413     1  0.0000000  3.3472000  1
   1409   1407   1411   1413     1  0.0000000  0.0000000  2
   1409   1407   1411   1413     1  180.0000771  0.3347200  3
   1409   1407   1411   2889     1  180.0000771  0.0000000  2
   1410   2864   2844   2845     1  0.0000000  0.0000000  2
   1410   2864   2844   2846     1  0.0000000  0.0000000  2
   1411   2889   2869   2870     1  0.0000000  0.0000000  2
   1411   2889   2869   2871     1  0.0000000  0.0000000  2
   1412   1410   2864   2865     1  0.0000000  8.3680000  1
   1412   1410   2864   2865     1  180.0000771  10.4600000  2
   1413   1411   2889   2890     1  0.0000000  8.3680000  1
   1413   1411   2889   2890     1  180.0000771  10.4600000  2
   1416   1419   1439   1440     1  0.0000000  0.0000000  2
   1416   1422   1423   1424     1  0.0000000  1.2552000  3
   1416   1422   1423   1425     1  0.0000000  1.2552000  3
   1416   1422   1426   1427     1  0.0000000  1.2552000  3
   1416   1422   1426   1428     1  0.0000000  1.2552000  3
   1417   1416   1419   1439     1  0.0000000  0.6508444  3
   1417   1416   1419   1420     1  0.0000000  0.6508444  3
   1417   1416   1419   1421     1  0.0000000  0.6508444  3
   1417   1416   1422   1423     1  0.0000000  1.2552000  3
   1417   1416   1422   1426     1  0.0000000  1.2552000  3
   1418   1416   1419   1439     1  0.0000000  0.6508444  3
   1418   1416   1419   1420     1  0.0000000  0.6508444  3
   1418   1416   1419   1421     1  0.0000000  0.6508444  3
   1418   1416   1422   1423     1  0.0000000  1.2552000  3
   1418   1416   1422   1426     1  0.0000000  1.2552000  3
   1420   1419   1416   1422     1  0.0000000  0.6508444  3
   1420   1419   1439   1440     1  0.0000000  0.0000000  2
   1421   1419   1416   1422     1  0.0000000  0.6508444  3
   1421   1419   1439   1440     1  0.0000000  0.0000000  2
   1422   1423   1432   1433     1  0.0000000  0.6508444  3
   1422   1423   1432   1434     1  0.0000000  0.6508444  3
   1422   1426   1429   1430     1  0.0000000  0.6508444  3
   1422   1426   1429   1431     1  0.0000000  0.6508444  3
   1423   1422   1426   1427     1  0.0000000  1.2552000  3
   1423   1422   1426   1428     1  0.0000000  1.2552000  3
   1424   1423   1422   1426     1  0.0000000  1.2552000  3
   1424   1423   1432   1436     1  0.0000000  0.6508444  3
   1424   1423   1432   1433     1  0.0000000  0.6508444  3
   1424   1423   1432   1434     1  0.0000000  0.6508444  3
   1425   1423   1422   1426     1  0.0000000  1.2552000  3
   1425   1423   1432   1436     1  0.0000000  0.6508444  3
   1425   1423   1432   1433     1  0.0000000  0.6508444  3
   1425   1423   1432   1434     1  0.0000000  0.6508444  3
   1427   1426   1429   1435     1  0.0000000  0.6508444  3
   1427   1426   1429   1430     1  0.0000000  0.6508444  3
   1427   1426   1429   1431     1  0.0000000  0.6508444  3
   1428   1426   1429   1435     1  0.0000000  0.6508444  3
   1428   1426   1429   1430     1  0.0000000  0.6508444  3
   1428   1426   1429   1431     1  0.0000000  0.6508444  3
   1429   1435   2914   2915     1  180.0000771  10.4600000  2
   1430   1429   1435   1437     1  0.0000000  3.3472000  1
   1430   1429   1435   1437     1  0.0000000  0.0000000  2
   1430   1429   1435   1437     1  180.0000771  0.3347200  3
   1430   1429   1435   2914     1  180.0000771  0.0000000  2
   1431   1429   1435   1437     1  0.0000000  3.3472000  1
   1431   1429   1435   1437     1  0.0000000  0.0000000  2
   1431   1429   1435   1437     1  180.0000771  0.3347200  3
   1431   1429   1435   2914     1  180.0000771  0.0000000  2
   1432   1436   2939   2940     1  180.0000771  10.4600000  2
   1433   1432   1436   1438     1  0.0000000  3.3472000  1
   1433   1432   1436   1438     1  0.0000000  0.0000000  2
   1433   1432   1436   1438     1  180.0000771  0.3347200  3
   1433   1432   1436   2939     1  180.0000771  0.0000000  2
   1434   1432   1436   1438     1  0.0000000  3.3472000  1
   1434   1432   1436   1438     1  0.0000000  0.0000000  2
   1434   1432   1436   1438     1  180.0000771  0.3347200  3
   1434   1432   1436   2939     1  180.0000771  0.0000000  2
   1435   2914   2894   2895     1  0.0000000  0.0000000  2
   1435   2914   2894   2896     1  0.0000000  0.0000000  2
   1436   2939   2919   2920     1  0.0000000  0.0000000  2
   1436   2939   2919   2921     1  0.0000000  0.0000000  2
   1437   1435   2914   2915     1  0.0000000  8.3680000  1
   1437   1435   2914   2915     1  180.0000771  10.4600000  2
   1438   1436   2939   2940     1  0.0000000  8.3680000  1
   1438   1436   2939   2940     1  180.0000771  10.4600000  2
   1441   1444   1464   1465     1  0.0000000  0.0000000  2
   1441   1447   1448   1449     1  0.0000000  1.2552000  3
   1441   1447   1448   1450     1  0.0000000  1.2552000  3
   1441   1447   1451   1452     1  0.0000000  1.2552000  3
   1441   1447   1451   1453     1  0.0000000  1.2552000  3
   1442   1441   1444   1464     1  0.0000000  0.6508444  3
   1442   1441   1444   1445     1  0.0000000  0.6508444  3
   1442   1441   1444   1446     1  0.0000000  0.6508444  3
   1442   1441   1447   1448     1  0.0000000  1.2552000  3
   1442   1441   1447   1451     1  0.0000000  1.2552000  3
   1443   1441   1444   1464     1  0.0000000  0.6508444  3
   1443   1441   1444   1445     1  0.0000000  0.6508444  3
   1443   1441   1444   1446     1  0.0000000  0.6508444  3
   1443   1441   1447   1448     1  0.0000000  1.2552000  3
   1443   1441   1447   1451     1  0.0000000  1.2552000  3
   1445   1444   1441   1447     1  0.0000000  0.6508444  3
   1445   1444   1464   1465     1  0.0000000  0.0000000  2
   1446   1444   1441   1447     1  0.0000000  0.6508444  3
   1446   1444   1464   1465     1  0.0000000  0.0000000  2
   1447   1448   1457   1458     1  0.0000000  0.6508444  3
   1447   1448   1457   1459     1  0.0000000  0.6508444  3
   1447   1451   1454   1455     1  0.0000000  0.6508444  3
   1447   1451   1454   1456     1  0.0000000  0.6508444  3
   1448   1447   1451   1452     1  0.0000000  1.2552000  3
   1448   1447   1451   1453     1  0.0000000  1.2552000  3
   1449   1448   1447   1451     1  0.0000000  1.2552000  3
   1449   1448   1457   1461     1  0.0000000  0.6508444  3
   1449   1448   1457   1458     1  0.0000000  0.6508444  3
   1449   1448   1457   1459     1  0.0000000  0.6508444  3
   1450   1448   1447   1451     1  0.0000000  1.2552000  3
   1450   1448   1457   1461     1  0.0000000  0.6508444  3
   1450   1448   1457   1458     1  0.0000000  0.6508444  3
   1450   1448   1457   1459     1  0.0000000  0.6508444  3
   1452   1451   1454   1460     1  0.0000000  0.6508444  3
   1452   1451   1454   1455     1  0.0000000  0.6508444  3
   1452   1451   1454   1456     1  0.0000000  0.6508444  3
   1453   1451   1454   1460     1  0.0000000  0.6508444  3
   1453   1451   1454   1455     1  0.0000000  0.6508444  3
   1453   1451   1454   1456     1  0.0000000  0.6508444  3
   1454   1460   2964   2965     1  180.0000771  10.4600000  2
   1455   1454   1460   1462     1  0.0000000  3.3472000  1
   1455   1454   1460   1462     1  0.0000000  0.0000000  2
   1455   1454   1460   1462     1  180.0000771  0.3347200  3
   1455   1454   1460   2964     1  180.0000771  0.0000000  2
   1456   1454   1460   1462     1  0.0000000  3.3472000  1
   1456   1454   1460   1462     1  0.0000000  0.0000000  2
   1456   1454   1460   1462     1  180.0000771  0.3347200  3
   1456   1454   1460   2964     1  180.0000771  0.0000000  2
   1457   1461   2989   2990     1  180.0000771  10.4600000  2
   1458   1457   1461   1463     1  0.0000000  3.3472000  1
   1458   1457   1461   1463     1  0.0000000  0.0000000  2
   1458   1457   1461   1463     1  180.0000771  0.3347200  3
   1458   1457   1461   2989     1  180.0000771  0.0000000  2
   1459   1457   1461   1463     1  0.0000000  3.3472000  1
   1459   1457   1461   1463     1  0.0000000  0.0000000  2
   1459   1457   1461   1463     1  180.0000771  0.3347200  3
   1459   1457   1461   2989     1  180.0000771  0.0000000  2
   1460   2964   2944   2945     1  0.0000000  0.0000000  2
   1460   2964   2944   2946     1  0.0000000  0.0000000  2
   1461   2989   2969   2970     1  0.0000000  0.0000000  2
   1461   2989   2969   2971     1  0.0000000  0.0000000  2
   1462   1460   2964   2965     1  0.0000000  8.3680000  1
   1462   1460   2964   2965     1  180.0000771  10.4600000  2
   1463   1461   2989   2990     1  0.0000000  8.3680000  1
   1463   1461   2989   2990     1  180.0000771  10.4600000  2
   1466   1469   1489   1490     1  0.0000000  0.0000000  2
   1466   1472   1473   1474     1  0.0000000  1.2552000  3
   1466   1472   1473   1475     1  0.0000000  1.2552000  3
   1466   1472   1476   1477     1  0.0000000  1.2552000  3
   1466   1472   1476   1478     1  0.0000000  1.2552000  3
   1467   1466   1469   1489     1  0.0000000  0.6508444  3
   1467   1466   1469   1470     1  0.0000000  0.6508444  3
   1467   1466   1469   1471     1  0.0000000  0.6508444  3
   1467   1466   1472   1473     1  0.0000000  1.2552000  3
   1467   1466   1472   1476     1  0.0000000  1.2552000  3
   1468   1466   1469   1489     1  0.0000000  0.6508444  3
   1468   1466   1469   1470     1  0.0000000  0.6508444  3
   1468   1466   1469   1471     1  0.0000000  0.6508444  3
   1468   1466   1472   1473     1  0.0000000  1.2552000  3
   1468   1466   1472   1476     1  0.0000000  1.2552000  3
   1470   1469   1466   1472     1  0.0000000  0.6508444  3
   1470   1469   1489   1490     1  0.0000000  0.0000000  2
   1471   1469   1466   1472     1  0.0000000  0.6508444  3
   1471   1469   1489   1490     1  0.0000000  0.0000000  2
   1472   1473   1482   1483     1  0.0000000  0.6508444  3
   1472   1473   1482   1484     1  0.0000000  0.6508444  3
   1472   1476   1479   1480     1  0.0000000  0.6508444  3
   1472   1476   1479   1481     1  0.0000000  0.6508444  3
   1473   1472   1476   1477     1  0.0000000  1.2552000  3
   1473   1472   1476   1478     1  0.0000000  1.2552000  3
   1474   1473   1472   1476     1  0.0000000  1.2552000  3
   1474   1473   1482   1486     1  0.0000000  0.6508444  3
   1474   1473   1482   1483     1  0.0000000  0.6508444  3
   1474   1473   1482   1484     1  0.0000000  0.6508444  3
   1475   1473   1472   1476     1  0.0000000  1.2552000  3
   1475   1473   1482   1486     1  0.0000000  0.6508444  3
   1475   1473   1482   1483     1  0.0000000  0.6508444  3
   1475   1473   1482   1484     1  0.0000000  0.6508444  3
   1477   1476   1479   1485     1  0.0000000  0.6508444  3
   1477   1476   1479   1480     1  0.0000000  0.6508444  3
   1477   1476   1479   1481     1  0.0000000  0.6508444  3
   1478   1476   1479   1485     1  0.0000000  0.6508444  3
   1478   1476   1479   1480     1  0.0000000  0.6508444  3
   1478   1476   1479   1481     1  0.0000000  0.6508444  3
   1479   1485   3014   3015     1  180.0000771  10.4600000  2
   1480   1479   1485   1487     1  0.0000000  3.3472000  1
   1480   1479   1485   1487     1  0.0000000  0.0000000  2
   1480   1479   1485   1487     1  180.0000771  0.3347200  3
   1480   1479   1485   3014     1  180.0000771  0.0000000  2
   1481   1479   1485   1487     1  0.0000000  3.3472000  1
   1481   1479   1485   1487     1  0.0000000  0.0000000  2
   1481   1479   1485   1487     1  180.0000771  0.3347200  3
   1481   1479   1485   3014     1  180.0000771  0.0000000  2
   1482   1486   3039   3040     1  180.0000771  10.4600000  2
   1483   1482   1486   1488     1  0.0000000  3.3472000  1
   1483   1482   1486   1488     1  0.0000000  0.0000000  2
   1483   1482   1486   1488     1  180.0000771  0.3347200  3
   1483   1482   1486   3039     1  180.0000771  0.0000000  2
   1484   1482   1486   1488     1  0.0000000  3.3472000  1
   1484   1482   1486   1488     1  0.0000000  0.0000000  2
   1484   1482   1486   1488     1  180.0000771  0.3347200  3
   1484   1482   1486   3039     1  180.0000771  0.0000000  2
   1485   3014   2994   2995     1  0.0000000  0.0000000  2
   1485   3014   2994   2996     1  0.0000000  0.0000000  2
   1486   3039   3019   3020     1  0.0000000  0.0000000  2
   1486   3039   3019   3021     1  0.0000000  0.0000000  2
   1487   1485   3014   3015     1  0.0000000  8.3680000  1
   1487   1485   3014   3015     1  180.0000771  10.4600000  2
   1488   1486   3039   3040     1  0.0000000  8.3680000  1
   1488   1486   3039   3040     1  180.0000771  10.4600000  2
   1491   1494   1514   1515     1  0.0000000  0.0000000  2
   1491   1497   1498   1499     1  0.0000000  1.2552000  3
   1491   1497   1498   1500     1  0.0000000  1.2552000  3
   1491   1497   1501   1502     1  0.0000000  1.2552000  3
   1491   1497   1501   1503     1  0.0000000  1.2552000  3
   1492   1491   1494   1514     1  0.0000000  0.6508444  3
   1492   1491   1494   1495     1  0.0000000  0.6508444  3
   1492   1491   1494   1496     1  0.0000000  0.6508444  3
   1492   1491   1497   1498     1  0.0000000  1.2552000  3
   1492   1491   1497   1501     1  0.0000000  1.2552000  3
   1493   1491   1494   1514     1  0.0000000  0.6508444  3
   1493   1491   1494   1495     1  0.0000000  0.6508444  3
   1493   1491   1494   1496     1  0.0000000  0.6508444  3
   1493   1491   1497   1498     1  0.0000000  1.2552000  3
   1493   1491   1497   1501     1  0.0000000  1.2552000  3
   1495   1494   1491   1497     1  0.0000000  0.6508444  3
   1495   1494   1514   1515     1  0.0000000  0.0000000  2
   1496   1494   1491   1497     1  0.0000000  0.6508444  3
   1496   1494   1514   1515     1  0.0000000  0.0000000  2
   1497   1498   1507   1508     1  0.0000000  0.6508444  3
   1497   1498   1507   1509     1  0.0000000  0.6508444  3
   1497   1501   1504   1505     1  0.0000000  0.6508444  3
   1497   1501   1504   1506     1  0.0000000  0.6508444  3
   1498   1497   1501   1502     1  0.0000000  1.2552000  3
   1498   1497   1501   1503     1  0.0000000  1.2552000  3
   1499   1498   1497   1501     1  0.0000000  1.2552000  3
   1499   1498   1507   1511     1  0.0000000  0.6508444  3
   1499   1498   1507   1508     1  0.0000000  0.6508444  3
   1499   1498   1507   1509     1  0.0000000  0.6508444  3
   1500   1498   1497   1501     1  0.0000000  1.2552000  3
   1500   1498   1507   1511     1  0.0000000  0.6508444  3
   1500   1498   1507   1508     1  0.0000000  0.6508444  3
   1500   1498   1507   1509     1  0.0000000  0.6508444  3
   1502   1501   1504   1510     1  0.0000000  0.6508444  3
   1502   1501   1504   1505     1  0.0000000  0.6508444  3
   1502   1501   1504   1506     1  0.0000000  0.6508444  3
   1503   1501   1504   1510     1  0.0000000  0.6508444  3
   1503   1501   1504   1505     1  0.0000000  0.6508444  3
   1503   1501   1504   1506     1  0.0000000  0.6508444  3
   1504   1510   3064   3065     1  180.0000771  10.4600000  2
   1505   1504   1510   1512     1  0.0000000  3.3472000  1
   1505   1504   1510   1512     1  0.0000000  0.0000000  2
   1505   1504   1510   1512     1  180.0000771  0.3347200  3
   1505   1504   1510   3064     1  180.0000771  0.0000000  2
   1506   1504   1510   1512     1  0.0000000  3.3472000  1
   1506   1504   1510   1512     1  0.0000000  0.0000000  2
   1506   1504   1510   1512     1  180.0000771  0.3347200  3
   1506   1504   1510   3064     1  180.0000771  0.0000000  2
   1507   1511   3089   3090     1  180.0000771  10.4600000  2
   1508   1507   1511   1513     1  0.0000000  3.3472000  1
   1508   1507   1511   1513     1  0.0000000  0.0000000  2
   1508   1507   1511   1513     1  180.0000771  0.3347200  3
   1508   1507   1511   3089     1  180.0000771  0.0000000  2
   1509   1507   1511   1513     1  0.0000000  3.3472000  1
   1509   1507   1511   1513     1  0.0000000  0.0000000  2
   1509   1507   1511   1513     1  180.0000771  0.3347200  3
   1509   1507   1511   3089     1  180.0000771  0.0000000  2
   1510   3064   3044   3045     1  0.0000000  0.0000000  2
   1510   3064   3044   3046     1  0.0000000  0.0000000  2
   1511   3089   3069   3070     1  0.0000000  0.0000000  2
   1511   3089   3069   3071     1  0.0000000  0.0000000  2
   1512   1510   3064   3065     1  0.0000000  8.3680000  1
   1512   1510   3064   3065     1  180.0000771  10.4600000  2
   1513   1511   3089   3090     1  0.0000000  8.3680000  1
   1513   1511   3089   3090     1  180.0000771  10.4600000  2
   1516   1519   1539   1540     1  0.0000000  0.0000000  2
   1516   1522   1523   1524     1  0.0000000  1.2552000  3
   1516   1522   1523   1525     1  0.0000000  1.2552000  3
   1516   1522   1526   1527     1  0.0000000  1.2552000  3
   1516   1522   1526   1528     1  0.0000000  1.2552000  3
   1517   1516   1519   1539     1  0.0000000  0.6508444  3
   1517   1516   1519   1520     1  0.0000000  0.6508444  3
   1517   1516   1519   1521     1  0.0000000  0.6508444  3
   1517   1516   1522   1523     1  0.0000000  1.2552000  3
   1517   1516   1522   1526     1  0.0000000  1.2552000  3
   1518   1516   1519   1539     1  0.0000000  0.6508444  3
   1518   1516   1519   1520     1  0.0000000  0.6508444  3
   1518   1516   1519   1521     1  0.0000000  0.6508444  3
   1518   1516   1522   1523     1  0.0000000  1.2552000  3
   1518   1516   1522   1526     1  0.0000000  1.2552000  3
   1520   1519   1516   1522     1  0.0000000  0.6508444  3
   1520   1519   1539   1540     1  0.0000000  0.0000000  2
   1521   1519   1516   1522     1  0.0000000  0.6508444  3
   1521   1519   1539   1540     1  0.0000000  0.0000000  2
   1522   1523   1532   1533     1  0.0000000  0.6508444  3
   1522   1523   1532   1534     1  0.0000000  0.6508444  3
   1522   1526   1529   1530     1  0.0000000  0.6508444  3
   1522   1526   1529   1531     1  0.0000000  0.6508444  3
   1523   1522   1526   1527     1  0.0000000  1.2552000  3
   1523   1522   1526   1528     1  0.0000000  1.2552000  3
   1524   1523   1522   1526     1  0.0000000  1.2552000  3
   1524   1523   1532   1536     1  0.0000000  0.6508444  3
   1524   1523   1532   1533     1  0.0000000  0.6508444  3
   1524   1523   1532   1534     1  0.0000000  0.6508444  3
   1525   1523   1522   1526     1  0.0000000  1.2552000  3
   1525   1523   1532   1536     1  0.0000000  0.6508444  3
   1525   1523   1532   1533     1  0.0000000  0.6508444  3
   1525   1523   1532   1534     1  0.0000000  0.6508444  3
   1527   1526   1529   1535     1  0.0000000  0.6508444  3
   1527   1526   1529   1530     1  0.0000000  0.6508444  3
   1527   1526   1529   1531     1  0.0000000  0.6508444  3
   1528   1526   1529   1535     1  0.0000000  0.6508444  3
   1528   1526   1529   1530     1  0.0000000  0.6508444  3
   1528   1526   1529   1531     1  0.0000000  0.6508444  3
   1529   1535   3114   3115     1  180.0000771  10.4600000  2
   1530   1529   1535   1537     1  0.0000000  3.3472000  1
   1530   1529   1535   1537     1  0.0000000  0.0000000  2
   1530   1529   1535   1537     1  180.0000771  0.3347200  3
   1530   1529   1535   3114     1  180.0000771  0.0000000  2
   1531   1529   1535   1537     1  0.0000000  3.3472000  1
   1531   1529   1535   1537     1  0.0000000  0.0000000  2
   1531   1529   1535   1537     1  180.0000771  0.3347200  3
   1531   1529   1535   3114     1  180.0000771  0.0000000  2
   1532   1536   3139   3140     1  180.0000771  10.4600000  2
   1533   1532   1536   1538     1  0.0000000  3.3472000  1
   1533   1532   1536   1538     1  0.0000000  0.0000000  2
   1533   1532   1536   1538     1  180.0000771  0.3347200  3
   1533   1532   1536   3139     1  180.0000771  0.0000000  2
   1534   1532   1536   1538     1  0.0000000  3.3472000  1
   1534   1532   1536   1538     1  0.0000000  0.0000000  2
   1534   1532   1536   1538     1  180.0000771  0.3347200  3
   1534   1532   1536   3139     1  180.0000771  0.0000000  2
   1535   3114   3094   3095     1  0.0000000  0.0000000  2
   1535   3114   3094   3096     1  0.0000000  0.0000000  2
   1536   3139   3119   3120     1  0.0000000  0.0000000  2
   1536   3139   3119   3121     1  0.0000000  0.0000000  2
   1537   1535   3114   3115     1  0.0000000  8.3680000  1
   1537   1535   3114   3115     1  180.0000771  10.4600000  2
   1538   1536   3139   3140     1  0.0000000  8.3680000  1
   1538   1536   3139   3140     1  180.0000771  10.4600000  2
   1541   1544   1564   1565     1  0.0000000  0.0000000  2
   1541   1547   1548   1549     1  0.0000000  1.2552000  3
   1541   1547   1548   1550     1  0.0000000  1.2552000  3
   1541   1547   1551   1552     1  0.0000000  1.2552000  3
   1541   1547   1551   1553     1  0.0000000  1.2552000  3
   1542   1541   1544   1564     1  0.0000000  0.6508444  3
   1542   1541   1544   1545     1  0.0000000  0.6508444  3
   1542   1541   1544   1546     1  0.0000000  0.6508444  3
   1542   1541   1547   1548     1  0.0000000  1.2552000  3
   1542   1541   1547   1551     1  0.0000000  1.2552000  3
   1543   1541   1544   1564     1  0.0000000  0.6508444  3
   1543   1541   1544   1545     1  0.0000000  0.6508444  3
   1543   1541   1544   1546     1  0.0000000  0.6508444  3
   1543   1541   1547   1548     1  0.0000000  1.2552000  3
   1543   1541   1547   1551     1  0.0000000  1.2552000  3
   1545   1544   1541   1547     1  0.0000000  0.6508444  3
   1545   1544   1564   1565     1  0.0000000  0.0000000  2
   1546   1544   1541   1547     1  0.0000000  0.6508444  3
   1546   1544   1564   1565     1  0.0000000  0.0000000  2
   1547   1548   1557   1558     1  0.0000000  0.6508444  3
   1547   1548   1557   1559     1  0.0000000  0.6508444  3
   1547   1551   1554   1555     1  0.0000000  0.6508444  3
   1547   1551   1554   1556     1  0.0000000  0.6508444  3
   1548   1547   1551   1552     1  0.0000000  1.2552000  3
   1548   1547   1551   1553     1  0.0000000  1.2552000  3
   1549   1548   1547   1551     1  0.0000000  1.2552000  3
   1549   1548   1557   1561     1  0.0000000  0.6508444  3
   1549   1548   1557   1558     1  0.0000000  0.6508444  3
   1549   1548   1557   1559     1  0.0000000  0.6508444  3
   1550   1548   1547   1551     1  0.0000000  1.2552000  3
   1550   1548   1557   1561     1  0.0000000  0.6508444  3
   1550   1548   1557   1558     1  0.0000000  0.6508444  3
   1550   1548   1557   1559     1  0.0000000  0.6508444  3
   1552   1551   1554   1560     1  0.0000000  0.6508444  3
   1552   1551   1554   1555     1  0.0000000  0.6508444  3
   1552   1551   1554   1556     1  0.0000000  0.6508444  3
   1553   1551   1554   1560     1  0.0000000  0.6508444  3
   1553   1551   1554   1555     1  0.0000000  0.6508444  3
   1553   1551   1554   1556     1  0.0000000  0.6508444  3
   1554   1560   3141   3142     1  180.0000771  10.4600000  2
   1555   1554   1560   3141     1  180.0000771  0.0000000  2
   1555   1554   1560   1562     1  0.0000000  3.3472000  1
   1555   1554   1560   1562     1  0.0000000  0.0000000  2
   1555   1554   1560   1562     1  180.0000771  0.3347200  3
   1556   1554   1560   3141     1  180.0000771  0.0000000  2
   1556   1554   1560   1562     1  0.0000000  3.3472000  1
   1556   1554   1560   1562     1  0.0000000  0.0000000  2
   1556   1554   1560   1562     1  180.0000771  0.3347200  3
   1557   1561   3153   3154     1  180.0000771  10.4600000  2
   1558   1557   1561   1563     1  0.0000000  3.3472000  1
   1558   1557   1561   1563     1  0.0000000  0.0000000  2
   1558   1557   1561   1563     1  180.0000771  0.3347200  3
   1558   1557   1561   3153     1  180.0000771  0.0000000  2
   1559   1557   1561   1563     1  0.0000000  3.3472000  1
   1559   1557   1561   1563     1  0.0000000  0.0000000  2
   1559   1557   1561   1563     1  180.0000771  0.3347200  3
   1559   1557   1561   3153     1  180.0000771  0.0000000  2
   1560   3141   3143   3145     1  0.0000000  0.0000000  2
   1560   3141   3143   3146     1  0.0000000  0.0000000  2
   1561   3153   3155   3157     1  0.0000000  0.0000000  2
   1561   3153   3155   3158     1  0.0000000  0.0000000  2
   1562   1560   3141   3142     1  0.0000000  8.3680000  1
   1562   1560   3141   3142     1  180.0000771  10.4600000  2
   1563   1561   3153   3154     1  0.0000000  8.3680000  1
   1563   1561   3153   3154     1  180.0000771  10.4600000  2
   1566   1569   1589   1590     1  0.0000000  0.0000000  2
   1566   1572   1573   1574     1  0.0000000  1.2552000  3
   1566   1572   1573   1575     1  0.0000000  1.2552000  3
   1566   1572   1576   1577     1  0.0000000  1.2552000  3
   1566   1572   1576   1578     1  0.0000000  1.2552000  3
   1567   1566   1569   1589     1  0.0000000  0.6508444  3
   1567   1566   1569   1570     1  0.0000000  0.6508444  3
   1567   1566   1569   1571     1  0.0000000  0.6508444  3
   1567   1566   1572   1573     1  0.0000000  1.2552000  3
   1567   1566   1572   1576     1  0.0000000  1.2552000  3
   1568   1566   1569   1589     1  0.0000000  0.6508444  3
   1568   1566   1569   1570     1  0.0000000  0.6508444  3
   1568   1566   1569   1571     1  0.0000000  0.6508444  3
   1568   1566   1572   1573     1  0.0000000  1.2552000  3
   1568   1566   1572   1576     1  0.0000000  1.2552000  3
   1570   1569   1566   1572     1  0.0000000  0.6508444  3
   1570   1569   1589   1590     1  0.0000000  0.0000000  2
   1571   1569   1566   1572     1  0.0000000  0.6508444  3
   1571   1569   1589   1590     1  0.0000000  0.0000000  2
   1572   1573   1582   1583     1  0.0000000  0.6508444  3
   1572   1573   1582   1584     1  0.0000000  0.6508444  3
   1572   1576   1579   1580     1  0.0000000  0.6508444  3
   1572   1576   1579   1581     1  0.0000000  0.6508444  3
   1573   1572   1576   1577     1  0.0000000  1.2552000  3
   1573   1572   1576   1578     1  0.0000000  1.2552000  3
   1574   1573   1572   1576     1  0.0000000  1.2552000  3
   1574   1573   1582   1586     1  0.0000000  0.6508444  3
   1574   1573   1582   1583     1  0.0000000  0.6508444  3
   1574   1573   1582   1584     1  0.0000000  0.6508444  3
   1575   1573   1572   1576     1  0.0000000  1.2552000  3
   1575   1573   1582   1586     1  0.0000000  0.6508444  3
   1575   1573   1582   1583     1  0.0000000  0.6508444  3
   1575   1573   1582   1584     1  0.0000000  0.6508444  3
   1577   1576   1579   1585     1  0.0000000  0.6508444  3
   1577   1576   1579   1580     1  0.0000000  0.6508444  3
   1577   1576   1579   1581     1  0.0000000  0.6508444  3
   1578   1576   1579   1585     1  0.0000000  0.6508444  3
   1578   1576   1579   1580     1  0.0000000  0.6508444  3
   1578   1576   1579   1581     1  0.0000000  0.6508444  3
   1579   1585   3165   3166     1  180.0000771  10.4600000  2
   1580   1579   1585   3165     1  180.0000771  0.0000000  2
   1580   1579   1585   1587     1  0.0000000  3.3472000  1
   1580   1579   1585   1587     1  0.0000000  0.0000000  2
   1580   1579   1585   1587     1  180.0000771  0.3347200  3
   1581   1579   1585   3165     1  180.0000771  0.0000000  2
   1581   1579   1585   1587     1  0.0000000  3.3472000  1
   1581   1579   1585   1587     1  0.0000000  0.0000000  2
   1581   1579   1585   1587     1  180.0000771  0.3347200  3
   1582   1586   3177   3178     1  180.0000771  10.4600000  2
   1583   1582   1586   1588     1  0.0000000  3.3472000  1
   1583   1582   1586   1588     1  0.0000000  0.0000000  2
   1583   1582   1586   1588     1  180.0000771  0.3347200  3
   1583   1582   1586   3177     1  180.0000771  0.0000000  2
   1584   1582   1586   1588     1  0.0000000  3.3472000  1
   1584   1582   1586   1588     1  0.0000000  0.0000000  2
   1584   1582   1586   1588     1  180.0000771  0.3347200  3
   1584   1582   1586   3177     1  180.0000771  0.0000000  2
   1585   3165   3167   3169     1  0.0000000  0.0000000  2
   1585   3165   3167   3170     1  0.0000000  0.0000000  2
   1586   3177   3179   3181     1  0.0000000  0.0000000  2
   1586   3177   3179   3182     1  0.0000000  0.0000000  2
   1587   1585   3165   3166     1  0.0000000  8.3680000  1
   1587   1585   3165   3166     1  180.0000771  10.4600000  2
   1588   1586   3177   3178     1  0.0000000  8.3680000  1
   1588   1586   3177   3178     1  180.0000771  10.4600000  2
   1591   1594   1614   1615     1  0.0000000  0.0000000  2
   1591   1597   1598   1599     1  0.0000000  1.2552000  3
   1591   1597   1598   1600     1  0.0000000  1.2552000  3
   1591   1597   1601   1602     1  0.0000000  1.2552000  3
   1591   1597   1601   1603     1  0.0000000  1.2552000  3
   1592   1591   1594   1614     1  0.0000000  0.6508444  3
   1592   1591   1594   1595     1  0.0000000  0.6508444  3
   1592   1591   1594   1596     1  0.0000000  0.6508444  3
   1592   1591   1597   1598     1  0.0000000  1.2552000  3
   1592   1591   1597   1601     1  0.0000000  1.2552000  3
   1593   1591   1594   1614     1  0.0000000  0.6508444  3
   1593   1591   1594   1595     1  0.0000000  0.6508444  3
   1593   1591   1594   1596     1  0.0000000  0.6508444  3
   1593   1591   1597   1598     1  0.0000000  1.2552000  3
   1593   1591   1597   1601     1  0.0000000  1.2552000  3
   1595   1594   1591   1597     1  0.0000000  0.6508444  3
   1595   1594   1614   1615     1  0.0000000  0.0000000  2
   1596   1594   1591   1597     1  0.0000000  0.6508444  3
   1596   1594   1614   1615     1  0.0000000  0.0000000  2
   1597   1598   1607   1608     1  0.0000000  0.6508444  3
   1597   1598   1607   1609     1  0.0000000  0.6508444  3
   1597   1601   1604   1605     1  0.0000000  0.6508444  3
   1597   1601   1604   1606     1  0.0000000  0.6508444  3
   1598   1597   1601   1602     1  0.0000000  1.2552000  3
   1598   1597   1601   1603     1  0.0000000  1.2552000  3
   1599   1598   1597   1601     1  0.0000000  1.2552000  3
   1599   1598   1607   1611     1  0.0000000  0.6508444  3
   1599   1598   1607   1608     1  0.0000000  0.6508444  3
   1599   1598   1607   1609     1  0.0000000  0.6508444  3
   1600   1598   1597   1601     1  0.0000000  1.2552000  3
   1600   1598   1607   1611     1  0.0000000  0.6508444  3
   1600   1598   1607   1608     1  0.0000000  0.6508444  3
   1600   1598   1607   1609     1  0.0000000  0.6508444  3
   1602   1601   1604   1610     1  0.0000000  0.6508444  3
   1602   1601   1604   1605     1  0.0000000  0.6508444  3
   1602   1601   1604   1606     1  0.0000000  0.6508444  3
   1603   1601   1604   1610     1  0.0000000  0.6508444  3
   1603   1601   1604   1605     1  0.0000000  0.6508444  3
   1603   1601   1604   1606     1  0.0000000  0.6508444  3
   1604   1610   3189   3190     1  180.0000771  10.4600000  2
   1605   1604   1610   3189     1  180.0000771  0.0000000  2
   1605   1604   1610   1612     1  0.0000000  3.3472000  1
   1605   1604   1610   1612     1  0.0000000  0.0000000  2
   1605   1604   1610   1612     1  180.0000771  0.3347200  3
   1606   1604   1610   3189     1  180.0000771  0.0000000  2
   1606   1604   1610   1612     1  0.0000000  3.3472000  1
   1606   1604   1610   1612     1  0.0000000  0.0000000  2
   1606   1604   1610   1612     1  180.0000771  0.3347200  3
   1607   1611   3201   3202     1  180.0000771  10.4600000  2
   1608   1607   1611   1613     1  0.0000000  3.3472000  1
   1608   1607   1611   1613     1  0.0000000  0.0000000  2
   1608   1607   1611   1613     1  180.0000771  0.3347200  3
   1608   1607   1611   3201     1  180.0000771  0.0000000  2
   1609   1607   1611   1613     1  0.0000000  3.3472000  1
   1609   1607   1611   1613     1  0.0000000  0.0000000  2
   1609   1607   1611   1613     1  180.0000771  0.3347200  3
   1609   1607   1611   3201     1  180.0000771  0.0000000  2
   1610   3189   3191   3193     1  0.0000000  0.0000000  2
   1610   3189   3191   3194     1  0.0000000  0.0000000  2
   1611   3201   3203   3205     1  0.0000000  0.0000000  2
   1611   3201   3203   3206     1  0.0000000  0.0000000  2
   1612   1610   3189   3190     1  0.0000000  8.3680000  1
   1612   1610   3189   3190     1  180.0000771  10.4600000  2
   1613   1611   3201   3202     1  0.0000000  8.3680000  1
   1613   1611   3201   3202     1  180.0000771  10.4600000  2
   1616   1619   1639   1640     1  0.0000000  0.0000000  2
   1616   1622   1623   1624     1  0.0000000  1.2552000  3
   1616   1622   1623   1625     1  0.0000000  1.2552000  3
   1616   1622   1626   1627     1  0.0000000  1.2552000  3
   1616   1622   1626   1628     1  0.0000000  1.2552000  3
   1617   1616   1619   1639     1  0.0000000  0.6508444  3
   1617   1616   1619   1620     1  0.0000000  0.6508444  3
   1617   1616   1619   1621     1  0.0000000  0.6508444  3
   1617   1616   1622   1623     1  0.0000000  1.2552000  3
   1617   1616   1622   1626     1  0.0000000  1.2552000  3
   1618   1616   1619   1639     1  0.0000000  0.6508444  3
   1618   1616   1619   1620     1  0.0000000  0.6508444  3
   1618   1616   1619   1621     1  0.0000000  0.6508444  3
   1618   1616   1622   1623     1  0.0000000  1.2552000  3
   1618   1616   1622   1626     1  0.0000000  1.2552000  3
   1620   1619   1616   1622     1  0.0000000  0.6508444  3
   1620   1619   1639   1640     1  0.0000000  0.0000000  2
   1621   1619   1616   1622     1  0.0000000  0.6508444  3
   1621   1619   1639   1640     1  0.0000000  0.0000000  2
   1622   1623   1632   1633     1  0.0000000  0.6508444  3
   1622   1623   1632   1634     1  0.0000000  0.6508444  3
   1622   1626   1629   1630     1  0.0000000  0.6508444  3
   1622   1626   1629   1631     1  0.0000000  0.6508444  3
   1623   1622   1626   1627     1  0.0000000  1.2552000  3
   1623   1622   1626   1628     1  0.0000000  1.2552000  3
   1624   1623   1622   1626     1  0.0000000  1.2552000  3
   1624   1623   1632   1636     1  0.0000000  0.6508444  3
   1624   1623   1632   1633     1  0.0000000  0.6508444  3
   1624   1623   1632   1634     1  0.0000000  0.6508444  3
   1625   1623   1622   1626     1  0.0000000  1.2552000  3
   1625   1623   1632   1636     1  0.0000000  0.6508444  3
   1625   1623   1632   1633     1  0.0000000  0.6508444  3
   1625   1623   1632   1634     1  0.0000000  0.6508444  3
   1627   1626   1629   1635     1  0.0000000  0.6508444  3
   1627   1626   1629   1630     1  0.0000000  0.6508444  3
   1627   1626   1629   1631     1  0.0000000  0.6508444  3
   1628   1626   1629   1635     1  0.0000000  0.6508444  3
   1628   1626   1629   1630     1  0.0000000  0.6508444  3
   1628   1626   1629   1631     1  0.0000000  0.6508444  3
   1629   1635   3213   3214     1  180.0000771  10.4600000  2
   1630   1629   1635   3213     1  180.0000771  0.0000000  2
   1630   1629   1635   1637     1  0.0000000  3.3472000  1
   1630   1629   1635   1637     1  0.0000000  0.0000000  2
   1630   1629   1635   1637     1  180.0000771  0.3347200  3
   1631   1629   1635   3213     1  180.0000771  0.0000000  2
   1631   1629   1635   1637     1  0.0000000  3.3472000  1
   1631   1629   1635   1637     1  0.0000000  0.0000000  2
   1631   1629   1635   1637     1  180.0000771  0.3347200  3
   1632   1636   3225   3226     1  180.0000771  10.4600000  2
   1633   1632   1636   1638     1  0.0000000  3.3472000  1
   1633   1632   1636   1638     1  0.0000000  0.0000000  2
   1633   1632   1636   1638     1  180.0000771  0.3347200  3
   1633   1632   1636   3225     1  180.0000771  0.0000000  2
   1634   1632   1636   1638     1  0.0000000  3.3472000  1
   1634   1632   1636   1638     1  0.0000000  0.0000000  2
   1634   1632   1636   1638     1  180.0000771  0.3347200  3
   1634   1632   1636   3225     1  180.0000771  0.0000000  2
   1635   3213   3215   3217     1  0.0000000  0.0000000  2
   1635   3213   3215   3218     1  0.0000000  0.0000000  2
   1636   3225   3227   3229     1  0.0000000  0.0000000  2
   1636   3225   3227   3230     1  0.0000000  0.0000000  2
   1637   1635   3213   3214     1  0.0000000  8.3680000  1
   1637   1635   3213   3214     1  180.0000771  10.4600000  2
   1638   1636   3225   3226     1  0.0000000  8.3680000  1
   1638   1636   3225   3226     1  180.0000771  10.4600000  2
   1641   1644   1664   1665     1  0.0000000  0.0000000  2
   1641   1647   1648   1649     1  0.0000000  1.2552000  3
   1641   1647   1648   1650     1  0.0000000  1.2552000  3
   1641   1647   1651   1652     1  0.0000000  1.2552000  3
   1641   1647   1651   1653     1  0.0000000  1.2552000  3
   1642   1641   1644   1664     1  0.0000000  0.6508444  3
   1642   1641   1644   1645     1  0.0000000  0.6508444  3
   1642   1641   1644   1646     1  0.0000000  0.6508444  3
   1642   1641   1647   1648     1  0.0000000  1.2552000  3
   1642   1641   1647   1651     1  0.0000000  1.2552000  3
   1643   1641   1644   1664     1  0.0000000  0.6508444  3
   1643   1641   1644   1645     1  0.0000000  0.6508444  3
   1643   1641   1644   1646     1  0.0000000  0.6508444  3
   1643   1641   1647   1648     1  0.0000000  1.2552000  3
   1643   1641   1647   1651     1  0.0000000  1.2552000  3
   1645   1644   1641   1647     1  0.0000000  0.6508444  3
   1645   1644   1664   1665     1  0.0000000  0.0000000  2
   1646   1644   1641   1647     1  0.0000000  0.6508444  3
   1646   1644   1664   1665     1  0.0000000  0.0000000  2
   1647   1648   1657   1658     1  0.0000000  0.6508444  3
   1647   1648   1657   1659     1  0.0000000  0.6508444  3
   1647   1651   1654   1655     1  0.0000000  0.6508444  3
   1647   1651   1654   1656     1  0.0000000  0.6508444  3
   1648   1647   1651   1652     1  0.0000000  1.2552000  3
   1648   1647   1651   1653     1  0.0000000  1.2552000  3
   1649   1648   1647   1651     1  0.0000000  1.2552000  3
   1649   1648   1657   1661     1  0.0000000  0.6508444  3
   1649   1648   1657   1658     1  0.0000000  0.6508444  3
   1649   1648   1657   1659     1  0.0000000  0.6508444  3
   1650   1648   1647   1651     1  0.0000000  1.2552000  3
   1650   1648   1657   1661     1  0.0000000  0.6508444  3
   1650   1648   1657   1658     1  0.0000000  0.6508444  3
   1650   1648   1657   1659     1  0.0000000  0.6508444  3
   1652   1651   1654   1660     1  0.0000000  0.6508444  3
   1652   1651   1654   1655     1  0.0000000  0.6508444  3
   1652   1651   1654   1656     1  0.0000000  0.6508444  3
   1653   1651   1654   1660     1  0.0000000  0.6508444  3
   1653   1651   1654   1655     1  0.0000000  0.6508444  3
   1653   1651   1654   1656     1  0.0000000  0.6508444  3
   1654   1660   3237   3238     1  180.0000771  10.4600000  2
   1655   1654   1660   3237     1  180.0000771  0.0000000  2
   1655   1654   1660   1662     1  0.0000000  3.3472000  1
   1655   1654   1660   1662     1  0.0000000  0.0000000  2
   1655   1654   1660   1662     1  180.0000771  0.3347200  3
   1656   1654   1660   3237     1  180.0000771  0.0000000  2
   1656   1654   1660   1662     1  0.0000000  3.3472000  1
   1656   1654   1660   1662     1  0.0000000  0.0000000  2
   1656   1654   1660   1662     1  180.0000771  0.3347200  3
   1657   1661   3249   3250     1  180.0000771  10.4600000  2
   1658   1657   1661   1663     1  0.0000000  3.3472000  1
   1658   1657   1661   1663     1  0.0000000  0.0000000  2
   1658   1657   1661   1663     1  180.0000771  0.3347200  3
   1658   1657   1661   3249     1  180.0000771  0.0000000  2
   1659   1657   1661   1663     1  0.0000000  3.3472000  1
   1659   1657   1661   1663     1  0.0000000  0.0000000  2
   1659   1657   1661   1663     1  180.0000771  0.3347200  3
   1659   1657   1661   3249     1  180.0000771  0.0000000  2
   1660   3237   3239   3241     1  0.0000000  0.0000000  2
   1660   3237   3239   3242     1  0.0000000  0.0000000  2
   1661   3249   3251   3253     1  0.0000000  0.0000000  2
   1661   3249   3251   3254     1  0.0000000  0.0000000  2
   1662   1660   3237   3238     1  0.0000000  8.3680000  1
   1662   1660   3237   3238     1  180.0000771  10.4600000  2
   1663   1661   3249   3250     1  0.0000000  8.3680000  1
   1663   1661   3249   3250     1  180.0000771  10.4600000  2
   1666   1669   1689   1690     1  0.0000000  0.0000000  2
   1666   1672   1673   1674     1  0.0000000  1.2552000  3
   1666   1672   1673   1675     1  0.0000000  1.2552000  3
   1666   1672   1676   1677     1  0.0000000  1.2552000  3
   1666   1672   1676   1678     1  0.0000000  1.2552000  3
   1667   1666   1669   1689     1  0.0000000  0.6508444  3
   1667   1666   1669   1670     1  0.0000000  0.6508444  3
   1667   1666   1669   1671     1  0.0000000  0.6508444  3
   1667   1666   1672   1673     1  0.0000000  1.2552000  3
   1667   1666   1672   1676     1  0.0000000  1.2552000  3
   1668   1666   1669   1689     1  0.0000000  0.6508444  3
   1668   1666   1669   1670     1  0.0000000  0.6508444  3
   1668   1666   1669   1671     1  0.0000000  0.6508444  3
   1668   1666   1672   1673     1  0.0000000  1.2552000  3
   1668   1666   1672   1676     1  0.0000000  1.2552000  3
   1670   1669   1666   1672     1  0.0000000  0.6508444  3
   1670   1669   1689   1690     1  0.0000000  0.0000000  2
   1671   1669   1666   1672     1  0.0000000  0.6508444  3
   1671   1669   1689   1690     1  0.0000000  0.0000000  2
   1672   1673   1682   1683     1  0.0000000  0.6508444  3
   1672   1673   1682   1684     1  0.0000000  0.6508444  3
   1672   1676   1679   1680     1  0.0000000  0.6508444  3
   1672   1676   1679   1681     1  0.0000000  0.6508444  3
   1673   1672   1676   1677     1  0.0000000  1.2552000  3
   1673   1672   1676   1678     1  0.0000000  1.2552000  3
   1674   1673   1672   1676     1  0.0000000  1.2552000  3
   1674   1673   1682   1686     1  0.0000000  0.6508444  3
   1674   1673   1682   1683     1  0.0000000  0.6508444  3
   1674   1673   1682   1684     1  0.0000000  0.6508444  3
   1675   1673   1672   1676     1  0.0000000  1.2552000  3
   1675   1673   1682   1686     1  0.0000000  0.6508444  3
   1675   1673   1682   1683     1  0.0000000  0.6508444  3
   1675   1673   1682   1684     1  0.0000000  0.6508444  3
   1677   1676   1679   1685     1  0.0000000  0.6508444  3
   1677   1676   1679   1680     1  0.0000000  0.6508444  3
   1677   1676   1679   1681     1  0.0000000  0.6508444  3
   1678   1676   1679   1685     1  0.0000000  0.6508444  3
   1678   1676   1679   1680     1  0.0000000  0.6508444  3
   1678   1676   1679   1681     1  0.0000000  0.6508444  3
   1679   1685   3261   3262     1  180.0000771  10.4600000  2
   1680   1679   1685   3261     1  180.0000771  0.0000000  2
   1680   1679   1685   1687     1  0.0000000  3.3472000  1
   1680   1679   1685   1687     1  0.0000000  0.0000000  2
   1680   1679   1685   1687     1  180.0000771  0.3347200  3
   1681   1679   1685   3261     1  180.0000771  0.0000000  2
   1681   1679   1685   1687     1  0.0000000  3.3472000  1
   1681   1679   1685   1687     1  0.0000000  0.0000000  2
   1681   1679   1685   1687     1  180.0000771  0.3347200  3
   1682   1686   3273   3274     1  180.0000771  10.4600000  2
   1683   1682   1686   1688     1  0.0000000  3.3472000  1
   1683   1682   1686   1688     1  0.0000000  0.0000000  2
   1683   1682   1686   1688     1  180.0000771  0.3347200  3
   1683   1682   1686   3273     1  180.0000771  0.0000000  2
   1684   1682   1686   1688     1  0.0000000  3.3472000  1
   1684   1682   1686   1688     1  0.0000000  0.0000000  2
   1684   1682   1686   1688     1  180.0000771  0.3347200  3
   1684   1682   1686   3273     1  180.0000771  0.0000000  2
   1685   3261   3263   3265     1  0.0000000  0.0000000  2
   1685   3261   3263   3266     1  0.0000000  0.0000000  2
   1686   3273   3275   3277     1  0.0000000  0.0000000  2
   1686   3273   3275   3278     1  0.0000000  0.0000000  2
   1687   1685   3261   3262     1  0.0000000  8.3680000  1
   1687   1685   3261   3262     1  180.0000771  10.4600000  2
   1688   1686   3273   3274     1  0.0000000  8.3680000  1
   1688   1686   3273   3274     1  180.0000771  10.4600000  2
   1691   1694   1714   1715     1  0.0000000  0.0000000  2
   1691   1697   1698   1699     1  0.0000000  1.2552000  3
   1691   1697   1698   1700     1  0.0000000  1.2552000  3
   1691   1697   1701   1702     1  0.0000000  1.2552000  3
   1691   1697   1701   1703     1  0.0000000  1.2552000  3
   1692   1691   1694   1714     1  0.0000000  0.6508444  3
   1692   1691   1694   1695     1  0.0000000  0.6508444  3
   1692   1691   1694   1696     1  0.0000000  0.6508444  3
   1692   1691   1697   1698     1  0.0000000  1.2552000  3
   1692   1691   1697   1701     1  0.0000000  1.2552000  3
   1693   1691   1694   1714     1  0.0000000  0.6508444  3
   1693   1691   1694   1695     1  0.0000000  0.6508444  3
   1693   1691   1694   1696     1  0.0000000  0.6508444  3
   1693   1691   1697   1698     1  0.0000000  1.2552000  3
   1693   1691   1697   1701     1  0.0000000  1.2552000  3
   1695   1694   1691   1697     1  0.0000000  0.6508444  3
   1695   1694   1714   1715     1  0.0000000  0.0000000  2
   1696   1694   1691   1697     1  0.0000000  0.6508444  3
   1696   1694   1714   1715     1  0.0000000  0.0000000  2
   1697   1698   1707   1708     1  0.0000000  0.6508444  3
   1697   1698   1707   1709     1  0.0000000  0.6508444  3
   1697   1701   1704   1705     1  0.0000000  0.6508444  3
   1697   1701   1704   1706     1  0.0000000  0.6508444  3
   1698   1697   1701   1702     1  0.0000000  1.2552000  3
   1698   1697   1701   1703     1  0.0000000  1.2552000  3
   1699   1698   1697   1701     1  0.0000000  1.2552000  3
   1699   1698   1707   1711     1  0.0000000  0.6508444  3
   1699   1698   1707   1708     1  0.0000000  0.6508444  3
   1699   1698   1707   1709     1  0.0000000  0.6508444  3
   1700   1698   1697   1701     1  0.0000000  1.2552000  3
   1700   1698   1707   1711     1  0.0000000  0.6508444  3
   1700   1698   1707   1708     1  0.0000000  0.6508444  3
   1700   1698   1707   1709     1  0.0000000  0.6508444  3
   1702   1701   1704   1710     1  0.0000000  0.6508444  3
   1702   1701   1704   1705     1  0.0000000  0.6508444  3
   1702   1701   1704   1706     1  0.0000000  0.6508444  3
   1703   1701   1704   1710     1  0.0000000  0.6508444  3
   1703   1701   1704   1705     1  0.0000000  0.6508444  3
   1703   1701   1704   1706     1  0.0000000  0.6508444  3
   1704   1710   3285   3286     1  180.0000771  10.4600000  2
   1705   1704   1710   3285     1  180.0000771  0.0000000  2
   1705   1704   1710   1712     1  0.0000000  3.3472000  1
   1705   1704   1710   1712     1  0.0000000  0.0000000  2
   1705   1704   1710   1712     1  180.0000771  0.3347200  3
   1706   1704   1710   3285     1  180.0000771  0.0000000  2
   1706   1704   1710   1712     1  0.0000000  3.3472000  1
   1706   1704   1710   1712     1  0.0000000  0.0000000  2
   1706   1704   1710   1712     1  180.0000771  0.3347200  3
   1707   1711   3297   3298     1  180.0000771  10.4600000  2
   1708   1707   1711   1713     1  0.0000000  3.3472000  1
   1708   1707   1711   1713     1  0.0000000  0.0000000  2
   1708   1707   1711   1713     1  180.0000771  0.3347200  3
   1708   1707   1711   3297     1  180.0000771  0.0000000  2
   1709   1707   1711   1713     1  0.0000000  3.3472000  1
   1709   1707   1711   1713     1  0.0000000  0.0000000  2
   1709   1707   1711   1713     1  180.0000771  0.3347200  3
   1709   1707   1711   3297     1  180.0000771  0.0000000  2
   1710   3285   3287   3289     1  0.0000000  0.0000000  2
   1710   3285   3287   3290     1  0.0000000  0.0000000  2
   1711   3297   3299   3301     1  0.0000000  0.0000000  2
   1711   3297   3299   3302     1  0.0000000  0.0000000  2
   1712   1710   3285   3286     1  0.0000000  8.3680000  1
   1712   1710   3285   3286     1  180.0000771  10.4600000  2
   1713   1711   3297   3298     1  0.0000000  8.3680000  1
   1713   1711   3297   3298     1  180.0000771  10.4600000  2
   1716   1719   1739   1740     1  0.0000000  0.0000000  2
   1716   1722   1723   1724     1  0.0000000  1.2552000  3
   1716   1722   1723   1725     1  0.0000000  1.2552000  3
   1716   1722   1726   1727     1  0.0000000  1.2552000  3
   1716   1722   1726   1728     1  0.0000000  1.2552000  3
   1717   1716   1719   1739     1  0.0000000  0.6508444  3
   1717   1716   1719   1720     1  0.0000000  0.6508444  3
   1717   1716   1719   1721     1  0.0000000  0.6508444  3
   1717   1716   1722   1723     1  0.0000000  1.2552000  3
   1717   1716   1722   1726     1  0.0000000  1.2552000  3
   1718   1716   1719   1739     1  0.0000000  0.6508444  3
   1718   1716   1719   1720     1  0.0000000  0.6508444  3
   1718   1716   1719   1721     1  0.0000000  0.6508444  3
   1718   1716   1722   1723     1  0.0000000  1.2552000  3
   1718   1716   1722   1726     1  0.0000000  1.2552000  3
   1720   1719   1716   1722     1  0.0000000  0.6508444  3
   1720   1719   1739   1740     1  0.0000000  0.0000000  2
   1721   1719   1716   1722     1  0.0000000  0.6508444  3
   1721   1719   1739   1740     1  0.0000000  0.0000000  2
   1722   1723   1732   1733     1  0.0000000  0.6508444  3
   1722   1723   1732   1734     1  0.0000000  0.6508444  3
   1722   1726   1729   1730     1  0.0000000  0.6508444  3
   1722   1726   1729   1731     1  0.0000000  0.6508444  3
   1723   1722   1726   1727     1  0.0000000  1.2552000  3
   1723   1722   1726   1728     1  0.0000000  1.2552000  3
   1724   1723   1722   1726     1  0.0000000  1.2552000  3
   1724   1723   1732   1736     1  0.0000000  0.6508444  3
   1724   1723   1732   1733     1  0.0000000  0.6508444  3
   1724   1723   1732   1734     1  0.0000000  0.6508444  3
   1725   1723   1722   1726     1  0.0000000  1.2552000  3
   1725   1723   1732   1736     1  0.0000000  0.6508444  3
   1725   1723   1732   1733     1  0.0000000  0.6508444  3
   1725   1723   1732   1734     1  0.0000000  0.6508444  3
   1727   1726   1729   1735     1  0.0000000  0.6508444  3
   1727   1726   1729   1730     1  0.0000000  0.6508444  3
   1727   1726   1729   1731     1  0.0000000  0.6508444  3
   1728   1726   1729   1735     1  0.0000000  0.6508444  3
   1728   1726   1729   1730     1  0.0000000  0.6508444  3
   1728   1726   1729   1731     1  0.0000000  0.6508444  3
   1729   1735   3309   3310     1  180.0000771  10.4600000  2
   1730   1729   1735   3309     1  180.0000771  0.0000000  2
   1730   1729   1735   1737     1  0.0000000  3.3472000  1
   1730   1729   1735   1737     1  0.0000000  0.0000000  2
   1730   1729   1735   1737     1  180.0000771  0.3347200  3
   1731   1729   1735   3309     1  180.0000771  0.0000000  2
   1731   1729   1735   1737     1  0.0000000  3.3472000  1
   1731   1729   1735   1737     1  0.0000000  0.0000000  2
   1731   1729   1735   1737     1  180.0000771  0.3347200  3
   1732   1736   3321   3322     1  180.0000771  10.4600000  2
   1733   1732   1736   1738     1  0.0000000  3.3472000  1
   1733   1732   1736   1738     1  0.0000000  0.0000000  2
   1733   1732   1736   1738     1  180.0000771  0.3347200  3
   1733   1732   1736   3321     1  180.0000771  0.0000000  2
   1734   1732   1736   1738     1  0.0000000  3.3472000  1
   1734   1732   1736   1738     1  0.0000000  0.0000000  2
   1734   1732   1736   1738     1  180.0000771  0.3347200  3
   1734   1732   1736   3321     1  180.0000771  0.0000000  2
   1735   3309   3311   3313     1  0.0000000  0.0000000  2
   1735   3309   3311   3314     1  0.0000000  0.0000000  2
   1736   3321   3323   3325     1  0.0000000  0.0000000  2
   1736   3321   3323   3326     1  0.0000000  0.0000000  2
   1737   1735   3309   3310     1  0.0000000  8.3680000  1
   1737   1735   3309   3310     1  180.0000771  10.4600000  2
   1738   1736   3321   3322     1  0.0000000  8.3680000  1
   1738   1736   3321   3322     1  180.0000771  10.4600000  2
   1741   1744   1764   1765     1  0.0000000  0.0000000  2
   1741   1747   1748   1749     1  0.0000000  1.2552000  3
   1741   1747   1748   1750     1  0.0000000  1.2552000  3
   1741   1747   1751   1752     1  0.0000000  1.2552000  3
   1741   1747   1751   1753     1  0.0000000  1.2552000  3
   1742   1741   1744   1764     1  0.0000000  0.6508444  3
   1742   1741   1744   1745     1  0.0000000  0.6508444  3
   1742   1741   1744   1746     1  0.0000000  0.6508444  3
   1742   1741   1747   1748     1  0.0000000  1.2552000  3
   1742   1741   1747   1751     1  0.0000000  1.2552000  3
   1743   1741   1744   1764     1  0.0000000  0.6508444  3
   1743   1741   1744   1745     1  0.0000000  0.6508444  3
   1743   1741   1744   1746     1  0.0000000  0.6508444  3
   1743   1741   1747   1748     1  0.0000000  1.2552000  3
   1743   1741   1747   1751     1  0.0000000  1.2552000  3
   1745   1744   1741   1747     1  0.0000000  0.6508444  3
   1745   1744   1764   1765     1  0.0000000  0.0000000  2
   1746   1744   1741   1747     1  0.0000000  0.6508444  3
   1746   1744   1764   1765     1  0.0000000  0.0000000  2
   1747   1748   1757   1758     1  0.0000000  0.6508444  3
   1747   1748   1757   1759     1  0.0000000  0.6508444  3
   1747   1751   1754   1755     1  0.0000000  0.6508444  3
   1747   1751   1754   1756     1  0.0000000  0.6508444  3
   1748   1747   1751   1752     1  0.0000000  1.2552000  3
   1748   1747   1751   1753     1  0.0000000  1.2552000  3
   1749   1748   1747   1751     1  0.0000000  1.2552000  3
   1749   1748   1757   1761     1  0.0000000  0.6508444  3
   1749   1748   1757   1758     1  0.0000000  0.6508444  3
   1749   1748   1757   1759     1  0.0000000  0.6508444  3
   1750   1748   1747   1751     1  0.0000000  1.2552000  3
   1750   1748   1757   1761     1  0.0000000  0.6508444  3
   1750   1748   1757   1758     1  0.0000000  0.6508444  3
   1750   1748   1757   1759     1  0.0000000  0.6508444  3
   1752   1751   1754   1760     1  0.0000000  0.6508444  3
   1752   1751   1754   1755     1  0.0000000  0.6508444  3
   1752   1751   1754   1756     1  0.0000000  0.6508444  3
   1753   1751   1754   1760     1  0.0000000  0.6508444  3
   1753   1751   1754   1755     1  0.0000000  0.6508444  3
   1753   1751   1754   1756     1  0.0000000  0.6508444  3
   1754   1760   3333   3334     1  180.0000771  10.4600000  2
   1755   1754   1760   3333     1  180.0000771  0.0000000  2
   1755   1754   1760   1762     1  0.0000000  3.3472000  1
   1755   1754   1760   1762     1  0.0000000  0.0000000  2
   1755   1754   1760   1762     1  180.0000771  0.3347200  3
   1756   1754   1760   3333     1  180.0000771  0.0000000  2
   1756   1754   1760   1762     1  0.0000000  3.3472000  1
   1756   1754   1760   1762     1  0.0000000  0.0000000  2
   1756   1754   1760   1762     1  180.0000771  0.3347200  3
   1757   1761   3345   3346     1  180.0000771  10.4600000  2
   1758   1757   1761   1763     1  0.0000000  3.3472000  1
   1758   1757   1761   1763     1  0.0000000  0.0000000  2
   1758   1757   1761   1763     1  180.0000771  0.3347200  3
   1758   1757   1761   3345     1  180.0000771  0.0000000  2
   1759   1757   1761   1763     1  0.0000000  3.3472000  1
   1759   1757   1761   1763     1  0.0000000  0.0000000  2
   1759   1757   1761   1763     1  180.0000771  0.3347200  3
   1759   1757   1761   3345     1  180.0000771  0.0000000  2
   1760   3333   3335   3337     1  0.0000000  0.0000000  2
   1760   3333   3335   3338     1  0.0000000  0.0000000  2
   1761   3345   3347   3349     1  0.0000000  0.0000000  2
   1761   3345   3347   3350     1  0.0000000  0.0000000  2
   1762   1760   3333   3334     1  0.0000000  8.3680000  1
   1762   1760   3333   3334     1  180.0000771  10.4600000  2
   1763   1761   3345   3346     1  0.0000000  8.3680000  1
   1763   1761   3345   3346     1  180.0000771  10.4600000  2
   1766   1769   1789   1790     1  0.0000000  0.0000000  2
   1766   1772   1773   1774     1  0.0000000  1.2552000  3
   1766   1772   1773   1775     1  0.0000000  1.2552000  3
   1766   1772   1776   1777     1  0.0000000  1.2552000  3
   1766   1772   1776   1778     1  0.0000000  1.2552000  3
   1767   1766   1769   1789     1  0.0000000  0.6508444  3
   1767   1766   1769   1770     1  0.0000000  0.6508444  3
   1767   1766   1769   1771     1  0.0000000  0.6508444  3
   1767   1766   1772   1773     1  0.0000000  1.2552000  3
   1767   1766   1772   1776     1  0.0000000  1.2552000  3
   1768   1766   1769   1789     1  0.0000000  0.6508444  3
   1768   1766   1769   1770     1  0.0000000  0.6508444  3
   1768   1766   1769   1771     1  0.0000000  0.6508444  3
   1768   1766   1772   1773     1  0.0000000  1.2552000  3
   1768   1766   1772   1776     1  0.0000000  1.2552000  3
   1770   1769   1766   1772     1  0.0000000  0.6508444  3
   1770   1769   1789   1790     1  0.0000000  0.0000000  2
   1771   1769   1766   1772     1  0.0000000  0.6508444  3
   1771   1769   1789   1790     1  0.0000000  0.0000000  2
   1772   1773   1782   1783     1  0.0000000  0.6508444  3
   1772   1773   1782   1784     1  0.0000000  0.6508444  3
   1772   1776   1779   1780     1  0.0000000  0.6508444  3
   1772   1776   1779   1781     1  0.0000000  0.6508444  3
   1773   1772   1776   1777     1  0.0000000  1.2552000  3
   1773   1772   1776   1778     1  0.0000000  1.2552000  3
   1774   1773   1772   1776     1  0.0000000  1.2552000  3
   1774   1773   1782   1786     1  0.0000000  0.6508444  3
   1774   1773   1782   1783     1  0.0000000  0.6508444  3
   1774   1773   1782   1784     1  0.0000000  0.6508444  3
   1775   1773   1772   1776     1  0.0000000  1.2552000  3
   1775   1773   1782   1786     1  0.0000000  0.6508444  3
   1775   1773   1782   1783     1  0.0000000  0.6508444  3
   1775   1773   1782   1784     1  0.0000000  0.6508444  3
   1777   1776   1779   1785     1  0.0000000  0.6508444  3
   1777   1776   1779   1780     1  0.0000000  0.6508444  3
   1777   1776   1779   1781     1  0.0000000  0.6508444  3
   1778   1776   1779   1785     1  0.0000000  0.6508444  3
   1778   1776   1779   1780     1  0.0000000  0.6508444  3
   1778   1776   1779   1781     1  0.0000000  0.6508444  3
   1779   1785   3357   3358     1  180.0000771  10.4600000  2
   1780   1779   1785   3357     1  180.0000771  0.0000000  2
   1780   1779   1785   1787     1  0.0000000  3.3472000  1
   1780   1779   1785   1787     1  0.0000000  0.0000000  2
   1780   1779   1785   1787     1  180.0000771  0.3347200  3
   1781   1779   1785   3357     1  180.0000771  0.0000000  2
   1781   1779   1785   1787     1  0.0000000  3.3472000  1
   1781   1779   1785   1787     1  0.0000000  0.0000000  2
   1781   1779   1785   1787     1  180.0000771  0.3347200  3
   1782   1786   3369   3370     1  180.0000771  10.4600000  2
   1783   1782   1786   1788     1  0.0000000  3.3472000  1
   1783   1782   1786   1788     1  0.0000000  0.0000000  2
   1783   1782   1786   1788     1  180.0000771  0.3347200  3
   1783   1782   1786   3369     1  180.0000771  0.0000000  2
   1784   1782   1786   1788     1  0.0000000  3.3472000  1
   1784   1782   1786   1788     1  0.0000000  0.0000000  2
   1784   1782   1786   1788     1  180.0000771  0.3347200  3
   1784   1782   1786   3369     1  180.0000771  0.0000000  2
   1785   3357   3359   3361     1  0.0000000  0.0000000  2
   1785   3357   3359   3362     1  0.0000000  0.0000000  2
   1786   3369   3371   3373     1  0.0000000  0.0000000  2
   1786   3369   3371   3374     1  0.0000000  0.0000000  2
   1787   1785   3357   3358     1  0.0000000  8.3680000  1
   1787   1785   3357   3358     1  180.0000771  10.4600000  2
   1788   1786   3369   3370     1  0.0000000  8.3680000  1
   1788   1786   3369   3370     1  180.0000771  10.4600000  2
   1791   1794   1814   1815     1  0.0000000  0.0000000  2
   1791   1797   1798   1799     1  0.0000000  1.2552000  3
   1791   1797   1798   1800     1  0.0000000  1.2552000  3
   1791   1797   1801   1802     1  0.0000000  1.2552000  3
   1791   1797   1801   1803     1  0.0000000  1.2552000  3
   1792   1791   1794   1814     1  0.0000000  0.6508444  3
   1792   1791   1794   1795     1  0.0000000  0.6508444  3
   1792   1791   1794   1796     1  0.0000000  0.6508444  3
   1792   1791   1797   1798     1  0.0000000  1.2552000  3
   1792   1791   1797   1801     1  0.0000000  1.2552000  3
   1793   1791   1794   1814     1  0.0000000  0.6508444  3
   1793   1791   1794   1795     1  0.0000000  0.6508444  3
   1793   1791   1794   1796     1  0.0000000  0.6508444  3
   1793   1791   1797   1798     1  0.0000000  1.2552000  3
   1793   1791   1797   1801     1  0.0000000  1.2552000  3
   1795   1794   1791   1797     1  0.0000000  0.6508444  3
   1795   1794   1814   1815     1  0.0000000  0.0000000  2
   1796   1794   1791   1797     1  0.0000000  0.6508444  3
   1796   1794   1814   1815     1  0.0000000  0.0000000  2
   1797   1798   1807   1808     1  0.0000000  0.6508444  3
   1797   1798   1807   1809     1  0.0000000  0.6508444  3
   1797   1801   1804   1805     1  0.0000000  0.6508444  3
   1797   1801   1804   1806     1  0.0000000  0.6508444  3
   1798   1797   1801   1802     1  0.0000000  1.2552000  3
   1798   1797   1801   1803     1  0.0000000  1.2552000  3
   1799   1798   1797   1801     1  0.0000000  1.2552000  3
   1799   1798   1807   1811     1  0.0000000  0.6508444  3
   1799   1798   1807   1808     1  0.0000000  0.6508444  3
   1799   1798   1807   1809     1  0.0000000  0.6508444  3
   1800   1798   1797   1801     1  0.0000000  1.2552000  3
   1800   1798   1807   1811     1  0.0000000  0.6508444  3
   1800   1798   1807   1808     1  0.0000000  0.6508444  3
   1800   1798   1807   1809     1  0.0000000  0.6508444  3
   1802   1801   1804   1810     1  0.0000000  0.6508444  3
   1802   1801   1804   1805     1  0.0000000  0.6508444  3
   1802   1801   1804   1806     1  0.0000000  0.6508444  3
   1803   1801   1804   1810     1  0.0000000  0.6508444  3
   1803   1801   1804   1805     1  0.0000000  0.6508444  3
   1803   1801   1804   1806     1  0.0000000  0.6508444  3
   1804   1810   3381   3382     1  180.0000771  10.4600000  2
   1805   1804   1810   3381     1  180.0000771  0.0000000  2
   1805   1804   1810   1812     1  0.0000000  3.3472000  1
   1805   1804   1810   1812     1  0.0000000  0.0000000  2
   1805   1804   1810   1812     1  180.0000771  0.3347200  3
   1806   1804   1810   3381     1  180.0000771  0.0000000  2
   1806   1804   1810   1812     1  0.0000000  3.3472000  1
   1806   1804   1810   1812     1  0.0000000  0.0000000  2
   1806   1804   1810   1812     1  180.0000771  0.3347200  3
   1807   1811   3393   3394     1  180.0000771  10.4600000  2
   1808   1807   1811   1813     1  0.0000000  3.3472000  1
   1808   1807   1811   1813     1  0.0000000  0.0000000  2
   1808   1807   1811   1813     1  180.0000771  0.3347200  3
   1808   1807   1811   3393     1  180.0000771  0.0000000  2
   1809   1807   1811   1813     1  0.0000000  3.3472000  1
   1809   1807   1811   1813     1  0.0000000  0.0000000  2
   1809   1807   1811   1813     1  180.0000771  0.3347200  3
   1809   1807   1811   3393     1  180.0000771  0.0000000  2
   1810   3381   3383   3385     1  0.0000000  0.0000000  2
   1810   3381   3383   3386     1  0.0000000  0.0000000  2
   1811   3393   3395   3397     1  0.0000000  0.0000000  2
   1811   3393   3395   3398     1  0.0000000  0.0000000  2
   1812   1810   3381   3382     1  0.0000000  8.3680000  1
   1812   1810   3381   3382     1  180.0000771  10.4600000  2
   1813   1811   3393   3394     1  0.0000000  8.3680000  1
   1813   1811   3393   3394     1  180.0000771  10.4600000  2
   1816   1819   1839   1840     1  0.0000000  0.0000000  2
   1816   1822   1823   1824     1  0.0000000  1.2552000  3
   1816   1822   1823   1825     1  0.0000000  1.2552000  3
   1816   1822   1826   1827     1  0.0000000  1.2552000  3
   1816   1822   1826   1828     1  0.0000000  1.2552000  3
   1817   1816   1819   1839     1  0.0000000  0.6508444  3
   1817   1816   1819   1820     1  0.0000000  0.6508444  3
   1817   1816   1819   1821     1  0.0000000  0.6508444  3
   1817   1816   1822   1823     1  0.0000000  1.2552000  3
   1817   1816   1822   1826     1  0.0000000  1.2552000  3
   1818   1816   1819   1839     1  0.0000000  0.6508444  3
   1818   1816   1819   1820     1  0.0000000  0.6508444  3
   1818   1816   1819   1821     1  0.0000000  0.6508444  3
   1818   1816   1822   1823     1  0.0000000  1.2552000  3
   1818   1816   1822   1826     1  0.0000000  1.2552000  3
   1820   1819   1816   1822     1  0.0000000  0.6508444  3
   1820   1819   1839   1840     1  0.0000000  0.0000000  2
   1821   1819   1816   1822     1  0.0000000  0.6508444  3
   1821   1819   1839   1840     1  0.0000000  0.0000000  2
   1822   1823   1832   1833     1  0.0000000  0.6508444  3
   1822   1823   1832   1834     1  0.0000000  0.6508444  3
   1822   1826   1829   1830     1  0.0000000  0.6508444  3
   1822   1826   1829   1831     1  0.0000000  0.6508444  3
   1823   1822   1826   1827     1  0.0000000  1.2552000  3
   1823   1822   1826   1828     1  0.0000000  1.2552000  3
   1824   1823   1822   1826     1  0.0000000  1.2552000  3
   1824   1823   1832   1836     1  0.0000000  0.6508444  3
   1824   1823   1832   1833     1  0.0000000  0.6508444  3
   1824   1823   1832   1834     1  0.0000000  0.6508444  3
   1825   1823   1822   1826     1  0.0000000  1.2552000  3
   1825   1823   1832   1836     1  0.0000000  0.6508444  3
   1825   1823   1832   1833     1  0.0000000  0.6508444  3
   1825   1823   1832   1834     1  0.0000000  0.6508444  3
   1827   1826   1829   1835     1  0.0000000  0.6508444  3
   1827   1826   1829   1830     1  0.0000000  0.6508444  3
   1827   1826   1829   1831     1  0.0000000  0.6508444  3
   1828   1826   1829   1835     1  0.0000000  0.6508444  3
   1828   1826   1829   1830     1  0.0000000  0.6508444  3
   1828   1826   1829   1831     1  0.0000000  0.6508444  3
   1829   1835   3405   3406     1  180.0000771  10.4600000  2
   1830   1829   1835   3405     1  180.0000771  0.0000000  2
   1830   1829   1835   1837     1  0.0000000  3.3472000  1
   1830   1829   1835   1837     1  0.0000000  0.0000000  2
   1830   1829   1835   1837     1  180.0000771  0.3347200  3
   1831   1829   1835   3405     1  180.0000771  0.0000000  2
   1831   1829   1835   1837     1  0.0000000  3.3472000  1
   1831   1829   1835   1837     1  0.0000000  0.0000000  2
   1831   1829   1835   1837     1  180.0000771  0.3347200  3
   1832   1836   3417   3418     1  180.0000771  10.4600000  2
   1833   1832   1836   1838     1  0.0000000  3.3472000  1
   1833   1832   1836   1838     1  0.0000000  0.0000000  2
   1833   1832   1836   1838     1  180.0000771  0.3347200  3
   1833   1832   1836   3417     1  180.0000771  0.0000000  2
   1834   1832   1836   1838     1  0.0000000  3.3472000  1
   1834   1832   1836   1838     1  0.0000000  0.0000000  2
   1834   1832   1836   1838     1  180.0000771  0.3347200  3
   1834   1832   1836   3417     1  180.0000771  0.0000000  2
   1835   3405   3407   3409     1  0.0000000  0.0000000  2
   1835   3405   3407   3410     1  0.0000000  0.0000000  2
   1836   3417   3419   3421     1  0.0000000  0.0000000  2
   1836   3417   3419   3422     1  0.0000000  0.0000000  2
   1837   1835   3405   3406     1  0.0000000  8.3680000  1
   1837   1835   3405   3406     1  180.0000771  10.4600000  2
   1838   1836   3417   3418     1  0.0000000  8.3680000  1
   1838   1836   3417   3418     1  180.0000771  10.4600000  2
   1841   1844   1864   1865     1  0.0000000  0.0000000  2
   1841   1847   1848   1849     1  0.0000000  1.2552000  3
   1841   1847   1848   1850     1  0.0000000  1.2552000  3
   1841   1847   1851   1852     1  0.0000000  1.2552000  3
   1841   1847   1851   1853     1  0.0000000  1.2552000  3
   1842   1841   1844   1864     1  0.0000000  0.6508444  3
   1842   1841   1844   1845     1  0.0000000  0.6508444  3
   1842   1841   1844   1846     1  0.0000000  0.6508444  3
   1842   1841   1847   1848     1  0.0000000  1.2552000  3
   1842   1841   1847   1851     1  0.0000000  1.2552000  3
   1843   1841   1844   1864     1  0.0000000  0.6508444  3
   1843   1841   1844   1845     1  0.0000000  0.6508444  3
   1843   1841   1844   1846     1  0.0000000  0.6508444  3
   1843   1841   1847   1848     1  0.0000000  1.2552000  3
   1843   1841   1847   1851     1  0.0000000  1.2552000  3
   1845   1844   1841   1847     1  0.0000000  0.6508444  3
   1845   1844   1864   1865     1  0.0000000  0.0000000  2
   1846   1844   1841   1847     1  0.0000000  0.6508444  3
   1846   1844   1864   1865     1  0.0000000  0.0000000  2
   1847   1848   1857   1858     1  0.0000000  0.6508444  3
   1847   1848   1857   1859     1  0.0000000  0.6508444  3
   1847   1851   1854   1855     1  0.0000000  0.6508444  3
   1847   1851   1854   1856     1  0.0000000  0.6508444  3
   1848   1847   1851   1852     1  0.0000000  1.2552000  3
   1848   1847   1851   1853     1  0.0000000  1.2552000  3
   1849   1848   1847   1851     1  0.0000000  1.2552000  3
   1849   1848   1857   1861     1  0.0000000  0.6508444  3
   1849   1848   1857   1858     1  0.0000000  0.6508444  3
   1849   1848   1857   1859     1  0.0000000  0.6508444  3
   1850   1848   1847   1851     1  0.0000000  1.2552000  3
   1850   1848   1857   1861     1  0.0000000  0.6508444  3
   1850   1848   1857   1858     1  0.0000000  0.6508444  3
   1850   1848   1857   1859     1  0.0000000  0.6508444  3
   1852   1851   1854   1860     1  0.0000000  0.6508444  3
   1852   1851   1854   1855     1  0.0000000  0.6508444  3
   1852   1851   1854   1856     1  0.0000000  0.6508444  3
   1853   1851   1854   1860     1  0.0000000  0.6508444  3
   1853   1851   1854   1855     1  0.0000000  0.6508444  3
   1853   1851   1854   1856     1  0.0000000  0.6508444  3
   1854   1860   3429   3430     1  180.0000771  10.4600000  2
   1855   1854   1860   3429     1  180.0000771  0.0000000  2
   1855   1854   1860   1862     1  0.0000000  3.3472000  1
   1855   1854   1860   1862     1  0.0000000  0.0000000  2
   1855   1854   1860   1862     1  180.0000771  0.3347200  3
   1856   1854   1860   3429     1  180.0000771  0.0000000  2
   1856   1854   1860   1862     1  0.0000000  3.3472000  1
   1856   1854   1860   1862     1  0.0000000  0.0000000  2
   1856   1854   1860   1862     1  180.0000771  0.3347200  3
   1857   1861   3441   3442     1  180.0000771  10.4600000  2
   1858   1857   1861   1863     1  0.0000000  3.3472000  1
   1858   1857   1861   1863     1  0.0000000  0.0000000  2
   1858   1857   1861   1863     1  180.0000771  0.3347200  3
   1858   1857   1861   3441     1  180.0000771  0.0000000  2
   1859   1857   1861   1863     1  0.0000000  3.3472000  1
   1859   1857   1861   1863     1  0.0000000  0.0000000  2
   1859   1857   1861   1863     1  180.0000771  0.3347200  3
   1859   1857   1861   3441     1  180.0000771  0.0000000  2
   1860   3429   3431   3433     1  0.0000000  0.0000000  2
   1860   3429   3431   3434     1  0.0000000  0.0000000  2
   1861   3441   3443   3445     1  0.0000000  0.0000000  2
   1861   3441   3443   3446     1  0.0000000  0.0000000  2
   1862   1860   3429   3430     1  0.0000000  8.3680000  1
   1862   1860   3429   3430     1  180.0000771  10.4600000  2
   1863   1861   3441   3442     1  0.0000000  8.3680000  1
   1863   1861   3441   3442     1  180.0000771  10.4600000  2
   1866   1869   1889   1890     1  0.0000000  0.0000000  2
   1866   1872   1873   1874     1  0.0000000  1.2552000  3
   1866   1872   1873   1875     1  0.0000000  1.2552000  3
   1866   1872   1876   1877     1  0.0000000  1.2552000  3
   1866   1872   1876   1878     1  0.0000000  1.2552000  3
   1867   1866   1869   1889     1  0.0000000  0.6508444  3
   1867   1866   1869   1870     1  0.0000000  0.6508444  3
   1867   1866   1869   1871     1  0.0000000  0.6508444  3
   1867   1866   1872   1873     1  0.0000000  1.2552000  3
   1867   1866   1872   1876     1  0.0000000  1.2552000  3
   1868   1866   1869   1889     1  0.0000000  0.6508444  3
   1868   1866   1869   1870     1  0.0000000  0.6508444  3
   1868   1866   1869   1871     1  0.0000000  0.6508444  3
   1868   1866   1872   1873     1  0.0000000  1.2552000  3
   1868   1866   1872   1876     1  0.0000000  1.2552000  3
   1870   1869   1866   1872     1  0.0000000  0.6508444  3
   1870   1869   1889   1890     1  0.0000000  0.0000000  2
   1871   1869   1866   1872     1  0.0000000  0.6508444  3
   1871   1869   1889   1890     1  0.0000000  0.0000000  2
   1872   1873   1882   1883     1  0.0000000  0.6508444  3
   1872   1873   1882   1884     1  0.0000000  0.6508444  3
   1872   1876   1879   1880     1  0.0000000  0.6508444  3
   1872   1876   1879   1881     1  0.0000000  0.6508444  3
   1873   1872   1876   1877     1  0.0000000  1.2552000  3
   1873   1872   1876   1878     1  0.0000000  1.2552000  3
   1874   1873   1872   1876     1  0.0000000  1.2552000  3
   1874   1873   1882   1886     1  0.0000000  0.6508444  3
   1874   1873   1882   1883     1  0.0000000  0.6508444  3
   1874   1873   1882   1884     1  0.0000000  0.6508444  3
   1875   1873   1872   1876     1  0.0000000  1.2552000  3
   1875   1873   1882   1886     1  0.0000000  0.6508444  3
   1875   1873   1882   1883     1  0.0000000  0.6508444  3
   1875   1873   1882   1884     1  0.0000000  0.6508444  3
   1877   1876   1879   1885     1  0.0000000  0.6508444  3
   1877   1876   1879   1880     1  0.0000000  0.6508444  3
   1877   1876   1879   1881     1  0.0000000  0.6508444  3
   1878   1876   1879   1885     1  0.0000000  0.6508444  3
   1878   1876   1879   1880     1  0.0000000  0.6508444  3
   1878   1876   1879   1881     1  0.0000000  0.6508444  3
   1879   1885   3453   3454     1  180.0000771  10.4600000  2
   1880   1879   1885   3453     1  180.0000771  0.0000000  2
   1880   1879   1885   1887     1  0.0000000  3.3472000  1
   1880   1879   1885   1887     1  0.0000000  0.0000000  2
   1880   1879   1885   1887     1  180.0000771  0.3347200  3
   1881   1879   1885   3453     1  180.0000771  0.0000000  2
   1881   1879   1885   1887     1  0.0000000  3.3472000  1
   1881   1879   1885   1887     1  0.0000000  0.0000000  2
   1881   1879   1885   1887     1  180.0000771  0.3347200  3
   1882   1886   3465   3466     1  180.0000771  10.4600000  2
   1883   1882   1886   1888     1  0.0000000  3.3472000  1
   1883   1882   1886   1888     1  0.0000000  0.0000000  2
   1883   1882   1886   1888     1  180.0000771  0.3347200  3
   1883   1882   1886   3465     1  180.0000771  0.0000000  2
   1884   1882   1886   1888     1  0.0000000  3.3472000  1
   1884   1882   1886   1888     1  0.0000000  0.0000000  2
   1884   1882   1886   1888     1  180.0000771  0.3347200  3
   1884   1882   1886   3465     1  180.0000771  0.0000000  2
   1885   3453   3455   3457     1  0.0000000  0.0000000  2
   1885   3453   3455   3458     1  0.0000000  0.0000000  2
   1886   3465   3467   3469     1  0.0000000  0.0000000  2
   1886   3465   3467   3470     1  0.0000000  0.0000000  2
   1887   1885   3453   3454     1  0.0000000  8.3680000  1
   1887   1885   3453   3454     1  180.0000771  10.4600000  2
   1888   1886   3465   3466     1  0.0000000  8.3680000  1
   1888   1886   3465   3466     1  180.0000771  10.4600000  2
   1891   1894   1914   1915     1  0.0000000  0.0000000  2
   1891   1897   1898   1899     1  0.0000000  1.2552000  3
   1891   1897   1898   1900     1  0.0000000  1.2552000  3
   1891   1897   1901   1902     1  0.0000000  1.2552000  3
   1891   1897   1901   1903     1  0.0000000  1.2552000  3
   1892   1891   1894   1914     1  0.0000000  0.6508444  3
   1892   1891   1894   1895     1  0.0000000  0.6508444  3
   1892   1891   1894   1896     1  0.0000000  0.6508444  3
   1892   1891   1897   1898     1  0.0000000  1.2552000  3
   1892   1891   1897   1901     1  0.0000000  1.2552000  3
   1893   1891   1894   1914     1  0.0000000  0.6508444  3
   1893   1891   1894   1895     1  0.0000000  0.6508444  3
   1893   1891   1894   1896     1  0.0000000  0.6508444  3
   1893   1891   1897   1898     1  0.0000000  1.2552000  3
   1893   1891   1897   1901     1  0.0000000  1.2552000  3
   1895   1894   1891   1897     1  0.0000000  0.6508444  3
   1895   1894   1914   1915     1  0.0000000  0.0000000  2
   1896   1894   1891   1897     1  0.0000000  0.6508444  3
   1896   1894   1914   1915     1  0.0000000  0.0000000  2
   1897   1898   1907   1908     1  0.0000000  0.6508444  3
   1897   1898   1907   1909     1  0.0000000  0.6508444  3
   1897   1901   1904   1905     1  0.0000000  0.6508444  3
   1897   1901   1904   1906     1  0.0000000  0.6508444  3
   1898   1897   1901   1902     1  0.0000000  1.2552000  3
   1898   1897   1901   1903     1  0.0000000  1.2552000  3
   1899   1898   1897   1901     1  0.0000000  1.2552000  3
   1899   1898   1907   1911     1  0.0000000  0.6508444  3
   1899   1898   1907   1908     1  0.0000000  0.6508444  3
   1899   1898   1907   1909     1  0.0000000  0.6508444  3
   1900   1898   1897   1901     1  0.0000000  1.2552000  3
   1900   1898   1907   1911     1  0.0000000  0.6508444  3
   1900   1898   1907   1908     1  0.0000000  0.6508444  3
   1900   1898   1907   1909     1  0.0000000  0.6508444  3
   1902   1901   1904   1910     1  0.0000000  0.6508444  3
   1902   1901   1904   1905     1  0.0000000  0.6508444  3
   1902   1901   1904   1906     1  0.0000000  0.6508444  3
   1903   1901   1904   1910     1  0.0000000  0.6508444  3
   1903   1901   1904   1905     1  0.0000000  0.6508444  3
   1903   1901   1904   1906     1  0.0000000  0.6508444  3
   1904   1910   3477   3478     1  180.0000771  10.4600000  2
   1905   1904   1910   3477     1  180.0000771  0.0000000  2
   1905   1904   1910   1912     1  0.0000000  3.3472000  1
   1905   1904   1910   1912     1  0.0000000  0.0000000  2
   1905   1904   1910   1912     1  180.0000771  0.3347200  3
   1906   1904   1910   3477     1  180.0000771  0.0000000  2
   1906   1904   1910   1912     1  0.0000000  3.3472000  1
   1906   1904   1910   1912     1  0.0000000  0.0000000  2
   1906   1904   1910   1912     1  180.0000771  0.3347200  3
   1907   1911   3489   3490     1  180.0000771  10.4600000  2
   1908   1907   1911   1913     1  0.0000000  3.3472000  1
   1908   1907   1911   1913     1  0.0000000  0.0000000  2
   1908   1907   1911   1913     1  180.0000771  0.3347200  3
   1908   1907   1911   3489     1  180.0000771  0.0000000  2
   1909   1907   1911   1913     1  0.0000000  3.3472000  1
   1909   1907   1911   1913     1  0.0000000  0.0000000  2
   1909   1907   1911   1913     1  180.0000771  0.3347200  3
   1909   1907   1911   3489     1  180.0000771  0.0000000  2
   1910   3477   3479   3481     1  0.0000000  0.0000000  2
   1910   3477   3479   3482     1  0.0000000  0.0000000  2
   1911   3489   3491   3493     1  0.0000000  0.0000000  2
   1911   3489   3491   3494     1  0.0000000  0.0000000  2
   1912   1910   3477   3478     1  0.0000000  8.3680000  1
   1912   1910   3477   3478     1  180.0000771  10.4600000  2
   1913   1911   3489   3490     1  0.0000000  8.3680000  1
   1913   1911   3489   3490     1  180.0000771  10.4600000  2
   1916   1919   1939   1940     1  0.0000000  0.0000000  2
   1916   1922   1923   1924     1  0.0000000  1.2552000  3
   1916   1922   1923   1925     1  0.0000000  1.2552000  3
   1916   1922   1926   1927     1  0.0000000  1.2552000  3
   1916   1922   1926   1928     1  0.0000000  1.2552000  3
   1917   1916   1919   1939     1  0.0000000  0.6508444  3
   1917   1916   1919   1920     1  0.0000000  0.6508444  3
   1917   1916   1919   1921     1  0.0000000  0.6508444  3
   1917   1916   1922   1923     1  0.0000000  1.2552000  3
   1917   1916   1922   1926     1  0.0000000  1.2552000  3
   1918   1916   1919   1939     1  0.0000000  0.6508444  3
   1918   1916   1919   1920     1  0.0000000  0.6508444  3
   1918   1916   1919   1921     1  0.0000000  0.6508444  3
   1918   1916   1922   1923     1  0.0000000  1.2552000  3
   1918   1916   1922   1926     1  0.0000000  1.2552000  3
   1920   1919   1916   1922     1  0.0000000  0.6508444  3
   1920   1919   1939   1940     1  0.0000000  0.0000000  2
   1921   1919   1916   1922     1  0.0000000  0.6508444  3
   1921   1919   1939   1940     1  0.0000000  0.0000000  2
   1922   1923   1932   1933     1  0.0000000  0.6508444  3
   1922   1923   1932   1934     1  0.0000000  0.6508444  3
   1922   1926   1929   1930     1  0.0000000  0.6508444  3
   1922   1926   1929   1931     1  0.0000000  0.6508444  3
   1923   1922   1926   1927     1  0.0000000  1.2552000  3
   1923   1922   1926   1928     1  0.0000000  1.2552000  3
   1924   1923   1922   1926     1  0.0000000  1.2552000  3
   1924   1923   1932   1936     1  0.0000000  0.6508444  3
   1924   1923   1932   1933     1  0.0000000  0.6508444  3
   1924   1923   1932   1934     1  0.0000000  0.6508444  3
   1925   1923   1922   1926     1  0.0000000  1.2552000  3
   1925   1923   1932   1936     1  0.0000000  0.6508444  3
   1925   1923   1932   1933     1  0.0000000  0.6508444  3
   1925   1923   1932   1934     1  0.0000000  0.6508444  3
   1927   1926   1929   1935     1  0.0000000  0.6508444  3
   1927   1926   1929   1930     1  0.0000000  0.6508444  3
   1927   1926   1929   1931     1  0.0000000  0.6508444  3
   1928   1926   1929   1935     1  0.0000000  0.6508444  3
   1928   1926   1929   1930     1  0.0000000  0.6508444  3
   1928   1926   1929   1931     1  0.0000000  0.6508444  3
   1929   1935   3501   3502     1  180.0000771  10.4600000  2
   1930   1929   1935   3501     1  180.0000771  0.0000000  2
   1930   1929   1935   1937     1  0.0000000  3.3472000  1
   1930   1929   1935   1937     1  0.0000000  0.0000000  2
   1930   1929   1935   1937     1  180.0000771  0.3347200  3
   1931   1929   1935   3501     1  180.0000771  0.0000000  2
   1931   1929   1935   1937     1  0.0000000  3.3472000  1
   1931   1929   1935   1937     1  0.0000000  0.0000000  2
   1931   1929   1935   1937     1  180.0000771  0.3347200  3
   1932   1936   3513   3514     1  180.0000771  10.4600000  2
   1933   1932   1936   1938     1  0.0000000  3.3472000  1
   1933   1932   1936   1938     1  0.0000000  0.0000000  2
   1933   1932   1936   1938     1  180.0000771  0.3347200  3
   1933   1932   1936   3513     1  180.0000771  0.0000000  2
   1934   1932   1936   1938     1  0.0000000  3.3472000  1
   1934   1932   1936   1938     1  0.0000000  0.0000000  2
   1934   1932   1936   1938     1  180.0000771  0.3347200  3
   1934   1932   1936   3513     1  180.0000771  0.0000000  2
   1935   3501   3503   3505     1  0.0000000  0.0000000  2
   1935   3501   3503   3506     1  0.0000000  0.0000000  2
   1936   3513   3515   3517     1  0.0000000  0.0000000  2
   1936   3513   3515   3518     1  0.0000000  0.0000000  2
   1937   1935   3501   3502     1  0.0000000  8.3680000  1
   1937   1935   3501   3502     1  180.0000771  10.4600000  2
   1938   1936   3513   3514     1  0.0000000  8.3680000  1
   1938   1936   3513   3514     1  180.0000771  10.4600000  2
   1941   1944   1964   1965     1  0.0000000  0.0000000  2
   1941   1947   1948   1949     1  0.0000000  1.2552000  3
   1941   1947   1948   1950     1  0.0000000  1.2552000  3
   1941   1947   1951   1952     1  0.0000000  1.2552000  3
   1941   1947   1951   1953     1  0.0000000  1.2552000  3
   1942   1941   1944   1964     1  0.0000000  0.6508444  3
   1942   1941   1944   1945     1  0.0000000  0.6508444  3
   1942   1941   1944   1946     1  0.0000000  0.6508444  3
   1942   1941   1947   1948     1  0.0000000  1.2552000  3
   1942   1941   1947   1951     1  0.0000000  1.2552000  3
   1943   1941   1944   1964     1  0.0000000  0.6508444  3
   1943   1941   1944   1945     1  0.0000000  0.6508444  3
   1943   1941   1944   1946     1  0.0000000  0.6508444  3
   1943   1941   1947   1948     1  0.0000000  1.2552000  3
   1943   1941   1947   1951     1  0.0000000  1.2552000  3
   1945   1944   1941   1947     1  0.0000000  0.6508444  3
   1945   1944   1964   1965     1  0.0000000  0.0000000  2
   1946   1944   1941   1947     1  0.0000000  0.6508444  3
   1946   1944   1964   1965     1  0.0000000  0.0000000  2
   1947   1948   1957   1958     1  0.0000000  0.6508444  3
   1947   1948   1957   1959     1  0.0000000  0.6508444  3
   1947   1951   1954   1955     1  0.0000000  0.6508444  3
   1947   1951   1954   1956     1  0.0000000  0.6508444  3
   1948   1947   1951   1952     1  0.0000000  1.2552000  3
   1948   1947   1951   1953     1  0.0000000  1.2552000  3
   1949   1948   1947   1951     1  0.0000000  1.2552000  3
   1949   1948   1957   1961     1  0.0000000  0.6508444  3
   1949   1948   1957   1958     1  0.0000000  0.6508444  3
   1949   1948   1957   1959     1  0.0000000  0.6508444  3
   1950   1948   1947   1951     1  0.0000000  1.2552000  3
   1950   1948   1957   1961     1  0.0000000  0.6508444  3
   1950   1948   1957   1958     1  0.0000000  0.6508444  3
   1950   1948   1957   1959     1  0.0000000  0.6508444  3
   1952   1951   1954   1960     1  0.0000000  0.6508444  3
   1952   1951   1954   1955     1  0.0000000  0.6508444  3
   1952   1951   1954   1956     1  0.0000000  0.6508444  3
   1953   1951   1954   1960     1  0.0000000  0.6508444  3
   1953   1951   1954   1955     1  0.0000000  0.6508444  3
   1953   1951   1954   1956     1  0.0000000  0.6508444  3
   1954   1960   3525   3526     1  180.0000771  10.4600000  2
   1955   1954   1960   3525     1  180.0000771  0.0000000  2
   1955   1954   1960   1962     1  0.0000000  3.3472000  1
   1955   1954   1960   1962     1  0.0000000  0.0000000  2
   1955   1954   1960   1962     1  180.0000771  0.3347200  3
   1956   1954   1960   3525     1  180.0000771  0.0000000  2
   1956   1954   1960   1962     1  0.0000000  3.3472000  1
   1956   1954   1960   1962     1  0.0000000  0.0000000  2
   1956   1954   1960   1962     1  180.0000771  0.3347200  3
   1957   1961   3537   3538     1  180.0000771  10.4600000  2
   1958   1957   1961   1963     1  0.0000000  3.3472000  1
   1958   1957   1961   1963     1  0.0000000  0.0000000  2
   1958   1957   1961   1963     1  180.0000771  0.3347200  3
   1958   1957   1961   3537     1  180.0000771  0.0000000  2
   1959   1957   1961   1963     1  0.0000000  3.3472000  1
   1959   1957   1961   1963     1  0.0000000  0.0000000  2
   1959   1957   1961   1963     1  180.0000771  0.3347200  3
   1959   1957   1961   3537     1  180.0000771  0.0000000  2
   1960   3525   3527   3529     1  0.0000000  0.0000000  2
   1960   3525   3527   3530     1  0.0000000  0.0000000  2
   1961   3537   3539   3541     1  0.0000000  0.0000000  2
   1961   3537   3539   3542     1  0.0000000  0.0000000  2
   1962   1960   3525   3526     1  0.0000000  8.3680000  1
   1962   1960   3525   3526     1  180.0000771  10.4600000  2
   1963   1961   3537   3538     1  0.0000000  8.3680000  1
   1963   1961   3537   3538     1  180.0000771  10.4600000  2
   1966   1969   1989   1990     1  0.0000000  0.0000000  2
   1966   1972   1973   1974     1  0.0000000  1.2552000  3
   1966   1972   1973   1975     1  0.0000000  1.2552000  3
   1966   1972   1976   1977     1  0.0000000  1.2552000  3
   1966   1972   1976   1978     1  0.0000000  1.2552000  3
   1967   1966   1969   1989     1  0.0000000  0.6508444  3
   1967   1966   1969   1970     1  0.0000000  0.6508444  3
   1967   1966   1969   1971     1  0.0000000  0.6508444  3
   1967   1966   1972   1973     1  0.0000000  1.2552000  3
   1967   1966   1972   1976     1  0.0000000  1.2552000  3
   1968   1966   1969   1989     1  0.0000000  0.6508444  3
   1968   1966   1969   1970     1  0.0000000  0.6508444  3
   1968   1966   1969   1971     1  0.0000000  0.6508444  3
   1968   1966   1972   1973     1  0.0000000  1.2552000  3
   1968   1966   1972   1976     1  0.0000000  1.2552000  3
   1970   1969   1966   1972     1  0.0000000  0.6508444  3
   1970   1969   1989   1990     1  0.0000000  0.0000000  2
   1971   1969   1966   1972     1  0.0000000  0.6508444  3
   1971   1969   1989   1990     1  0.0000000  0.0000000  2
   1972   1973   1982   1983     1  0.0000000  0.6508444  3
   1972   1973   1982   1984     1  0.0000000  0.6508444  3
   1972   1976   1979   1980     1  0.0000000  0.6508444  3
   1972   1976   1979   1981     1  0.0000000  0.6508444  3
   1973   1972   1976   1977     1  0.0000000  1.2552000  3
   1973   1972   1976   1978     1  0.0000000  1.2552000  3
   1974   1973   1972   1976     1  0.0000000  1.2552000  3
   1974   1973   1982   1986     1  0.0000000  0.6508444  3
   1974   1973   1982   1983     1  0.0000000  0.6508444  3
   1974   1973   1982   1984     1  0.0000000  0.6508444  3
   1975   1973   1972   1976     1  0.0000000  1.2552000  3
   1975   1973   1982   1986     1  0.0000000  0.6508444  3
   1975   1973   1982   1983     1  0.0000000  0.6508444  3
   1975   1973   1982   1984     1  0.0000000  0.6508444  3
   1977   1976   1979   1985     1  0.0000000  0.6508444  3
   1977   1976   1979   1980     1  0.0000000  0.6508444  3
   1977   1976   1979   1981     1  0.0000000  0.6508444  3
   1978   1976   1979   1985     1  0.0000000  0.6508444  3
   1978   1976   1979   1980     1  0.0000000  0.6508444  3
   1978   1976   1979   1981     1  0.0000000  0.6508444  3
   1979   1985   3549   3550     1  180.0000771  10.4600000  2
   1980   1979   1985   3549     1  180.0000771  0.0000000  2
   1980   1979   1985   1987     1  0.0000000  3.3472000  1
   1980   1979   1985   1987     1  0.0000000  0.0000000  2
   1980   1979   1985   1987     1  180.0000771  0.3347200  3
   1981   1979   1985   3549     1  180.0000771  0.0000000  2
   1981   1979   1985   1987     1  0.0000000  3.3472000  1
   1981   1979   1985   1987     1  0.0000000  0.0000000  2
   1981   1979   1985   1987     1  180.0000771  0.3347200  3
   1982   1986   3561   3562     1  180.0000771  10.4600000  2
   1983   1982   1986   1988     1  0.0000000  3.3472000  1
   1983   1982   1986   1988     1  0.0000000  0.0000000  2
   1983   1982   1986   1988     1  180.0000771  0.3347200  3
   1983   1982   1986   3561     1  180.0000771  0.0000000  2
   1984   1982   1986   1988     1  0.0000000  3.3472000  1
   1984   1982   1986   1988     1  0.0000000  0.0000000  2
   1984   1982   1986   1988     1  180.0000771  0.3347200  3
   1984   1982   1986   3561     1  180.0000771  0.0000000  2
   1985   3549   3551   3553     1  0.0000000  0.0000000  2
   1985   3549   3551   3554     1  0.0000000  0.0000000  2
   1986   3561   3563   3565     1  0.0000000  0.0000000  2
   1986   3561   3563   3566     1  0.0000000  0.0000000  2
   1987   1985   3549   3550     1  0.0000000  8.3680000  1
   1987   1985   3549   3550     1  180.0000771  10.4600000  2
   1988   1986   3561   3562     1  0.0000000  8.3680000  1
   1988   1986   3561   3562     1  180.0000771  10.4600000  2
   1991   1994   2014   2015     1  0.0000000  0.0000000  2
   1991   1997   1998   1999     1  0.0000000  1.2552000  3
   1991   1997   1998   2000     1  0.0000000  1.2552000  3
   1991   1997   2001   2002     1  0.0000000  1.2552000  3
   1991   1997   2001   2003     1  0.0000000  1.2552000  3
   1992   1991   1994   2014     1  0.0000000  0.6508444  3
   1992   1991   1994   1995     1  0.0000000  0.6508444  3
   1992   1991   1994   1996     1  0.0000000  0.6508444  3
   1992   1991   1997   1998     1  0.0000000  1.2552000  3
   1992   1991   1997   2001     1  0.0000000  1.2552000  3
   1993   1991   1994   2014     1  0.0000000  0.6508444  3
   1993   1991   1994   1995     1  0.0000000  0.6508444  3
   1993   1991   1994   1996     1  0.0000000  0.6508444  3
   1993   1991   1997   1998     1  0.0000000  1.2552000  3
   1993   1991   1997   2001     1  0.0000000  1.2552000  3
   1995   1994   1991   1997     1  0.0000000  0.6508444  3
   1995   1994   2014   2015     1  0.0000000  0.0000000  2
   1996   1994   1991   1997     1  0.0000000  0.6508444  3
   1996   1994   2014   2015     1  0.0000000  0.0000000  2
   1997   1998   2007   2008     1  0.0000000  0.6508444  3
   1997   1998   2007   2009     1  0.0000000  0.6508444  3
   1997   2001   2004   2005     1  0.0000000  0.6508444  3
   1997   2001   2004   2006     1  0.0000000  0.6508444  3
   1998   1997   2001   2002     1  0.0000000  1.2552000  3
   1998   1997   2001   2003     1  0.0000000  1.2552000  3
   1999   1998   1997   2001     1  0.0000000  1.2552000  3
   1999   1998   2007   2011     1  0.0000000  0.6508444  3
   1999   1998   2007   2008     1  0.0000000  0.6508444  3
   1999   1998   2007   2009     1  0.0000000  0.6508444  3
   2000   1998   1997   2001     1  0.0000000  1.2552000  3
   2000   1998   2007   2011     1  0.0000000  0.6508444  3
   2000   1998   2007   2008     1  0.0000000  0.6508444  3
   2000   1998   2007   2009     1  0.0000000  0.6508444  3
   2002   2001   2004   2010     1  0.0000000  0.6508444  3
   2002   2001   2004   2005     1  0.0000000  0.6508444  3
   2002   2001   2004   2006     1  0.0000000  0.6508444  3
   2003   2001   2004   2010     1  0.0000000  0.6508444  3
   2003   2001   2004   2005     1  0.0000000  0.6508444  3
   2003   2001   2004   2006     1  0.0000000  0.6508444  3
   2004   2010   3573   3574     1  180.0000771  10.4600000  2
   2005   2004   2010   3573     1  180.0000771  0.0000000  2
   2005   2004   2010   2012     1  0.0000000  3.3472000  1
   2005   2004   2010   2012     1  0.0000000  0.0000000  2
   2005   2004   2010   2012     1  180.0000771  0.3347200  3
   2006   2004   2010   3573     1  180.0000771  0.0000000  2
   2006   2004   2010   2012     1  0.0000000  3.3472000  1
   2006   2004   2010   2012     1  0.0000000  0.0000000  2
   2006   2004   2010   2012     1  180.0000771  0.3347200  3
   2007   2011   3585   3586     1  180.0000771  10.4600000  2
   2008   2007   2011   2013     1  0.0000000  3.3472000  1
   2008   2007   2011   2013     1  0.0000000  0.0000000  2
   2008   2007   2011   2013     1  180.0000771  0.3347200  3
   2008   2007   2011   3585     1  180.0000771  0.0000000  2
   2009   2007   2011   2013     1  0.0000000  3.3472000  1
   2009   2007   2011   2013     1  0.0000000  0.0000000  2
   2009   2007   2011   2013     1  180.0000771  0.3347200  3
   2009   2007   2011   3585     1  180.0000771  0.0000000  2
   2010   3573   3575   3577     1  0.0000000  0.0000000  2
   2010   3573   3575   3578     1  0.0000000  0.0000000  2
   2011   3585   3587   3589     1  0.0000000  0.0000000  2
   2011   3585   3587   3590     1  0.0000000  0.0000000  2
   2012   2010   3573   3574     1  0.0000000  8.3680000  1
   2012   2010   3573   3574     1  180.0000771  10.4600000  2
   2013   2011   3585   3586     1  0.0000000  8.3680000  1
   2013   2011   3585   3586     1  180.0000771  10.4600000  2
   2016   2019   2039   2040     1  0.0000000  0.0000000  2
   2016   2022   2023   2024     1  0.0000000  1.2552000  3
   2016   2022   2023   2025     1  0.0000000  1.2552000  3
   2016   2022   2026   2027     1  0.0000000  1.2552000  3
   2016   2022   2026   2028     1  0.0000000  1.2552000  3
   2017   2016   2019   2039     1  0.0000000  0.6508444  3
   2017   2016   2019   2020     1  0.0000000  0.6508444  3
   2017   2016   2019   2021     1  0.0000000  0.6508444  3
   2017   2016   2022   2023     1  0.0000000  1.2552000  3
   2017   2016   2022   2026     1  0.0000000  1.2552000  3
   2018   2016   2019   2039     1  0.0000000  0.6508444  3
   2018   2016   2019   2020     1  0.0000000  0.6508444  3
   2018   2016   2019   2021     1  0.0000000  0.6508444  3
   2018   2016   2022   2023     1  0.0000000  1.2552000  3
   2018   2016   2022   2026     1  0.0000000  1.2552000  3
   2020   2019   2016   2022     1  0.0000000  0.6508444  3
   2020   2019   2039   2040     1  0.0000000  0.0000000  2
   2021   2019   2016   2022     1  0.0000000  0.6508444  3
   2021   2019   2039   2040     1  0.0000000  0.0000000  2
   2022   2023   2032   2033     1  0.0000000  0.6508444  3
   2022   2023   2032   2034     1  0.0000000  0.6508444  3
   2022   2026   2029   2030     1  0.0000000  0.6508444  3
   2022   2026   2029   2031     1  0.0000000  0.6508444  3
   2023   2022   2026   2027     1  0.0000000  1.2552000  3
   2023   2022   2026   2028     1  0.0000000  1.2552000  3
   2024   2023   2022   2026     1  0.0000000  1.2552000  3
   2024   2023   2032   2036     1  0.0000000  0.6508444  3
   2024   2023   2032   2033     1  0.0000000  0.6508444  3
   2024   2023   2032   2034     1  0.0000000  0.6508444  3
   2025   2023   2022   2026     1  0.0000000  1.2552000  3
   2025   2023   2032   2036     1  0.0000000  0.6508444  3
   2025   2023   2032   2033     1  0.0000000  0.6508444  3
   2025   2023   2032   2034     1  0.0000000  0.6508444  3
   2027   2026   2029   2035     1  0.0000000  0.6508444  3
   2027   2026   2029   2030     1  0.0000000  0.6508444  3
   2027   2026   2029   2031     1  0.0000000  0.6508444  3
   2028   2026   2029   2035     1  0.0000000  0.6508444  3
   2028   2026   2029   2030     1  0.0000000  0.6508444  3
   2028   2026   2029   2031     1  0.0000000  0.6508444  3
   2029   2035   3597   3598     1  180.0000771  10.4600000  2
   2030   2029   2035   3597     1  180.0000771  0.0000000  2
   2030   2029   2035   2037     1  0.0000000  3.3472000  1
   2030   2029   2035   2037     1  0.0000000  0.0000000  2
   2030   2029   2035   2037     1  180.0000771  0.3347200  3
   2031   2029   2035   3597     1  180.0000771  0.0000000  2
   2031   2029   2035   2037     1  0.0000000  3.3472000  1
   2031   2029   2035   2037     1  0.0000000  0.0000000  2
   2031   2029   2035   2037     1  180.0000771  0.3347200  3
   2032   2036   3609   3610     1  180.0000771  10.4600000  2
   2033   2032   2036   2038     1  0.0000000  3.3472000  1
   2033   2032   2036   2038     1  0.0000000  0.0000000  2
   2033   2032   2036   2038     1  180.0000771  0.3347200  3
   2033   2032   2036   3609     1  180.0000771  0.0000000  2
   2034   2032   2036   2038     1  0.0000000  3.3472000  1
   2034   2032   2036   2038     1  0.0000000  0.0000000  2
   2034   2032   2036   2038     1  180.0000771  0.3347200  3
   2034   2032   2036   3609     1  180.0000771  0.0000000  2
   2035   3597   3599   3601     1  0.0000000  0.0000000  2
   2035   3597   3599   3602     1  0.0000000  0.0000000  2
   2036   3609   3611   3613     1  0.0000000  0.0000000  2
   2036   3609   3611   3614     1  0.0000000  0.0000000  2
   2037   2035   3597   3598     1  0.0000000  8.3680000  1
   2037   2035   3597   3598     1  180.0000771  10.4600000  2
   2038   2036   3609   3610     1  0.0000000  8.3680000  1
   2038   2036   3609   3610     1  180.0000771  10.4600000  2
   2041   2044   2064   2065     1  0.0000000  0.0000000  2
   2041   2047   2048   2049     1  0.0000000  1.2552000  3
   2041   2047   2048   2050     1  0.0000000  1.2552000  3
   2041   2047   2051   2052     1  0.0000000  1.2552000  3
   2041   2047   2051   2053     1  0.0000000  1.2552000  3
   2042   2041   2044   2064     1  0.0000000  0.6508444  3
   2042   2041   2044   2045     1  0.0000000  0.6508444  3
   2042   2041   2044   2046     1  0.0000000  0.6508444  3
   2042   2041   2047   2048     1  0.0000000  1.2552000  3
   2042   2041   2047   2051     1  0.0000000  1.2552000  3
   2043   2041   2044   2064     1  0.0000000  0.6508444  3
   2043   2041   2044   2045     1  0.0000000  0.6508444  3
   2043   2041   2044   2046     1  0.0000000  0.6508444  3
   2043   2041   2047   2048     1  0.0000000  1.2552000  3
   2043   2041   2047   2051     1  0.0000000  1.2552000  3
   2045   2044   2041   2047     1  0.0000000  0.6508444  3
   2045   2044   2064   2065     1  0.0000000  0.0000000  2
   2046   2044   2041   2047     1  0.0000000  0.6508444  3
   2046   2044   2064   2065     1  0.0000000  0.0000000  2
   2047   2048   2057   2058     1  0.0000000  0.6508444  3
   2047   2048   2057   2059     1  0.0000000  0.6508444  3
   2047   2051   2054   2055     1  0.0000000  0.6508444  3
   2047   2051   2054   2056     1  0.0000000  0.6508444  3
   2048   2047   2051   2052     1  0.0000000  1.2552000  3
   2048   2047   2051   2053     1  0.0000000  1.2552000  3
   2049   2048   2047   2051     1  0.0000000  1.2552000  3
   2049   2048   2057   2061     1  0.0000000  0.6508444  3
   2049   2048   2057   2058     1  0.0000000  0.6508444  3
   2049   2048   2057   2059     1  0.0000000  0.6508444  3
   2050   2048   2047   2051     1  0.0000000  1.2552000  3
   2050   2048   2057   2061     1  0.0000000  0.6508444  3
   2050   2048   2057   2058     1  0.0000000  0.6508444  3
   2050   2048   2057   2059     1  0.0000000  0.6508444  3
   2052   2051   2054   2060     1  0.0000000  0.6508444  3
   2052   2051   2054   2055     1  0.0000000  0.6508444  3
   2052   2051   2054   2056     1  0.0000000  0.6508444  3
   2053   2051   2054   2060     1  0.0000000  0.6508444  3
   2053   2051   2054   2055     1  0.0000000  0.6508444  3
   2053   2051   2054   2056     1  0.0000000  0.6508444  3
   2054   2060   3621   3622     1  180.0000771  10.4600000  2
   2055   2054   2060   3621     1  180.0000771  0.0000000  2
   2055   2054   2060   2062     1  0.0000000  3.3472000  1
   2055   2054   2060   2062     1  0.0000000  0.0000000  2
   2055   2054   2060   2062     1  180.0000771  0.3347200  3
   2056   2054   2060   3621     1  180.0000771  0.0000000  2
   2056   2054   2060   2062     1  0.0000000  3.3472000  1
   2056   2054   2060   2062     1  0.0000000  0.0000000  2
   2056   2054   2060   2062     1  180.0000771  0.3347200  3
   2057   2061   3633   3634     1  180.0000771  10.4600000  2
   2058   2057   2061   2063     1  0.0000000  3.3472000  1
   2058   2057   2061   2063     1  0.0000000  0.0000000  2
   2058   2057   2061   2063     1  180.0000771  0.3347200  3
   2058   2057   2061   3633     1  180.0000771  0.0000000  2
   2059   2057   2061   2063     1  0.0000000  3.3472000  1
   2059   2057   2061   2063     1  0.0000000  0.0000000  2
   2059   2057   2061   2063     1  180.0000771  0.3347200  3
   2059   2057   2061   3633     1  180.0000771  0.0000000  2
   2060   3621   3623   3625     1  0.0000000  0.0000000  2
   2060   3621   3623   3626     1  0.0000000  0.0000000  2
   2061   3633   3635   3637     1  0.0000000  0.0000000  2
   2061   3633   3635   3638     1  0.0000000  0.0000000  2
   2062   2060   3621   3622     1  0.0000000  8.3680000  1
   2062   2060   3621   3622     1  180.0000771  10.4600000  2
   2063   2061   3633   3634     1  0.0000000  8.3680000  1
   2063   2061   3633   3634     1  180.0000771  10.4600000  2
   2066   2069   2089   2090     1  0.0000000  0.0000000  2
   2066   2072   2073   2074     1  0.0000000  1.2552000  3
   2066   2072   2073   2075     1  0.0000000  1.2552000  3
   2066   2072   2076   2077     1  0.0000000  1.2552000  3
   2066   2072   2076   2078     1  0.0000000  1.2552000  3
   2067   2066   2069   2089     1  0.0000000  0.6508444  3
   2067   2066   2069   2070     1  0.0000000  0.6508444  3
   2067   2066   2069   2071     1  0.0000000  0.6508444  3
   2067   2066   2072   2073     1  0.0000000  1.2552000  3
   2067   2066   2072   2076     1  0.0000000  1.2552000  3
   2068   2066   2069   2089     1  0.0000000  0.6508444  3
   2068   2066   2069   2070     1  0.0000000  0.6508444  3
   2068   2066   2069   2071     1  0.0000000  0.6508444  3
   2068   2066   2072   2073     1  0.0000000  1.2552000  3
   2068   2066   2072   2076     1  0.0000000  1.2552000  3
   2070   2069   2066   2072     1  0.0000000  0.6508444  3
   2070   2069   2089   2090     1  0.0000000  0.0000000  2
   2071   2069   2066   2072     1  0.0000000  0.6508444  3
   2071   2069   2089   2090     1  0.0000000  0.0000000  2
   2072   2073   2082   2083     1  0.0000000  0.6508444  3
   2072   2073   2082   2084     1  0.0000000  0.6508444  3
   2072   2076   2079   2080     1  0.0000000  0.6508444  3
   2072   2076   2079   2081     1  0.0000000  0.6508444  3
   2073   2072   2076   2077     1  0.0000000  1.2552000  3
   2073   2072   2076   2078     1  0.0000000  1.2552000  3
   2074   2073   2072   2076     1  0.0000000  1.2552000  3
   2074   2073   2082   2086     1  0.0000000  0.6508444  3
   2074   2073   2082   2083     1  0.0000000  0.6508444  3
   2074   2073   2082   2084     1  0.0000000  0.6508444  3
   2075   2073   2072   2076     1  0.0000000  1.2552000  3
   2075   2073   2082   2086     1  0.0000000  0.6508444  3
   2075   2073   2082   2083     1  0.0000000  0.6508444  3
   2075   2073   2082   2084     1  0.0000000  0.6508444  3
   2077   2076   2079   2085     1  0.0000000  0.6508444  3
   2077   2076   2079   2080     1  0.0000000  0.6508444  3
   2077   2076   2079   2081     1  0.0000000  0.6508444  3
   2078   2076   2079   2085     1  0.0000000  0.6508444  3
   2078   2076   2079   2080     1  0.0000000  0.6508444  3
   2078   2076   2079   2081     1  0.0000000  0.6508444  3
   2079   2085   3645   3646     1  180.0000771  10.4600000  2
   2080   2079   2085   3645     1  180.0000771  0.0000000  2
   2080   2079   2085   2087     1  0.0000000  3.3472000  1
   2080   2079   2085   2087     1  0.0000000  0.0000000  2
   2080   2079   2085   2087     1  180.0000771  0.3347200  3
   2081   2079   2085   3645     1  180.0000771  0.0000000  2
   2081   2079   2085   2087     1  0.0000000  3.3472000  1
   2081   2079   2085   2087     1  0.0000000  0.0000000  2
   2081   2079   2085   2087     1  180.0000771  0.3347200  3
   2082   2086   3657   3658     1  180.0000771  10.4600000  2
   2083   2082   2086   2088     1  0.0000000  3.3472000  1
   2083   2082   2086   2088     1  0.0000000  0.0000000  2
   2083   2082   2086   2088     1  180.0000771  0.3347200  3
   2083   2082   2086   3657     1  180.0000771  0.0000000  2
   2084   2082   2086   2088     1  0.0000000  3.3472000  1
   2084   2082   2086   2088     1  0.0000000  0.0000000  2
   2084   2082   2086   2088     1  180.0000771  0.3347200  3
   2084   2082   2086   3657     1  180.0000771  0.0000000  2
   2085   3645   3647   3649     1  0.0000000  0.0000000  2
   2085   3645   3647   3650     1  0.0000000  0.0000000  2
   2086   3657   3659   3661     1  0.0000000  0.0000000  2
   2086   3657   3659   3662     1  0.0000000  0.0000000  2
   2087   2085   3645   3646     1  0.0000000  8.3680000  1
   2087   2085   3645   3646     1  180.0000771  10.4600000  2
   2088   2086   3657   3658     1  0.0000000  8.3680000  1
   2088   2086   3657   3658     1  180.0000771  10.4600000  2
   2091   2094   2114   2115     1  0.0000000  0.0000000  2
   2091   2097   2098   2099     1  0.0000000  1.2552000  3
   2091   2097   2098   2100     1  0.0000000  1.2552000  3
   2091   2097   2101   2102     1  0.0000000  1.2552000  3
   2091   2097   2101   2103     1  0.0000000  1.2552000  3
   2092   2091   2094   2114     1  0.0000000  0.6508444  3
   2092   2091   2094   2095     1  0.0000000  0.6508444  3
   2092   2091   2094   2096     1  0.0000000  0.6508444  3
   2092   2091   2097   2098     1  0.0000000  1.2552000  3
   2092   2091   2097   2101     1  0.0000000  1.2552000  3
   2093   2091   2094   2114     1  0.0000000  0.6508444  3
   2093   2091   2094   2095     1  0.0000000  0.6508444  3
   2093   2091   2094   2096     1  0.0000000  0.6508444  3
   2093   2091   2097   2098     1  0.0000000  1.2552000  3
   2093   2091   2097   2101     1  0.0000000  1.2552000  3
   2095   2094   2091   2097     1  0.0000000  0.6508444  3
   2095   2094   2114   2115     1  0.0000000  0.0000000  2
   2096   2094   2091   2097     1  0.0000000  0.6508444  3
   2096   2094   2114   2115     1  0.0000000  0.0000000  2
   2097   2098   2107   2108     1  0.0000000  0.6508444  3
   2097   2098   2107   2109     1  0.0000000  0.6508444  3
   2097   2101   2104   2105     1  0.0000000  0.6508444  3
   2097   2101   2104   2106     1  0.0000000  0.6508444  3
   2098   2097   2101   2102     1  0.0000000  1.2552000  3
   2098   2097   2101   2103     1  0.0000000  1.2552000  3
   2099   2098   2097   2101     1  0.0000000  1.2552000  3
   2099   2098   2107   2111     1  0.0000000  0.6508444  3
   2099   2098   2107   2108     1  0.0000000  0.6508444  3
   2099   2098   2107   2109     1  0.0000000  0.6508444  3
   2100   2098   2097   2101     1  0.0000000  1.2552000  3
   2100   2098   2107   2111     1  0.0000000  0.6508444  3
   2100   2098   2107   2108     1  0.0000000  0.6508444  3
   2100   2098   2107   2109     1  0.0000000  0.6508444  3
   2102   2101   2104   2110     1  0.0000000  0.6508444  3
   2102   2101   2104   2105     1  0.0000000  0.6508444  3
   2102   2101   2104   2106     1  0.0000000  0.6508444  3
   2103   2101   2104   2110     1  0.0000000  0.6508444  3
   2103   2101   2104   2105     1  0.0000000  0.6508444  3
   2103   2101   2104   2106     1  0.0000000  0.6508444  3
   2104   2110   3669   3670     1  180.0000771  10.4600000  2
   2105   2104   2110   3669     1  180.0000771  0.0000000  2
   2105   2104   2110   2112     1  0.0000000  3.3472000  1
   2105   2104   2110   2112     1  0.0000000  0.0000000  2
   2105   2104   2110   2112     1  180.0000771  0.3347200  3
   2106   2104   2110   3669     1  180.0000771  0.0000000  2
   2106   2104   2110   2112     1  0.0000000  3.3472000  1
   2106   2104   2110   2112     1  0.0000000  0.0000000  2
   2106   2104   2110   2112     1  180.0000771  0.3347200  3
   2107   2111   3681   3682     1  180.0000771  10.4600000  2
   2108   2107   2111   2113     1  0.0000000  3.3472000  1
   2108   2107   2111   2113     1  0.0000000  0.0000000  2
   2108   2107   2111   2113     1  180.0000771  0.3347200  3
   2108   2107   2111   3681     1  180.0000771  0.0000000  2
   2109   2107   2111   2113     1  0.0000000  3.3472000  1
   2109   2107   2111   2113     1  0.0000000  0.0000000  2
   2109   2107   2111   2113     1  180.0000771  0.3347200  3
   2109   2107   2111   3681     1  180.0000771  0.0000000  2
   2110   3669   3671   3673     1  0.0000000  0.0000000  2
   2110   3669   3671   3674     1  0.0000000  0.0000000  2
   2111   3681   3683   3685     1  0.0000000  0.0000000  2
   2111   3681   3683   3686     1  0.0000000  0.0000000  2
   2112   2110   3669   3670     1  0.0000000  8.3680000  1
   2112   2110   3669   3670     1  180.0000771  10.4600000  2
   2113   2111   3681   3682     1  0.0000000  8.3680000  1
   2113   2111   3681   3682     1  180.0000771  10.4600000  2
   2116   2119   2139   2140     1  0.0000000  0.0000000  2
   2116   2122   2123   2124     1  0.0000000  1.2552000  3
   2116   2122   2123   2125     1  0.0000000  1.2552000  3
   2116   2122   2126   2127     1  0.0000000  1.2552000  3
   2116   2122   2126   2128     1  0.0000000  1.2552000  3
   2117   2116   2119   2139     1  0.0000000  0.6508444  3
   2117   2116   2119   2120     1  0.0000000  0.6508444  3
   2117   2116   2119   2121     1  0.0000000  0.6508444  3
   2117   2116   2122   2123     1  0.0000000  1.2552000  3
   2117   2116   2122   2126     1  0.0000000  1.2552000  3
   2118   2116   2119   2139     1  0.0000000  0.6508444  3
   2118   2116   2119   2120     1  0.0000000  0.6508444  3
   2118   2116   2119   2121     1  0.0000000  0.6508444  3
   2118   2116   2122   2123     1  0.0000000  1.2552000  3
   2118   2116   2122   2126     1  0.0000000  1.2552000  3
   2120   2119   2116   2122     1  0.0000000  0.6508444  3
   2120   2119   2139   2140     1  0.0000000  0.0000000  2
   2121   2119   2116   2122     1  0.0000000  0.6508444  3
   2121   2119   2139   2140     1  0.0000000  0.0000000  2
   2122   2123   2132   2133     1  0.0000000  0.6508444  3
   2122   2123   2132   2134     1  0.0000000  0.6508444  3
   2122   2126   2129   2130     1  0.0000000  0.6508444  3
   2122   2126   2129   2131     1  0.0000000  0.6508444  3
   2123   2122   2126   2127     1  0.0000000  1.2552000  3
   2123   2122   2126   2128     1  0.0000000  1.2552000  3
   2124   2123   2122   2126     1  0.0000000  1.2552000  3
   2124   2123   2132   2136     1  0.0000000  0.6508444  3
   2124   2123   2132   2133     1  0.0000000  0.6508444  3
   2124   2123   2132   2134     1  0.0000000  0.6508444  3
   2125   2123   2122   2126     1  0.0000000  1.2552000  3
   2125   2123   2132   2136     1  0.0000000  0.6508444  3
   2125   2123   2132   2133     1  0.0000000  0.6508444  3
   2125   2123   2132   2134     1  0.0000000  0.6508444  3
   2127   2126   2129   2135     1  0.0000000  0.6508444  3
   2127   2126   2129   2130     1  0.0000000  0.6508444  3
   2127   2126   2129   2131     1  0.0000000  0.6508444  3
   2128   2126   2129   2135     1  0.0000000  0.6508444  3
   2128   2126   2129   2130     1  0.0000000  0.6508444  3
   2128   2126   2129   2131     1  0.0000000  0.6508444  3
   2129   2135   3693   3694     1  180.0000771  10.4600000  2
   2130   2129   2135   3693     1  180.0000771  0.0000000  2
   2130   2129   2135   2137     1  0.0000000  3.3472000  1
   2130   2129   2135   2137     1  0.0000000  0.0000000  2
   2130   2129   2135   2137     1  180.0000771  0.3347200  3
   2131   2129   2135   3693     1  180.0000771  0.0000000  2
   2131   2129   2135   2137     1  0.0000000  3.3472000  1
   2131   2129   2135   2137     1  0.0000000  0.0000000  2
   2131   2129   2135   2137     1  180.0000771  0.3347200  3
   2132   2136   3705   3706     1  180.0000771  10.4600000  2
   2133   2132   2136   2138     1  0.0000000  3.3472000  1
   2133   2132   2136   2138     1  0.0000000  0.0000000  2
   2133   2132   2136   2138     1  180.0000771  0.3347200  3
   2133   2132   2136   3705     1  180.0000771  0.0000000  2
   2134   2132   2136   2138     1  0.0000000  3.3472000  1
   2134   2132   2136   2138     1  0.0000000  0.0000000  2
   2134   2132   2136   2138     1  180.0000771  0.3347200  3
   2134   2132   2136   3705     1  180.0000771  0.0000000  2
   2135   3693   3695   3697     1  0.0000000  0.0000000  2
   2135   3693   3695   3698     1  0.0000000  0.0000000  2
   2136   3705   3707   3709     1  0.0000000  0.0000000  2
   2136   3705   3707   3710     1  0.0000000  0.0000000  2
   2137   2135   3693   3694     1  0.0000000  8.3680000  1
   2137   2135   3693   3694     1  180.0000771  10.4600000  2
   2138   2136   3705   3706     1  0.0000000  8.3680000  1
   2138   2136   3705   3706     1  180.0000771  10.4600000  2
   2141   2144   2164   2165     1  0.0000000  0.0000000  2
   2141   2147   2148   2149     1  0.0000000  1.2552000  3
   2141   2147   2148   2150     1  0.0000000  1.2552000  3
   2141   2147   2151   2152     1  0.0000000  1.2552000  3
   2141   2147   2151   2153     1  0.0000000  1.2552000  3
   2142   2141   2144   2164     1  0.0000000  0.6508444  3
   2142   2141   2144   2145     1  0.0000000  0.6508444  3
   2142   2141   2144   2146     1  0.0000000  0.6508444  3
   2142   2141   2147   2148     1  0.0000000  1.2552000  3
   2142   2141   2147   2151     1  0.0000000  1.2552000  3
   2143   2141   2144   2164     1  0.0000000  0.6508444  3
   2143   2141   2144   2145     1  0.0000000  0.6508444  3
   2143   2141   2144   2146     1  0.0000000  0.6508444  3
   2143   2141   2147   2148     1  0.0000000  1.2552000  3
   2143   2141   2147   2151     1  0.0000000  1.2552000  3
   2145   2144   2141   2147     1  0.0000000  0.6508444  3
   2145   2144   2164   2165     1  0.0000000  0.0000000  2
   2146   2144   2141   2147     1  0.0000000  0.6508444  3
   2146   2144   2164   2165     1  0.0000000  0.0000000  2
   2147   2148   2157   2158     1  0.0000000  0.6508444  3
   2147   2148   2157   2159     1  0.0000000  0.6508444  3
   2147   2151   2154   2155     1  0.0000000  0.6508444  3
   2147   2151   2154   2156     1  0.0000000  0.6508444  3
   2148   2147   2151   2152     1  0.0000000  1.2552000  3
   2148   2147   2151   2153     1  0.0000000  1.2552000  3
   2149   2148   2147   2151     1  0.0000000  1.2552000  3
   2149   2148   2157   2161     1  0.0000000  0.6508444  3
   2149   2148   2157   2158     1  0.0000000  0.6508444  3
   2149   2148   2157   2159     1  0.0000000  0.6508444  3
   2150   2148   2147   2151     1  0.0000000  1.2552000  3
   2150   2148   2157   2161     1  0.0000000  0.6508444  3
   2150   2148   2157   2158     1  0.0000000  0.6508444  3
   2150   2148   2157   2159     1  0.0000000  0.6508444  3
   2152   2151   2154   2160     1  0.0000000  0.6508444  3
   2152   2151   2154   2155     1  0.0000000  0.6508444  3
   2152   2151   2154   2156     1  0.0000000  0.6508444  3
   2153   2151   2154   2160     1  0.0000000  0.6508444  3
   2153   2151   2154   2155     1  0.0000000  0.6508444  3
   2153   2151   2154   2156     1  0.0000000  0.6508444  3
   2154   2160   3717   3718     1  180.0000771  10.4600000  2
   2155   2154   2160   3717     1  180.0000771  0.0000000  2
   2155   2154   2160   2162     1  0.0000000  3.3472000  1
   2155   2154   2160   2162     1  0.0000000  0.0000000  2
   2155   2154   2160   2162     1  180.0000771  0.3347200  3
   2156   2154   2160   3717     1  180.0000771  0.0000000  2
   2156   2154   2160   2162     1  0.0000000  3.3472000  1
   2156   2154   2160   2162     1  0.0000000  0.0000000  2
   2156   2154   2160   2162     1  180.0000771  0.3347200  3
   2157   2161   3729   3730     1  180.0000771  10.4600000  2
   2158   2157   2161   2163     1  0.0000000  3.3472000  1
   2158   2157   2161   2163     1  0.0000000  0.0000000  2
   2158   2157   2161   2163     1  180.0000771  0.3347200  3
   2158   2157   2161   3729     1  180.0000771  0.0000000  2
   2159   2157   2161   2163     1  0.0000000  3.3472000  1
   2159   2157   2161   2163     1  0.0000000  0.0000000  2
   2159   2157   2161   2163     1  180.0000771  0.3347200  3
   2159   2157   2161   3729     1  180.0000771  0.0000000  2
   2160   3717   3719   3721     1  0.0000000  0.0000000  2
   2160   3717   3719   3722     1  0.0000000  0.0000000  2
   2161   3729   3731   3733     1  0.0000000  0.0000000  2
   2161   3729   3731   3734     1  0.0000000  0.0000000  2
   2162   2160   3717   3718     1  0.0000000  8.3680000  1
   2162   2160   3717   3718     1  180.0000771  10.4600000  2
   2163   2161   3729   3730     1  0.0000000  8.3680000  1
   2163   2161   3729   3730     1  180.0000771  10.4600000  2
   2166   2169   2189   2190     1  0.0000000  0.0000000  2
   2166   2172   2173   2174     1  0.0000000  1.2552000  3
   2166   2172   2173   2175     1  0.0000000  1.2552000  3
   2166   2172   2176   2177     1  0.0000000  1.2552000  3
   2166   2172   2176   2178     1  0.0000000  1.2552000  3
   2167   2166   2169   2189     1  0.0000000  0.6508444  3
   2167   2166   2169   2170     1  0.0000000  0.6508444  3
   2167   2166   2169   2171     1  0.0000000  0.6508444  3
   2167   2166   2172   2173     1  0.0000000  1.2552000  3
   2167   2166   2172   2176     1  0.0000000  1.2552000  3
   2168   2166   2169   2189     1  0.0000000  0.6508444  3
   2168   2166   2169   2170     1  0.0000000  0.6508444  3
   2168   2166   2169   2171     1  0.0000000  0.6508444  3
   2168   2166   2172   2173     1  0.0000000  1.2552000  3
   2168   2166   2172   2176     1  0.0000000  1.2552000  3
   2170   2169   2166   2172     1  0.0000000  0.6508444  3
   2170   2169   2189   2190     1  0.0000000  0.0000000  2
   2171   2169   2166   2172     1  0.0000000  0.6508444  3
   2171   2169   2189   2190     1  0.0000000  0.0000000  2
   2172   2173   2182   2183     1  0.0000000  0.6508444  3
   2172   2173   2182   2184     1  0.0000000  0.6508444  3
   2172   2176   2179   2180     1  0.0000000  0.6508444  3
   2172   2176   2179   2181     1  0.0000000  0.6508444  3
   2173   2172   2176   2177     1  0.0000000  1.2552000  3
   2173   2172   2176   2178     1  0.0000000  1.2552000  3
   2174   2173   2172   2176     1  0.0000000  1.2552000  3
   2174   2173   2182   2186     1  0.0000000  0.6508444  3
   2174   2173   2182   2183     1  0.0000000  0.6508444  3
   2174   2173   2182   2184     1  0.0000000  0.6508444  3
   2175   2173   2172   2176     1  0.0000000  1.2552000  3
   2175   2173   2182   2186     1  0.0000000  0.6508444  3
   2175   2173   2182   2183     1  0.0000000  0.6508444  3
   2175   2173   2182   2184     1  0.0000000  0.6508444  3
   2177   2176   2179   2185     1  0.0000000  0.6508444  3
   2177   2176   2179   2180     1  0.0000000  0.6508444  3
   2177   2176   2179   2181     1  0.0000000  0.6508444  3
   2178   2176   2179   2185     1  0.0000000  0.6508444  3
   2178   2176   2179   2180     1  0.0000000  0.6508444  3
   2178   2176   2179   2181     1  0.0000000  0.6508444  3
   2179   2185   3741   3742     1  180.0000771  10.4600000  2
   2180   2179   2185   3741     1  180.0000771  0.0000000  2
   2180   2179   2185   2187     1  0.0000000  3.3472000  1
   2180   2179   2185   2187     1  0.0000000  0.0000000  2
   2180   2179   2185   2187     1  180.0000771  0.3347200  3
   2181   2179   2185   3741     1  180.0000771  0.0000000  2
   2181   2179   2185   2187     1  0.0000000  3.3472000  1
   2181   2179   2185   2187     1  0.0000000  0.0000000  2
   2181   2179   2185   2187     1  180.0000771  0.3347200  3
   2182   2186   3753   3754     1  180.0000771  10.4600000  2
   2183   2182   2186   2188     1  0.0000000  3.3472000  1
   2183   2182   2186   2188     1  0.0000000  0.0000000  2
   2183   2182   2186   2188     1  180.0000771  0.3347200  3
   2183   2182   2186   3753     1  180.0000771  0.0000000  2
   2184   2182   2186   2188     1  0.0000000  3.3472000  1
   2184   2182   2186   2188     1  0.0000000  0.0000000  2
   2184   2182   2186   2188     1  180.0000771  0.3347200  3
   2184   2182   2186   3753     1  180.0000771  0.0000000  2
   2185   3741   3743   3745     1  0.0000000  0.0000000  2
   2185   3741   3743   3746     1  0.0000000  0.0000000  2
   2186   3753   3755   3757     1  0.0000000  0.0000000  2
   2186   3753   3755   3758     1  0.0000000  0.0000000  2
   2187   2185   3741   3742     1  0.0000000  8.3680000  1
   2187   2185   3741   3742     1  180.0000771  10.4600000  2
   2188   2186   3753   3754     1  0.0000000  8.3680000  1
   2188   2186   3753   3754     1  180.0000771  10.4600000  2
   2191   2194   2214   2215     1  0.0000000  0.0000000  2
   2191   2197   2198   2199     1  0.0000000  1.2552000  3
   2191   2197   2198   2200     1  0.0000000  1.2552000  3
   2191   2197   2201   2202     1  0.0000000  1.2552000  3
   2191   2197   2201   2203     1  0.0000000  1.2552000  3
   2192   2191   2194   2214     1  0.0000000  0.6508444  3
   2192   2191   2194   2195     1  0.0000000  0.6508444  3
   2192   2191   2194   2196     1  0.0000000  0.6508444  3
   2192   2191   2197   2198     1  0.0000000  1.2552000  3
   2192   2191   2197   2201     1  0.0000000  1.2552000  3
   2193   2191   2194   2214     1  0.0000000  0.6508444  3
   2193   2191   2194   2195     1  0.0000000  0.6508444  3
   2193   2191   2194   2196     1  0.0000000  0.6508444  3
   2193   2191   2197   2198     1  0.0000000  1.2552000  3
   2193   2191   2197   2201     1  0.0000000  1.2552000  3
   2195   2194   2191   2197     1  0.0000000  0.6508444  3
   2195   2194   2214   2215     1  0.0000000  0.0000000  2
   2196   2194   2191   2197     1  0.0000000  0.6508444  3
   2196   2194   2214   2215     1  0.0000000  0.0000000  2
   2197   2198   2207   2208     1  0.0000000  0.6508444  3
   2197   2198   2207   2209     1  0.0000000  0.6508444  3
   2197   2201   2204   2205     1  0.0000000  0.6508444  3
   2197   2201   2204   2206     1  0.0000000  0.6508444  3
   2198   2197   2201   2202     1  0.0000000  1.2552000  3
   2198   2197   2201   2203     1  0.0000000  1.2552000  3
   2199   2198   2197   2201     1  0.0000000  1.2552000  3
   2199   2198   2207   2211     1  0.0000000  0.6508444  3
   2199   2198   2207   2208     1  0.0000000  0.6508444  3
   2199   2198   2207   2209     1  0.0000000  0.6508444  3
   2200   2198   2197   2201     1  0.0000000  1.2552000  3
   2200   2198   2207   2211     1  0.0000000  0.6508444  3
   2200   2198   2207   2208     1  0.0000000  0.6508444  3
   2200   2198   2207   2209     1  0.0000000  0.6508444  3
   2202   2201   2204   2210     1  0.0000000  0.6508444  3
   2202   2201   2204   2205     1  0.0000000  0.6508444  3
   2202   2201   2204   2206     1  0.0000000  0.6508444  3
   2203   2201   2204   2210     1  0.0000000  0.6508444  3
   2203   2201   2204   2205     1  0.0000000  0.6508444  3
   2203   2201   2204   2206     1  0.0000000  0.6508444  3
   2204   2210   3765   3766     1  180.0000771  10.4600000  2
   2205   2204   2210   3765     1  180.0000771  0.0000000  2
   2205   2204   2210   2212     1  0.0000000  3.3472000  1
   2205   2204   2210   2212     1  0.0000000  0.0000000  2
   2205   2204   2210   2212     1  180.0000771  0.3347200  3
   2206   2204   2210   3765     1  180.0000771  0.0000000  2
   2206   2204   2210   2212     1  0.0000000  3.3472000  1
   2206   2204   2210   2212     1  0.0000000  0.0000000  2
   2206   2204   2210   2212     1  180.0000771  0.3347200  3
   2207   2211   3777   3778     1  180.0000771  10.4600000  2
   2208   2207   2211   2213     1  0.0000000  3.3472000  1
   2208   2207   2211   2213     1  0.0000000  0.0000000  2
   2208   2207   2211   2213     1  180.0000771  0.3347200  3
   2208   2207   2211   3777     1  180.0000771  0.0000000  2
   2209   2207   2211   2213     1  0.0000000  3.3472000  1
   2209   2207   2211   2213     1  0.0000000  0.0000000  2
   2209   2207   2211   2213     1  180.0000771  0.3347200  3
   2209   2207   2211   3777     1  180.0000771  0.0000000  2
   2210   3765   3767   3769     1  0.0000000  0.0000000  2
   2210   3765   3767   3770     1  0.0000000  0.0000000  2
   2211   3777   3779   3781     1  0.0000000  0.0000000  2
   2211   3777   3779   3782     1  0.0000000  0.0000000  2
   2212   2210   3765   3766     1  0.0000000  8.3680000  1
   2212   2210   3765   3766     1  180.0000771  10.4600000  2
   2213   2211   3777   3778     1  0.0000000  8.3680000  1
   2213   2211   3777   3778     1  180.0000771  10.4600000  2
   2216   2219   2239   2240     1  0.0000000  0.0000000  2
   2216   2222   2223   2224     1  0.0000000  1.2552000  3
   2216   2222   2223   2225     1  0.0000000  1.2552000  3
   2216   2222   2226   2227     1  0.0000000  1.2552000  3
   2216   2222   2226   2228     1  0.0000000  1.2552000  3
   2217   2216   2219   2239     1  0.0000000  0.6508444  3
   2217   2216   2219   2220     1  0.0000000  0.6508444  3
   2217   2216   2219   2221     1  0.0000000  0.6508444  3
   2217   2216   2222   2223     1  0.0000000  1.2552000  3
   2217   2216   2222   2226     1  0.0000000  1.2552000  3
   2218   2216   2219   2239     1  0.0000000  0.6508444  3
   2218   2216   2219   2220     1  0.0000000  0.6508444  3
   2218   2216   2219   2221     1  0.0000000  0.6508444  3
   2218   2216   2222   2223     1  0.0000000  1.2552000  3
   2218   2216   2222   2226     1  0.0000000  1.2552000  3
   2220   2219   2216   2222     1  0.0000000  0.6508444  3
   2220   2219   2239   2240     1  0.0000000  0.0000000  2
   2221   2219   2216   2222     1  0.0000000  0.6508444  3
   2221   2219   2239   2240     1  0.0000000  0.0000000  2
   2222   2223   2232   2233     1  0.0000000  0.6508444  3
   2222   2223   2232   2234     1  0.0000000  0.6508444  3
   2222   2226   2229   2230     1  0.0000000  0.6508444  3
   2222   2226   2229   2231     1  0.0000000  0.6508444  3
   2223   2222   2226   2227     1  0.0000000  1.2552000  3
   2223   2222   2226   2228     1  0.0000000  1.2552000  3
   2224   2223   2222   2226     1  0.0000000  1.2552000  3
   2224   2223   2232   2236     1  0.0000000  0.6508444  3
   2224   2223   2232   2233     1  0.0000000  0.6508444  3
   2224   2223   2232   2234     1  0.0000000  0.6508444  3
   2225   2223   2222   2226     1  0.0000000  1.2552000  3
   2225   2223   2232   2236     1  0.0000000  0.6508444  3
   2225   2223   2232   2233     1  0.0000000  0.6508444  3
   2225   2223   2232   2234     1  0.0000000  0.6508444  3
   2227   2226   2229   2235     1  0.0000000  0.6508444  3
   2227   2226   2229   2230     1  0.0000000  0.6508444  3
   2227   2226   2229   2231     1  0.0000000  0.6508444  3
   2228   2226   2229   2235     1  0.0000000  0.6508444  3
   2228   2226   2229   2230     1  0.0000000  0.6508444  3
   2228   2226   2229   2231     1  0.0000000  0.6508444  3
   2229   2235   3789   3790     1  180.0000771  10.4600000  2
   2230   2229   2235   3789     1  180.0000771  0.0000000  2
   2230   2229   2235   2237     1  0.0000000  3.3472000  1
   2230   2229   2235   2237     1  0.0000000  0.0000000  2
   2230   2229   2235   2237     1  180.0000771  0.3347200  3
   2231   2229   2235   3789     1  180.0000771  0.0000000  2
   2231   2229   2235   2237     1  0.0000000  3.3472000  1
   2231   2229   2235   2237     1  0.0000000  0.0000000  2
   2231   2229   2235   2237     1  180.0000771  0.3347200  3
   2232   2236   3801   3802     1  180.0000771  10.4600000  2
   2233   2232   2236   2238     1  0.0000000  3.3472000  1
   2233   2232   2236   2238     1  0.0000000  0.0000000  2
   2233   2232   2236   2238     1  180.0000771  0.3347200  3
   2233   2232   2236   3801     1  180.0000771  0.0000000  2
   2234   2232   2236   2238     1  0.0000000  3.3472000  1
   2234   2232   2236   2238     1  0.0000000  0.0000000  2
   2234   2232   2236   2238     1  180.0000771  0.3347200  3
   2234   2232   2236   3801     1  180.0000771  0.0000000  2
   2235   3789   3791   3793     1  0.0000000  0.0000000  2
   2235   3789   3791   3794     1  0.0000000  0.0000000  2
   2236   3801   3803   3805     1  0.0000000  0.0000000  2
   2236   3801   3803   3806     1  0.0000000  0.0000000  2
   2237   2235   3789   3790     1  0.0000000  8.3680000  1
   2237   2235   3789   3790     1  180.0000771  10.4600000  2
   2238   2236   3801   3802     1  0.0000000  8.3680000  1
   2238   2236   3801   3802     1  180.0000771  10.4600000  2
   2241   2244   2264   2265     1  0.0000000  0.0000000  2
   2241   2247   2248   2249     1  0.0000000  1.2552000  3
   2241   2247   2248   2250     1  0.0000000  1.2552000  3
   2241   2247   2251   2252     1  0.0000000  1.2552000  3
   2241   2247   2251   2253     1  0.0000000  1.2552000  3
   2242   2241   2244   2264     1  0.0000000  0.6508444  3
   2242   2241   2244   2245     1  0.0000000  0.6508444  3
   2242   2241   2244   2246     1  0.0000000  0.6508444  3
   2242   2241   2247   2248     1  0.0000000  1.2552000  3
   2242   2241   2247   2251     1  0.0000000  1.2552000  3
   2243   2241   2244   2264     1  0.0000000  0.6508444  3
   2243   2241   2244   2245     1  0.0000000  0.6508444  3
   2243   2241   2244   2246     1  0.0000000  0.6508444  3
   2243   2241   2247   2248     1  0.0000000  1.2552000  3
   2243   2241   2247   2251     1  0.0000000  1.2552000  3
   2245   2244   2241   2247     1  0.0000000  0.6508444  3
   2245   2244   2264   2265     1  0.0000000  0.0000000  2
   2246   2244   2241   2247     1  0.0000000  0.6508444  3
   2246   2244   2264   2265     1  0.0000000  0.0000000  2
   2247   2248   2257   2258     1  0.0000000  0.6508444  3
   2247   2248   2257   2259     1  0.0000000  0.6508444  3
   2247   2251   2254   2255     1  0.0000000  0.6508444  3
   2247   2251   2254   2256     1  0.0000000  0.6508444  3
   2248   2247   2251   2252     1  0.0000000  1.2552000  3
   2248   2247   2251   2253     1  0.0000000  1.2552000  3
   2249   2248   2247   2251     1  0.0000000  1.2552000  3
   2249   2248   2257   2261     1  0.0000000  0.6508444  3
   2249   2248   2257   2258     1  0.0000000  0.6508444  3
   2249   2248   2257   2259     1  0.0000000  0.6508444  3
   2250   2248   2247   2251     1  0.0000000  1.2552000  3
   2250   2248   2257   2261     1  0.0000000  0.6508444  3
   2250   2248   2257   2258     1  0.0000000  0.6508444  3
   2250   2248   2257   2259     1  0.0000000  0.6508444  3
   2252   2251   2254   2260     1  0.0000000  0.6508444  3
   2252   2251   2254   2255     1  0.0000000  0.6508444  3
   2252   2251   2254   2256     1  0.0000000  0.6508444  3
   2253   2251   2254   2260     1  0.0000000  0.6508444  3
   2253   2251   2254   2255     1  0.0000000  0.6508444  3
   2253   2251   2254   2256     1  0.0000000  0.6508444  3
   2254   2260   3813   3814     1  180.0000771  10.4600000  2
   2255   2254   2260   3813     1  180.0000771  0.0000000  2
   2255   2254   2260   2262     1  0.0000000  3.3472000  1
   2255   2254   2260   2262     1  0.0000000  0.0000000  2
   2255   2254   2260   2262     1  180.0000771  0.3347200  3
   2256   2254   2260   3813     1  180.0000771  0.0000000  2
   2256   2254   2260   2262     1  0.0000000  3.3472000  1
   2256   2254   2260   2262     1  0.0000000  0.0000000  2
   2256   2254   2260   2262     1  180.0000771  0.3347200  3
   2257   2261   3825   3826     1  180.0000771  10.4600000  2
   2258   2257   2261   2263     1  0.0000000  3.3472000  1
   2258   2257   2261   2263     1  0.0000000  0.0000000  2
   2258   2257   2261   2263     1  180.0000771  0.3347200  3
   2258   2257   2261   3825     1  180.0000771  0.0000000  2
   2259   2257   2261   2263     1  0.0000000  3.3472000  1
   2259   2257   2261   2263     1  0.0000000  0.0000000  2
   2259   2257   2261   2263     1  180.0000771  0.3347200  3
   2259   2257   2261   3825     1  180.0000771  0.0000000  2
   2260   3813   3815   3817     1  0.0000000  0.0000000  2
   2260   3813   3815   3818     1  0.0000000  0.0000000  2
   2261   3825   3827   3829     1  0.0000000  0.0000000  2
   2261   3825   3827   3830     1  0.0000000  0.0000000  2
   2262   2260   3813   3814     1  0.0000000  8.3680000  1
   2262   2260   3813   3814     1  180.0000771  10.4600000  2
   2263   2261   3825   3826     1  0.0000000  8.3680000  1
   2263   2261   3825   3826     1  180.0000771  10.4600000  2
   2266   2269   2289   2290     1  0.0000000  0.0000000  2
   2266   2272   2273   2274     1  0.0000000  1.2552000  3
   2266   2272   2273   2275     1  0.0000000  1.2552000  3
   2266   2272   2276   2277     1  0.0000000  1.2552000  3
   2266   2272   2276   2278     1  0.0000000  1.2552000  3
   2267   2266   2269   2289     1  0.0000000  0.6508444  3
   2267   2266   2269   2270     1  0.0000000  0.6508444  3
   2267   2266   2269   2271     1  0.0000000  0.6508444  3
   2267   2266   2272   2273     1  0.0000000  1.2552000  3
   2267   2266   2272   2276     1  0.0000000  1.2552000  3
   2268   2266   2269   2289     1  0.0000000  0.6508444  3
   2268   2266   2269   2270     1  0.0000000  0.6508444  3
   2268   2266   2269   2271     1  0.0000000  0.6508444  3
   2268   2266   2272   2273     1  0.0000000  1.2552000  3
   2268   2266   2272   2276     1  0.0000000  1.2552000  3
   2270   2269   2266   2272     1  0.0000000  0.6508444  3
   2270   2269   2289   2290     1  0.0000000  0.0000000  2
   2271   2269   2266   2272     1  0.0000000  0.6508444  3
   2271   2269   2289   2290     1  0.0000000  0.0000000  2
   2272   2273   2282   2283     1  0.0000000  0.6508444  3
   2272   2273   2282   2284     1  0.0000000  0.6508444  3
   2272   2276   2279   2280     1  0.0000000  0.6508444  3
   2272   2276   2279   2281     1  0.0000000  0.6508444  3
   2273   2272   2276   2277     1  0.0000000  1.2552000  3
   2273   2272   2276   2278     1  0.0000000  1.2552000  3
   2274   2273   2272   2276     1  0.0000000  1.2552000  3
   2274   2273   2282   2286     1  0.0000000  0.6508444  3
   2274   2273   2282   2283     1  0.0000000  0.6508444  3
   2274   2273   2282   2284     1  0.0000000  0.6508444  3
   2275   2273   2272   2276     1  0.0000000  1.2552000  3
   2275   2273   2282   2286     1  0.0000000  0.6508444  3
   2275   2273   2282   2283     1  0.0000000  0.6508444  3
   2275   2273   2282   2284     1  0.0000000  0.6508444  3
   2277   2276   2279   2285     1  0.0000000  0.6508444  3
   2277   2276   2279   2280     1  0.0000000  0.6508444  3
   2277   2276   2279   2281     1  0.0000000  0.6508444  3
   2278   2276   2279   2285     1  0.0000000  0.6508444  3
   2278   2276   2279   2280     1  0.0000000  0.6508444  3
   2278   2276   2279   2281     1  0.0000000  0.6508444  3
   2279   2285   3837   3838     1  180.0000771  10.4600000  2
   2280   2279   2285   3837     1  180.0000771  0.0000000  2
   2280   2279   2285   2287     1  0.0000000  3.3472000  1
   2280   2279   2285   2287     1  0.0000000  0.0000000  2
   2280   2279   2285   2287     1  180.0000771  0.3347200  3
   2281   2279   2285   3837     1  180.0000771  0.0000000  2
   2281   2279   2285   2287     1  0.0000000  3.3472000  1
   2281   2279   2285   2287     1  0.0000000  0.0000000  2
   2281   2279   2285   2287     1  180.0000771  0.3347200  3
   2282   2286   3849   3850     1  180.0000771  10.4600000  2
   2283   2282   2286   2288     1  0.0000000  3.3472000  1
   2283   2282   2286   2288     1  0.0000000  0.0000000  2
   2283   2282   2286   2288     1  180.0000771  0.3347200  3
   2283   2282   2286   3849     1  180.0000771  0.0000000  2
   2284   2282   2286   2288     1  0.0000000  3.3472000  1
   2284   2282   2286   2288     1  0.0000000  0.0000000  2
   2284   2282   2286   2288     1  180.0000771  0.3347200  3
   2284   2282   2286   3849     1  180.0000771  0.0000000  2
   2285   3837   3839   3841     1  0.0000000  0.0000000  2
   2285   3837   3839   3842     1  0.0000000  0.0000000  2
   2286   3849   3851   3853     1  0.0000000  0.0000000  2
   2286   3849   3851   3854     1  0.0000000  0.0000000  2
   2287   2285   3837   3838     1  0.0000000  8.3680000  1
   2287   2285   3837   3838     1  180.0000771  10.4600000  2
   2288   2286   3849   3850     1  0.0000000  8.3680000  1
   2288   2286   3849   3850     1  180.0000771  10.4600000  2
   2291   2294   2314   2315     1  0.0000000  0.0000000  2
   2291   2297   2298   2299     1  0.0000000  1.2552000  3
   2291   2297   2298   2300     1  0.0000000  1.2552000  3
   2291   2297   2301   2302     1  0.0000000  1.2552000  3
   2291   2297   2301   2303     1  0.0000000  1.2552000  3
   2292   2291   2294   2314     1  0.0000000  0.6508444  3
   2292   2291   2294   2295     1  0.0000000  0.6508444  3
   2292   2291   2294   2296     1  0.0000000  0.6508444  3
   2292   2291   2297   2298     1  0.0000000  1.2552000  3
   2292   2291   2297   2301     1  0.0000000  1.2552000  3
   2293   2291   2294   2314     1  0.0000000  0.6508444  3
   2293   2291   2294   2295     1  0.0000000  0.6508444  3
   2293   2291   2294   2296     1  0.0000000  0.6508444  3
   2293   2291   2297   2298     1  0.0000000  1.2552000  3
   2293   2291   2297   2301     1  0.0000000  1.2552000  3
   2295   2294   2291   2297     1  0.0000000  0.6508444  3
   2295   2294   2314   2315     1  0.0000000  0.0000000  2
   2296   2294   2291   2297     1  0.0000000  0.6508444  3
   2296   2294   2314   2315     1  0.0000000  0.0000000  2
   2297   2298   2307   2308     1  0.0000000  0.6508444  3
   2297   2298   2307   2309     1  0.0000000  0.6508444  3
   2297   2301   2304   2305     1  0.0000000  0.6508444  3
   2297   2301   2304   2306     1  0.0000000  0.6508444  3
   2298   2297   2301   2302     1  0.0000000  1.2552000  3
   2298   2297   2301   2303     1  0.0000000  1.2552000  3
   2299   2298   2297   2301     1  0.0000000  1.2552000  3
   2299   2298   2307   2311     1  0.0000000  0.6508444  3
   2299   2298   2307   2308     1  0.0000000  0.6508444  3
   2299   2298   2307   2309     1  0.0000000  0.6508444  3
   2300   2298   2297   2301     1  0.0000000  1.2552000  3
   2300   2298   2307   2311     1  0.0000000  0.6508444  3
   2300   2298   2307   2308     1  0.0000000  0.6508444  3
   2300   2298   2307   2309     1  0.0000000  0.6508444  3
   2302   2301   2304   2310     1  0.0000000  0.6508444  3
   2302   2301   2304   2305     1  0.0000000  0.6508444  3
   2302   2301   2304   2306     1  0.0000000  0.6508444  3
   2303   2301   2304   2310     1  0.0000000  0.6508444  3
   2303   2301   2304   2305     1  0.0000000  0.6508444  3
   2303   2301   2304   2306     1  0.0000000  0.6508444  3
   2304   2310   3861   3862     1  180.0000771  10.4600000  2
   2305   2304   2310   3861     1  180.0000771  0.0000000  2
   2305   2304   2310   2312     1  0.0000000  3.3472000  1
   2305   2304   2310   2312     1  0.0000000  0.0000000  2
   2305   2304   2310   2312     1  180.0000771  0.3347200  3
   2306   2304   2310   3861     1  180.0000771  0.0000000  2
   2306   2304   2310   2312     1  0.0000000  3.3472000  1
   2306   2304   2310   2312     1  0.0000000  0.0000000  2
   2306   2304   2310   2312     1  180.0000771  0.3347200  3
   2307   2311   3873   3874     1  180.0000771  10.4600000  2
   2308   2307   2311   2313     1  0.0000000  3.3472000  1
   2308   2307   2311   2313     1  0.0000000  0.0000000  2
   2308   2307   2311   2313     1  180.0000771  0.3347200  3
   2308   2307   2311   3873     1  180.0000771  0.0000000  2
   2309   2307   2311   2313     1  0.0000000  3.3472000  1
   2309   2307   2311   2313     1  0.0000000  0.0000000  2
   2309   2307   2311   2313     1  180.0000771  0.3347200  3
   2309   2307   2311   3873     1  180.0000771  0.0000000  2
   2310   3861   3863   3865     1  0.0000000  0.0000000  2
   2310   3861   3863   3866     1  0.0000000  0.0000000  2
   2311   3873   3875   3877     1  0.0000000  0.0000000  2
   2311   3873   3875   3878     1  0.0000000  0.0000000  2
   2312   2310   3861   3862     1  0.0000000  8.3680000  1
   2312   2310   3861   3862     1  180.0000771  10.4600000  2
   2313   2311   3873   3874     1  0.0000000  8.3680000  1
   2313   2311   3873   3874     1  180.0000771  10.4600000  2
   2316   2319   2339   2340     1  0.0000000  0.0000000  2
   2316   2322   2323   2324     1  0.0000000  1.2552000  3
   2316   2322   2323   2325     1  0.0000000  1.2552000  3
   2316   2322   2326   2327     1  0.0000000  1.2552000  3
   2316   2322   2326   2328     1  0.0000000  1.2552000  3
   2317   2316   2319   2339     1  0.0000000  0.6508444  3
   2317   2316   2319   2320     1  0.0000000  0.6508444  3
   2317   2316   2319   2321     1  0.0000000  0.6508444  3
   2317   2316   2322   2323     1  0.0000000  1.2552000  3
   2317   2316   2322   2326     1  0.0000000  1.2552000  3
   2318   2316   2319   2339     1  0.0000000  0.6508444  3
   2318   2316   2319   2320     1  0.0000000  0.6508444  3
   2318   2316   2319   2321     1  0.0000000  0.6508444  3
   2318   2316   2322   2323     1  0.0000000  1.2552000  3
   2318   2316   2322   2326     1  0.0000000  1.2552000  3
   2320   2319   2316   2322     1  0.0000000  0.6508444  3
   2320   2319   2339   2340     1  0.0000000  0.0000000  2
   2321   2319   2316   2322     1  0.0000000  0.6508444  3
   2321   2319   2339   2340     1  0.0000000  0.0000000  2
   2322   2323   2332   2333     1  0.0000000  0.6508444  3
   2322   2323   2332   2334     1  0.0000000  0.6508444  3
   2322   2326   2329   2330     1  0.0000000  0.6508444  3
   2322   2326   2329   2331     1  0.0000000  0.6508444  3
   2323   2322   2326   2327     1  0.0000000  1.2552000  3
   2323   2322   2326   2328     1  0.0000000  1.2552000  3
   2324   2323   2322   2326     1  0.0000000  1.2552000  3
   2324   2323   2332   2336     1  0.0000000  0.6508444  3
   2324   2323   2332   2333     1  0.0000000  0.6508444  3
   2324   2323   2332   2334     1  0.0000000  0.6508444  3
   2325   2323   2322   2326     1  0.0000000  1.2552000  3
   2325   2323   2332   2336     1  0.0000000  0.6508444  3
   2325   2323   2332   2333     1  0.0000000  0.6508444  3
   2325   2323   2332   2334     1  0.0000000  0.6508444  3
   2327   2326   2329   2335     1  0.0000000  0.6508444  3
   2327   2326   2329   2330     1  0.0000000  0.6508444  3
   2327   2326   2329   2331     1  0.0000000  0.6508444  3
   2328   2326   2329   2335     1  0.0000000  0.6508444  3
   2328   2326   2329   2330     1  0.0000000  0.6508444  3
   2328   2326   2329   2331     1  0.0000000  0.6508444  3
   2329   2335   3885   3886     1  180.0000771  10.4600000  2
   2330   2329   2335   3885     1  180.0000771  0.0000000  2
   2330   2329   2335   2337     1  0.0000000  3.3472000  1
   2330   2329   2335   2337     1  0.0000000  0.0000000  2
   2330   2329   2335   2337     1  180.0000771  0.3347200  3
   2331   2329   2335   3885     1  180.0000771  0.0000000  2
   2331   2329   2335   2337     1  0.0000000  3.3472000  1
   2331   2329   2335   2337     1  0.0000000  0.0000000  2
   2331   2329   2335   2337     1  180.0000771  0.3347200  3
   2332   2336   3897   3898     1  180.0000771  10.4600000  2
   2333   2332   2336   2338     1  0.0000000  3.3472000  1
   2333   2332   2336   2338     1  0.0000000  0.0000000  2
   2333   2332   2336   2338     1  180.0000771  0.3347200  3
   2333   2332   2336   3897     1  180.0000771  0.0000000  2
   2334   2332   2336   2338     1  0.0000000  3.3472000  1
   2334   2332   2336   2338     1  0.0000000  0.0000000  2
   2334   2332   2336   2338     1  180.0000771  0.3347200  3
   2334   2332   2336   3897     1  180.0000771  0.0000000  2
   2335   3885   3887   3889     1  0.0000000  0.0000000  2
   2335   3885   3887   3890     1  0.0000000  0.0000000  2
   2336   3897   3899   3901     1  0.0000000  0.0000000  2
   2336   3897   3899   3902     1  0.0000000  0.0000000  2
   2337   2335   3885   3886     1  0.0000000  8.3680000  1
   2337   2335   3885   3886     1  180.0000771  10.4600000  2
   2338   2336   3897   3898     1  0.0000000  8.3680000  1
   2338   2336   3897   3898     1  180.0000771  10.4600000  2
   2341   2344   2364   2365     1  0.0000000  0.0000000  2
   2341   2347   2348   2349     1  0.0000000  1.2552000  3
   2341   2347   2348   2350     1  0.0000000  1.2552000  3
   2341   2347   2351   2352     1  0.0000000  1.2552000  3
   2341   2347   2351   2353     1  0.0000000  1.2552000  3
   2342   2341   2344   2364     1  0.0000000  0.6508444  3
   2342   2341   2344   2345     1  0.0000000  0.6508444  3
   2342   2341   2344   2346     1  0.0000000  0.6508444  3
   2342   2341   2347   2348     1  0.0000000  1.2552000  3
   2342   2341   2347   2351     1  0.0000000  1.2552000  3
   2343   2341   2344   2364     1  0.0000000  0.6508444  3
   2343   2341   2344   2345     1  0.0000000  0.6508444  3
   2343   2341   2344   2346     1  0.0000000  0.6508444  3
   2343   2341   2347   2348     1  0.0000000  1.2552000  3
   2343   2341   2347   2351     1  0.0000000  1.2552000  3
   2345   2344   2341   2347     1  0.0000000  0.6508444  3
   2345   2344   2364   2365     1  0.0000000  0.0000000  2
   2346   2344   2341   2347     1  0.0000000  0.6508444  3
   2346   2344   2364   2365     1  0.0000000  0.0000000  2
   2347   2348   2357   2358     1  0.0000000  0.6508444  3
   2347   2348   2357   2359     1  0.0000000  0.6508444  3
   2347   2351   2354   2355     1  0.0000000  0.6508444  3
   2347   2351   2354   2356     1  0.0000000  0.6508444  3
   2348   2347   2351   2352     1  0.0000000  1.2552000  3
   2348   2347   2351   2353     1  0.0000000  1.2552000  3
   2349   2348   2347   2351     1  0.0000000  1.2552000  3
   2349   2348   2357   2361     1  0.0000000  0.6508444  3
   2349   2348   2357   2358     1  0.0000000  0.6508444  3
   2349   2348   2357   2359     1  0.0000000  0.6508444  3
   2350   2348   2347   2351     1  0.0000000  1.2552000  3
   2350   2348   2357   2361     1  0.0000000  0.6508444  3
   2350   2348   2357   2358     1  0.0000000  0.6508444  3
   2350   2348   2357   2359     1  0.0000000  0.6508444  3
   2352   2351   2354   2360     1  0.0000000  0.6508444  3
   2352   2351   2354   2355     1  0.0000000  0.6508444  3
   2352   2351   2354   2356     1  0.0000000  0.6508444  3
   2353   2351   2354   2360     1  0.0000000  0.6508444  3
   2353   2351   2354   2355     1  0.0000000  0.6508444  3
   2353   2351   2354   2356     1  0.0000000  0.6508444  3
   2354   2360   3909   3910     1  180.0000771  10.4600000  2
   2355   2354   2360   3909     1  180.0000771  0.0000000  2
   2355   2354   2360   2362     1  0.0000000  3.3472000  1
   2355   2354   2360   2362     1  0.0000000  0.0000000  2
   2355   2354   2360   2362     1  180.0000771  0.3347200  3
   2356   2354   2360   3909     1  180.0000771  0.0000000  2
   2356   2354   2360   2362     1  0.0000000  3.3472000  1
   2356   2354   2360   2362     1  0.0000000  0.0000000  2
   2356   2354   2360   2362     1  180.0000771  0.3347200  3
   2357   2361   3921   3922     1  180.0000771  10.4600000  2
   2358   2357   2361   2363     1  0.0000000  3.3472000  1
   2358   2357   2361   2363     1  0.0000000  0.0000000  2
   2358   2357   2361   2363     1  180.0000771  0.3347200  3
   2358   2357   2361   3921     1  180.0000771  0.0000000  2
   2359   2357   2361   2363     1  0.0000000  3.3472000  1
   2359   2357   2361   2363     1  0.0000000  0.0000000  2
   2359   2357   2361   2363     1  180.0000771  0.3347200  3
   2359   2357   2361   3921     1  180.0000771  0.0000000  2
   2360   3909   3911   3913     1  0.0000000  0.0000000  2
   2360   3909   3911   3914     1  0.0000000  0.0000000  2
   2361   3921   3923   3925     1  0.0000000  0.0000000  2
   2361   3921   3923   3926     1  0.0000000  0.0000000  2
   2362   2360   3909   3910     1  0.0000000  8.3680000  1
   2362   2360   3909   3910     1  180.0000771  10.4600000  2
   2363   2361   3921   3922     1  0.0000000  8.3680000  1
   2363   2361   3921   3922     1  180.0000771  10.4600000  2
   2366   2369   2389   2390     1  0.0000000  0.0000000  2
   2366   2372   2373   2374     1  0.0000000  1.2552000  3
   2366   2372   2373   2375     1  0.0000000  1.2552000  3
   2366   2372   2376   2377     1  0.0000000  1.2552000  3
   2366   2372   2376   2378     1  0.0000000  1.2552000  3
   2367   2366   2369   2389     1  0.0000000  0.6508444  3
   2367   2366   2369   2370     1  0.0000000  0.6508444  3
   2367   2366   2369   2371     1  0.0000000  0.6508444  3
   2367   2366   2372   2373     1  0.0000000  1.2552000  3
   2367   2366   2372   2376     1  0.0000000  1.2552000  3
   2368   2366   2369   2389     1  0.0000000  0.6508444  3
   2368   2366   2369   2370     1  0.0000000  0.6508444  3
   2368   2366   2369   2371     1  0.0000000  0.6508444  3
   2368   2366   2372   2373     1  0.0000000  1.2552000  3
   2368   2366   2372   2376     1  0.0000000  1.2552000  3
   2370   2369   2366   2372     1  0.0000000  0.6508444  3
   2370   2369   2389   2390     1  0.0000000  0.0000000  2
   2371   2369   2366   2372     1  0.0000000  0.6508444  3
   2371   2369   2389   2390     1  0.0000000  0.0000000  2
   2372   2373   2382   2383     1  0.0000000  0.6508444  3
   2372   2373   2382   2384     1  0.0000000  0.6508444  3
   2372   2376   2379   2380     1  0.0000000  0.6508444  3
   2372   2376   2379   2381     1  0.0000000  0.6508444  3
   2373   2372   2376   2377     1  0.0000000  1.2552000  3
   2373   2372   2376   2378     1  0.0000000  1.2552000  3
   2374   2373   2372   2376     1  0.0000000  1.2552000  3
   2374   2373   2382   2386     1  0.0000000  0.6508444  3
   2374   2373   2382   2383     1  0.0000000  0.6508444  3
   2374   2373   2382   2384     1  0.0000000  0.6508444  3
   2375   2373   2372   2376     1  0.0000000  1.2552000  3
   2375   2373   2382   2386     1  0.0000000  0.6508444  3
   2375   2373   2382   2383     1  0.0000000  0.6508444  3
   2375   2373   2382   2384     1  0.0000000  0.6508444  3
   2377   2376   2379   2385     1  0.0000000  0.6508444  3
   2377   2376   2379   2380     1  0.0000000  0.6508444  3
   2377   2376   2379   2381     1  0.0000000  0.6508444  3
   2378   2376   2379   2385     1  0.0000000  0.6508444  3
   2378   2376   2379   2380     1  0.0000000  0.6508444  3
   2378   2376   2379   2381     1  0.0000000  0.6508444  3
   2379   2385   3933   3934     1  180.0000771  10.4600000  2
   2380   2379   2385   3933     1  180.0000771  0.0000000  2
   2380   2379   2385   2387     1  0.0000000  3.3472000  1
   2380   2379   2385   2387     1  0.0000000  0.0000000  2
   2380   2379   2385   2387     1  180.0000771  0.3347200  3
   2381   2379   2385   3933     1  180.0000771  0.0000000  2
   2381   2379   2385   2387     1  0.0000000  3.3472000  1
   2381   2379   2385   2387     1  0.0000000  0.0000000  2
   2381   2379   2385   2387     1  180.0000771  0.3347200  3
   2382   2386   3945   3946     1  180.0000771  10.4600000  2
   2383   2382   2386   2388     1  0.0000000  3.3472000  1
   2383   2382   2386   2388     1  0.0000000  0.0000000  2
   2383   2382   2386   2388     1  180.0000771  0.3347200  3
   2383   2382   2386   3945     1  180.0000771  0.0000000  2
   2384   2382   2386   2388     1  0.0000000  3.3472000  1
   2384   2382   2386   2388     1  0.0000000  0.0000000  2
   2384   2382   2386   2388     1  180.0000771  0.3347200  3
   2384   2382   2386   3945     1  180.0000771  0.0000000  2
   2385   3933   3935   3937     1  0.0000000  0.0000000  2
   2385   3933   3935   3938     1  0.0000000  0.0000000  2
   2386   3945   3947   3949     1  0.0000000  0.0000000  2
   2386   3945   3947   3950     1  0.0000000  0.0000000  2
   2387   2385   3933   3934     1  0.0000000  8.3680000  1
   2387   2385   3933   3934     1  180.0000771  10.4600000  2
   2388   2386   3945   3946     1  0.0000000  8.3680000  1
   2388   2386   3945   3946     1  180.0000771  10.4600000  2
   2391   2394   2414   2415     1  0.0000000  0.0000000  2
   2391   2397   2398   2399     1  0.0000000  1.2552000  3
   2391   2397   2398   2400     1  0.0000000  1.2552000  3
   2391   2397   2401   2402     1  0.0000000  1.2552000  3
   2391   2397   2401   2403     1  0.0000000  1.2552000  3
   2392   2391   2394   2414     1  0.0000000  0.6508444  3
   2392   2391   2394   2395     1  0.0000000  0.6508444  3
   2392   2391   2394   2396     1  0.0000000  0.6508444  3
   2392   2391   2397   2398     1  0.0000000  1.2552000  3
   2392   2391   2397   2401     1  0.0000000  1.2552000  3
   2393   2391   2394   2414     1  0.0000000  0.6508444  3
   2393   2391   2394   2395     1  0.0000000  0.6508444  3
   2393   2391   2394   2396     1  0.0000000  0.6508444  3
   2393   2391   2397   2398     1  0.0000000  1.2552000  3
   2393   2391   2397   2401     1  0.0000000  1.2552000  3
   2395   2394   2391   2397     1  0.0000000  0.6508444  3
   2395   2394   2414   2415     1  0.0000000  0.0000000  2
   2396   2394   2391   2397     1  0.0000000  0.6508444  3
   2396   2394   2414   2415     1  0.0000000  0.0000000  2
   2397   2398   2407   2408     1  0.0000000  0.6508444  3
   2397   2398   2407   2409     1  0.0000000  0.6508444  3
   2397   2401   2404   2405     1  0.0000000  0.6508444  3
   2397   2401   2404   2406     1  0.0000000  0.6508444  3
   2398   2397   2401   2402     1  0.0000000  1.2552000  3
   2398   2397   2401   2403     1  0.0000000  1.2552000  3
   2399   2398   2397   2401     1  0.0000000  1.2552000  3
   2399   2398   2407   2411     1  0.0000000  0.6508444  3
   2399   2398   2407   2408     1  0.0000000  0.6508444  3
   2399   2398   2407   2409     1  0.0000000  0.6508444  3
   2400   2398   2397   2401     1  0.0000000  1.2552000  3
   2400   2398   2407   2411     1  0.0000000  0.6508444  3
   2400   2398   2407   2408     1  0.0000000  0.6508444  3
   2400   2398   2407   2409     1  0.0000000  0.6508444  3
   2402   2401   2404   2410     1  0.0000000  0.6508444  3
   2402   2401   2404   2405     1  0.0000000  0.6508444  3
   2402   2401   2404   2406     1  0.0000000  0.6508444  3
   2403   2401   2404   2410     1  0.0000000  0.6508444  3
   2403   2401   2404   2405     1  0.0000000  0.6508444  3
   2403   2401   2404   2406     1  0.0000000  0.6508444  3
   2404   2410   3957   3958     1  180.0000771  10.4600000  2
   2405   2404   2410   3957     1  180.0000771  0.0000000  2
   2405   2404   2410   2412     1  0.0000000  3.3472000  1
   2405   2404   2410   2412     1  0.0000000  0.0000000  2
   2405   2404   2410   2412     1  180.0000771  0.3347200  3
   2406   2404   2410   3957     1  180.0000771  0.0000000  2
   2406   2404   2410   2412     1  0.0000000  3.3472000  1
   2406   2404   2410   2412     1  0.0000000  0.0000000  2
   2406   2404   2410   2412     1  180.0000771  0.3347200  3
   2407   2411   3969   3970     1  180.0000771  10.4600000  2
   2408   2407   2411   2413     1  0.0000000  3.3472000  1
   2408   2407   2411   2413     1  0.0000000  0.0000000  2
   2408   2407   2411   2413     1  180.0000771  0.3347200  3
   2408   2407   2411   3969     1  180.0000771  0.0000000  2
   2409   2407   2411   2413     1  0.0000000  3.3472000  1
   2409   2407   2411   2413     1  0.0000000  0.0000000  2
   2409   2407   2411   2413     1  180.0000771  0.3347200  3
   2409   2407   2411   3969     1  180.0000771  0.0000000  2
   2410   3957   3959   3961     1  0.0000000  0.0000000  2
   2410   3957   3959   3962     1  0.0000000  0.0000000  2
   2411   3969   3971   3973     1  0.0000000  0.0000000  2
   2411   3969   3971   3974     1  0.0000000  0.0000000  2
   2412   2410   3957   3958     1  0.0000000  8.3680000  1
   2412   2410   3957   3958     1  180.0000771  10.4600000  2
   2413   2411   3969   3970     1  0.0000000  8.3680000  1
   2413   2411   3969   3970     1  180.0000771  10.4600000  2
   2416   2419   2439   2440     1  0.0000000  0.0000000  2
   2416   2422   2423   2424     1  0.0000000  1.2552000  3
   2416   2422   2423   2425     1  0.0000000  1.2552000  3
   2416   2422   2426   2427     1  0.0000000  1.2552000  3
   2416   2422   2426   2428     1  0.0000000  1.2552000  3
   2417   2416   2419   2439     1  0.0000000  0.6508444  3
   2417   2416   2419   2420     1  0.0000000  0.6508444  3
   2417   2416   2419   2421     1  0.0000000  0.6508444  3
   2417   2416   2422   2423     1  0.0000000  1.2552000  3
   2417   2416   2422   2426     1  0.0000000  1.2552000  3
   2418   2416   2419   2439     1  0.0000000  0.6508444  3
   2418   2416   2419   2420     1  0.0000000  0.6508444  3
   2418   2416   2419   2421     1  0.0000000  0.6508444  3
   2418   2416   2422   2423     1  0.0000000  1.2552000  3
   2418   2416   2422   2426     1  0.0000000  1.2552000  3
   2420   2419   2416   2422     1  0.0000000  0.6508444  3
   2420   2419   2439   2440     1  0.0000000  0.0000000  2
   2421   2419   2416   2422     1  0.0000000  0.6508444  3
   2421   2419   2439   2440     1  0.0000000  0.0000000  2
   2422   2423   2432   2433     1  0.0000000  0.6508444  3
   2422   2423   2432   2434     1  0.0000000  0.6508444  3
   2422   2426   2429   2430     1  0.0000000  0.6508444  3
   2422   2426   2429   2431     1  0.0000000  0.6508444  3
   2423   2422   2426   2427     1  0.0000000  1.2552000  3
   2423   2422   2426   2428     1  0.0000000  1.2552000  3
   2424   2423   2422   2426     1  0.0000000  1.2552000  3
   2424   2423   2432   2436     1  0.0000000  0.6508444  3
   2424   2423   2432   2433     1  0.0000000  0.6508444  3
   2424   2423   2432   2434     1  0.0000000  0.6508444  3
   2425   2423   2422   2426     1  0.0000000  1.2552000  3
   2425   2423   2432   2436     1  0.0000000  0.6508444  3
   2425   2423   2432   2433     1  0.0000000  0.6508444  3
   2425   2423   2432   2434     1  0.0000000  0.6508444  3
   2427   2426   2429   2435     1  0.0000000  0.6508444  3
   2427   2426   2429   2430     1  0.0000000  0.6508444  3
   2427   2426   2429   2431     1  0.0000000  0.6508444  3
   2428   2426   2429   2435     1  0.0000000  0.6508444  3
   2428   2426   2429   2430     1  0.0000000  0.6508444  3
   2428   2426   2429   2431     1  0.0000000  0.6508444  3
   2429   2435   3981   3982     1  180.0000771  10.4600000  2
   2430   2429   2435   3981     1  180.0000771  0.0000000  2
   2430   2429   2435   2437     1  0.0000000  3.3472000  1
   2430   2429   2435   2437     1  0.0000000  0.0000000  2
   2430   2429   2435   2437     1  180.0000771  0.3347200  3
   2431   2429   2435   3981     1  180.0000771  0.0000000  2
   2431   2429   2435   2437     1  0.0000000  3.3472000  1
   2431   2429   2435   2437     1  0.0000000  0.0000000  2
   2431   2429   2435   2437     1  180.0000771  0.3347200  3
   2432   2436   3993   3994     1  180.0000771  10.4600000  2
   2433   2432   2436   2438     1  0.0000000  3.3472000  1
   2433   2432   2436   2438     1  0.0000000  0.0000000  2
   2433   2432   2436   2438     1  180.0000771  0.3347200  3
   2433   2432   2436   3993     1  180.0000771  0.0000000  2
   2434   2432   2436   2438     1  0.0000000  3.3472000  1
   2434   2432   2436   2438     1  0.0000000  0.0000000  2
   2434   2432   2436   2438     1  180.0000771  0.3347200  3
   2434   2432   2436   3993     1  180.0000771  0.0000000  2
   2435   3981   3983   3985     1  0.0000000  0.0000000  2
   2435   3981   3983   3986     1  0.0000000  0.0000000  2
   2436   3993   3995   3997     1  0.0000000  0.0000000  2
   2436   3993   3995   3998     1  0.0000000  0.0000000  2
   2437   2435   3981   3982     1  0.0000000  8.3680000  1
   2437   2435   3981   3982     1  180.0000771  10.4600000  2
   2438   2436   3993   3994     1  0.0000000  8.3680000  1
   2438   2436   3993   3994     1  180.0000771  10.4600000  2
   2441   2444   2464   2465     1  0.0000000  0.0000000  2
   2441   2447   2448   2449     1  0.0000000  1.2552000  3
   2441   2447   2448   2450     1  0.0000000  1.2552000  3
   2441   2447   2451   2452     1  0.0000000  1.2552000  3
   2441   2447   2451   2453     1  0.0000000  1.2552000  3
   2442   2441   2444   2464     1  0.0000000  0.6508444  3
   2442   2441   2444   2445     1  0.0000000  0.6508444  3
   2442   2441   2444   2446     1  0.0000000  0.6508444  3
   2442   2441   2447   2448     1  0.0000000  1.2552000  3
   2442   2441   2447   2451     1  0.0000000  1.2552000  3
   2443   2441   2444   2464     1  0.0000000  0.6508444  3
   2443   2441   2444   2445     1  0.0000000  0.6508444  3
   2443   2441   2444   2446     1  0.0000000  0.6508444  3
   2443   2441   2447   2448     1  0.0000000  1.2552000  3
   2443   2441   2447   2451     1  0.0000000  1.2552000  3
   2445   2444   2441   2447     1  0.0000000  0.6508444  3
   2445   2444   2464   2465     1  0.0000000  0.0000000  2
   2446   2444   2441   2447     1  0.0000000  0.6508444  3
   2446   2444   2464   2465     1  0.0000000  0.0000000  2
   2447   2448   2457   2458     1  0.0000000  0.6508444  3
   2447   2448   2457   2459     1  0.0000000  0.6508444  3
   2447   2451   2454   2455     1  0.0000000  0.6508444  3
   2447   2451   2454   2456     1  0.0000000  0.6508444  3
   2448   2447   2451   2452     1  0.0000000  1.2552000  3
   2448   2447   2451   2453     1  0.0000000  1.2552000  3
   2449   2448   2447   2451     1  0.0000000  1.2552000  3
   2449   2448   2457   2461     1  0.0000000  0.6508444  3
   2449   2448   2457   2458     1  0.0000000  0.6508444  3
   2449   2448   2457   2459     1  0.0000000  0.6508444  3
   2450   2448   2447   2451     1  0.0000000  1.2552000  3
   2450   2448   2457   2461     1  0.0000000  0.6508444  3
   2450   2448   2457   2458     1  0.0000000  0.6508444  3
   2450   2448   2457   2459     1  0.0000000  0.6508444  3
   2452   2451   2454   2460     1  0.0000000  0.6508444  3
   2452   2451   2454   2455     1  0.0000000  0.6508444  3
   2452   2451   2454   2456     1  0.0000000  0.6508444  3
   2453   2451   2454   2460     1  0.0000000  0.6508444  3
   2453   2451   2454   2455     1  0.0000000  0.6508444  3
   2453   2451   2454   2456     1  0.0000000  0.6508444  3
   2454   2460   4005   4006     1  180.0000771  10.4600000  2
   2455   2454   2460   4005     1  180.0000771  0.0000000  2
   2455   2454   2460   2462     1  0.0000000  3.3472000  1
   2455   2454   2460   2462     1  0.0000000  0.0000000  2
   2455   2454   2460   2462     1  180.0000771  0.3347200  3
   2456   2454   2460   4005     1  180.0000771  0.0000000  2
   2456   2454   2460   2462     1  0.0000000  3.3472000  1
   2456   2454   2460   2462     1  0.0000000  0.0000000  2
   2456   2454   2460   2462     1  180.0000771  0.3347200  3
   2457   2461   4017   4018     1  180.0000771  10.4600000  2
   2458   2457   2461   2463     1  0.0000000  3.3472000  1
   2458   2457   2461   2463     1  0.0000000  0.0000000  2
   2458   2457   2461   2463     1  180.0000771  0.3347200  3
   2458   2457   2461   4017     1  180.0000771  0.0000000  2
   2459   2457   2461   2463     1  0.0000000  3.3472000  1
   2459   2457   2461   2463     1  0.0000000  0.0000000  2
   2459   2457   2461   2463     1  180.0000771  0.3347200  3
   2459   2457   2461   4017     1  180.0000771  0.0000000  2
   2460   4005   4007   4009     1  0.0000000  0.0000000  2
   2460   4005   4007   4010     1  0.0000000  0.0000000  2
   2461   4017   4019   4021     1  0.0000000  0.0000000  2
   2461   4017   4019   4022     1  0.0000000  0.0000000  2
   2462   2460   4005   4006     1  0.0000000  8.3680000  1
   2462   2460   4005   4006     1  180.0000771  10.4600000  2
   2463   2461   4017   4018     1  0.0000000  8.3680000  1
   2463   2461   4017   4018     1  180.0000771  10.4600000  2
   2466   2469   2489   2490     1  0.0000000  0.0000000  2
   2466   2472   2473   2474     1  0.0000000  1.2552000  3
   2466   2472   2473   2475     1  0.0000000  1.2552000  3
   2466   2472   2476   2477     1  0.0000000  1.2552000  3
   2466   2472   2476   2478     1  0.0000000  1.2552000  3
   2467   2466   2469   2489     1  0.0000000  0.6508444  3
   2467   2466   2469   2470     1  0.0000000  0.6508444  3
   2467   2466   2469   2471     1  0.0000000  0.6508444  3
   2467   2466   2472   2473     1  0.0000000  1.2552000  3
   2467   2466   2472   2476     1  0.0000000  1.2552000  3
   2468   2466   2469   2489     1  0.0000000  0.6508444  3
   2468   2466   2469   2470     1  0.0000000  0.6508444  3
   2468   2466   2469   2471     1  0.0000000  0.6508444  3
   2468   2466   2472   2473     1  0.0000000  1.2552000  3
   2468   2466   2472   2476     1  0.0000000  1.2552000  3
   2470   2469   2466   2472     1  0.0000000  0.6508444  3
   2470   2469   2489   2490     1  0.0000000  0.0000000  2
   2471   2469   2466   2472     1  0.0000000  0.6508444  3
   2471   2469   2489   2490     1  0.0000000  0.0000000  2
   2472   2473   2482   2483     1  0.0000000  0.6508444  3
   2472   2473   2482   2484     1  0.0000000  0.6508444  3
   2472   2476   2479   2480     1  0.0000000  0.6508444  3
   2472   2476   2479   2481     1  0.0000000  0.6508444  3
   2473   2472   2476   2477     1  0.0000000  1.2552000  3
   2473   2472   2476   2478     1  0.0000000  1.2552000  3
   2474   2473   2472   2476     1  0.0000000  1.2552000  3
   2474   2473   2482   2486     1  0.0000000  0.6508444  3
   2474   2473   2482   2483     1  0.0000000  0.6508444  3
   2474   2473   2482   2484     1  0.0000000  0.6508444  3
   2475   2473   2472   2476     1  0.0000000  1.2552000  3
   2475   2473   2482   2486     1  0.0000000  0.6508444  3
   2475   2473   2482   2483     1  0.0000000  0.6508444  3
   2475   2473   2482   2484     1  0.0000000  0.6508444  3
   2477   2476   2479   2485     1  0.0000000  0.6508444  3
   2477   2476   2479   2480     1  0.0000000  0.6508444  3
   2477   2476   2479   2481     1  0.0000000  0.6508444  3
   2478   2476   2479   2485     1  0.0000000  0.6508444  3
   2478   2476   2479   2480     1  0.0000000  0.6508444  3
   2478   2476   2479   2481     1  0.0000000  0.6508444  3
   2479   2485   4029   4030     1  180.0000771  10.4600000  2
   2480   2479   2485   4029     1  180.0000771  0.0000000  2
   2480   2479   2485   2487     1  0.0000000  3.3472000  1
   2480   2479   2485   2487     1  0.0000000  0.0000000  2
   2480   2479   2485   2487     1  180.0000771  0.3347200  3
   2481   2479   2485   4029     1  180.0000771  0.0000000  2
   2481   2479   2485   2487     1  0.0000000  3.3472000  1
   2481   2479   2485   2487     1  0.0000000  0.0000000  2
   2481   2479   2485   2487     1  180.0000771  0.3347200  3
   2482   2486   4041   4042     1  180.0000771  10.4600000  2
   2483   2482   2486   2488     1  0.0000000  3.3472000  1
   2483   2482   2486   2488     1  0.0000000  0.0000000  2
   2483   2482   2486   2488     1  180.0000771  0.3347200  3
   2483   2482   2486   4041     1  180.0000771  0.0000000  2
   2484   2482   2486   2488     1  0.0000000  3.3472000  1
   2484   2482   2486   2488     1  0.0000000  0.0000000  2
   2484   2482   2486   2488     1  180.0000771  0.3347200  3
   2484   2482   2486   4041     1  180.0000771  0.0000000  2
   2485   4029   4031   4033     1  0.0000000  0.0000000  2
   2485   4029   4031   4034     1  0.0000000  0.0000000  2
   2486   4041   4043   4045     1  0.0000000  0.0000000  2
   2486   4041   4043   4046     1  0.0000000  0.0000000  2
   2487   2485   4029   4030     1  0.0000000  8.3680000  1
   2487   2485   4029   4030     1  180.0000771  10.4600000  2
   2488   2486   4041   4042     1  0.0000000  8.3680000  1
   2488   2486   4041   4042     1  180.0000771  10.4600000  2
   2491   2494   2514   2515     1  0.0000000  0.0000000  2
   2491   2497   2498   2499     1  0.0000000  1.2552000  3
   2491   2497   2498   2500     1  0.0000000  1.2552000  3
   2491   2497   2501   2502     1  0.0000000  1.2552000  3
   2491   2497   2501   2503     1  0.0000000  1.2552000  3
   2492   2491   2494   2514     1  0.0000000  0.6508444  3
   2492   2491   2494   2495     1  0.0000000  0.6508444  3
   2492   2491   2494   2496     1  0.0000000  0.6508444  3
   2492   2491   2497   2498     1  0.0000000  1.2552000  3
   2492   2491   2497   2501     1  0.0000000  1.2552000  3
   2493   2491   2494   2514     1  0.0000000  0.6508444  3
   2493   2491   2494   2495     1  0.0000000  0.6508444  3
   2493   2491   2494   2496     1  0.0000000  0.6508444  3
   2493   2491   2497   2498     1  0.0000000  1.2552000  3
   2493   2491   2497   2501     1  0.0000000  1.2552000  3
   2495   2494   2491   2497     1  0.0000000  0.6508444  3
   2495   2494   2514   2515     1  0.0000000  0.0000000  2
   2496   2494   2491   2497     1  0.0000000  0.6508444  3
   2496   2494   2514   2515     1  0.0000000  0.0000000  2
   2497   2498   2507   2508     1  0.0000000  0.6508444  3
   2497   2498   2507   2509     1  0.0000000  0.6508444  3
   2497   2501   2504   2505     1  0.0000000  0.6508444  3
   2497   2501   2504   2506     1  0.0000000  0.6508444  3
   2498   2497   2501   2502     1  0.0000000  1.2552000  3
   2498   2497   2501   2503     1  0.0000000  1.2552000  3
   2499   2498   2497   2501     1  0.0000000  1.2552000  3
   2499   2498   2507   2511     1  0.0000000  0.6508444  3
   2499   2498   2507   2508     1  0.0000000  0.6508444  3
   2499   2498   2507   2509     1  0.0000000  0.6508444  3
   2500   2498   2497   2501     1  0.0000000  1.2552000  3
   2500   2498   2507   2511     1  0.0000000  0.6508444  3
   2500   2498   2507   2508     1  0.0000000  0.6508444  3
   2500   2498   2507   2509     1  0.0000000  0.6508444  3
   2502   2501   2504   2510     1  0.0000000  0.6508444  3
   2502   2501   2504   2505     1  0.0000000  0.6508444  3
   2502   2501   2504   2506     1  0.0000000  0.6508444  3
   2503   2501   2504   2510     1  0.0000000  0.6508444  3
   2503   2501   2504   2505     1  0.0000000  0.6508444  3
   2503   2501   2504   2506     1  0.0000000  0.6508444  3
   2504   2510   4053   4054     1  180.0000771  10.4600000  2
   2505   2504   2510   4053     1  180.0000771  0.0000000  2
   2505   2504   2510   2512     1  0.0000000  3.3472000  1
   2505   2504   2510   2512     1  0.0000000  0.0000000  2
   2505   2504   2510   2512     1  180.0000771  0.3347200  3
   2506   2504   2510   4053     1  180.0000771  0.0000000  2
   2506   2504   2510   2512     1  0.0000000  3.3472000  1
   2506   2504   2510   2512     1  0.0000000  0.0000000  2
   2506   2504   2510   2512     1  180.0000771  0.3347200  3
   2507   2511   4065   4066     1  180.0000771  10.4600000  2
   2508   2507   2511   2513     1  0.0000000  3.3472000  1
   2508   2507   2511   2513     1  0.0000000  0.0000000  2
   2508   2507   2511   2513     1  180.0000771  0.3347200  3
   2508   2507   2511   4065     1  180.0000771  0.0000000  2
   2509   2507   2511   2513     1  0.0000000  3.3472000  1
   2509   2507   2511   2513     1  0.0000000  0.0000000  2
   2509   2507   2511   2513     1  180.0000771  0.3347200  3
   2509   2507   2511   4065     1  180.0000771  0.0000000  2
   2510   4053   4055   4057     1  0.0000000  0.0000000  2
   2510   4053   4055   4058     1  0.0000000  0.0000000  2
   2511   4065   4067   4069     1  0.0000000  0.0000000  2
   2511   4065   4067   4070     1  0.0000000  0.0000000  2
   2512   2510   4053   4054     1  0.0000000  8.3680000  1
   2512   2510   4053   4054     1  180.0000771  10.4600000  2
   2513   2511   4065   4066     1  0.0000000  8.3680000  1
   2513   2511   4065   4066     1  180.0000771  10.4600000  2
   2516   2519   2539   2540     1  0.0000000  0.0000000  2
   2516   2522   2523   2524     1  0.0000000  1.2552000  3
   2516   2522   2523   2525     1  0.0000000  1.2552000  3
   2516   2522   2526   2527     1  0.0000000  1.2552000  3
   2516   2522   2526   2528     1  0.0000000  1.2552000  3
   2517   2516   2519   2539     1  0.0000000  0.6508444  3
   2517   2516   2519   2520     1  0.0000000  0.6508444  3
   2517   2516   2519   2521     1  0.0000000  0.6508444  3
   2517   2516   2522   2523     1  0.0000000  1.2552000  3
   2517   2516   2522   2526     1  0.0000000  1.2552000  3
   2518   2516   2519   2539     1  0.0000000  0.6508444  3
   2518   2516   2519   2520     1  0.0000000  0.6508444  3
   2518   2516   2519   2521     1  0.0000000  0.6508444  3
   2518   2516   2522   2523     1  0.0000000  1.2552000  3
   2518   2516   2522   2526     1  0.0000000  1.2552000  3
   2520   2519   2516   2522     1  0.0000000  0.6508444  3
   2520   2519   2539   2540     1  0.0000000  0.0000000  2
   2521   2519   2516   2522     1  0.0000000  0.6508444  3
   2521   2519   2539   2540     1  0.0000000  0.0000000  2
   2522   2523   2532   2533     1  0.0000000  0.6508444  3
   2522   2523   2532   2534     1  0.0000000  0.6508444  3
   2522   2526   2529   2530     1  0.0000000  0.6508444  3
   2522   2526   2529   2531     1  0.0000000  0.6508444  3
   2523   2522   2526   2527     1  0.0000000  1.2552000  3
   2523   2522   2526   2528     1  0.0000000  1.2552000  3
   2524   2523   2522   2526     1  0.0000000  1.2552000  3
   2524   2523   2532   2536     1  0.0000000  0.6508444  3
   2524   2523   2532   2533     1  0.0000000  0.6508444  3
   2524   2523   2532   2534     1  0.0000000  0.6508444  3
   2525   2523   2522   2526     1  0.0000000  1.2552000  3
   2525   2523   2532   2536     1  0.0000000  0.6508444  3
   2525   2523   2532   2533     1  0.0000000  0.6508444  3
   2525   2523   2532   2534     1  0.0000000  0.6508444  3
   2527   2526   2529   2535     1  0.0000000  0.6508444  3
   2527   2526   2529   2530     1  0.0000000  0.6508444  3
   2527   2526   2529   2531     1  0.0000000  0.6508444  3
   2528   2526   2529   2535     1  0.0000000  0.6508444  3
   2528   2526   2529   2530     1  0.0000000  0.6508444  3
   2528   2526   2529   2531     1  0.0000000  0.6508444  3
   2529   2535   4077   4078     1  180.0000771  10.4600000  2
   2530   2529   2535   4077     1  180.0000771  0.0000000  2
   2530   2529   2535   2537     1  0.0000000  3.3472000  1
   2530   2529   2535   2537     1  0.0000000  0.0000000  2
   2530   2529   2535   2537     1  180.0000771  0.3347200  3
   2531   2529   2535   4077     1  180.0000771  0.0000000  2
   2531   2529   2535   2537     1  0.0000000  3.3472000  1
   2531   2529   2535   2537     1  0.0000000  0.0000000  2
   2531   2529   2535   2537     1  180.0000771  0.3347200  3
   2532   2536   4089   4090     1  180.0000771  10.4600000  2
   2533   2532   2536   2538     1  0.0000000  3.3472000  1
   2533   2532   2536   2538     1  0.0000000  0.0000000  2
   2533   2532   2536   2538     1  180.0000771  0.3347200  3
   2533   2532   2536   4089     1  180.0000771  0.0000000  2
   2534   2532   2536   2538     1  0.0000000  3.3472000  1
   2534   2532   2536   2538     1  0.0000000  0.0000000  2
   2534   2532   2536   2538     1  180.0000771  0.3347200  3
   2534   2532   2536   4089     1  180.0000771  0.0000000  2
   2535   4077   4079   4081     1  0.0000000  0.0000000  2
   2535   4077   4079   4082     1  0.0000000  0.0000000  2
   2536   4089   4091   4093     1  0.0000000  0.0000000  2
   2536   4089   4091   4094     1  0.0000000  0.0000000  2
   2537   2535   4077   4078     1  0.0000000  8.3680000  1
   2537   2535   4077   4078     1  180.0000771  10.4600000  2
   2538   2536   4089   4090     1  0.0000000  8.3680000  1
   2538   2536   4089   4090     1  180.0000771  10.4600000  2
   2541   2544   2564   2565     1  0.0000000  0.0000000  2
   2541   2547   2548   2549     1  0.0000000  1.2552000  3
   2541   2547   2548   2550     1  0.0000000  1.2552000  3
   2541   2547   2551   2552     1  0.0000000  1.2552000  3
   2541   2547   2551   2553     1  0.0000000  1.2552000  3
   2542   2541   2544   2564     1  0.0000000  0.6508444  3
   2542   2541   2544   2545     1  0.0000000  0.6508444  3
   2542   2541   2544   2546     1  0.0000000  0.6508444  3
   2542   2541   2547   2548     1  0.0000000  1.2552000  3
   2542   2541   2547   2551     1  0.0000000  1.2552000  3
   2543   2541   2544   2564     1  0.0000000  0.6508444  3
   2543   2541   2544   2545     1  0.0000000  0.6508444  3
   2543   2541   2544   2546     1  0.0000000  0.6508444  3
   2543   2541   2547   2548     1  0.0000000  1.2552000  3
   2543   2541   2547   2551     1  0.0000000  1.2552000  3
   2545   2544   2541   2547     1  0.0000000  0.6508444  3
   2545   2544   2564   2565     1  0.0000000  0.0000000  2
   2546   2544   2541   2547     1  0.0000000  0.6508444  3
   2546   2544   2564   2565     1  0.0000000  0.0000000  2
   2547   2548   2557   2558     1  0.0000000  0.6508444  3
   2547   2548   2557   2559     1  0.0000000  0.6508444  3
   2547   2551   2554   2555     1  0.0000000  0.6508444  3
   2547   2551   2554   2556     1  0.0000000  0.6508444  3
   2548   2547   2551   2552     1  0.0000000  1.2552000  3
   2548   2547   2551   2553     1  0.0000000  1.2552000  3
   2549   2548   2547   2551     1  0.0000000  1.2552000  3
   2549   2548   2557   2561     1  0.0000000  0.6508444  3
   2549   2548   2557   2558     1  0.0000000  0.6508444  3
   2549   2548   2557   2559     1  0.0000000  0.6508444  3
   2550   2548   2547   2551     1  0.0000000  1.2552000  3
   2550   2548   2557   2561     1  0.0000000  0.6508444  3
   2550   2548   2557   2558     1  0.0000000  0.6508444  3
   2550   2548   2557   2559     1  0.0000000  0.6508444  3
   2552   2551   2554   2560     1  0.0000000  0.6508444  3
   2552   2551   2554   2555     1  0.0000000  0.6508444  3
   2552   2551   2554   2556     1  0.0000000  0.6508444  3
   2553   2551   2554   2560     1  0.0000000  0.6508444  3
   2553   2551   2554   2555     1  0.0000000  0.6508444  3
   2553   2551   2554   2556     1  0.0000000  0.6508444  3
   2554   2560   4101   4102     1  180.0000771  10.4600000  2
   2555   2554   2560   4101     1  180.0000771  0.0000000  2
   2555   2554   2560   2562     1  0.0000000  3.3472000  1
   2555   2554   2560   2562     1  0.0000000  0.0000000  2
   2555   2554   2560   2562     1  180.0000771  0.3347200  3
   2556   2554   2560   4101     1  180.0000771  0.0000000  2
   2556   2554   2560   2562     1  0.0000000  3.3472000  1
   2556   2554   2560   2562     1  0.0000000  0.0000000  2
   2556   2554   2560   2562     1  180.0000771  0.3347200  3
   2557   2561   4113   4114     1  180.0000771  10.4600000  2
   2558   2557   2561   2563     1  0.0000000  3.3472000  1
   2558   2557   2561   2563     1  0.0000000  0.0000000  2
   2558   2557   2561   2563     1  180.0000771  0.3347200  3
   2558   2557   2561   4113     1  180.0000771  0.0000000  2
   2559   2557   2561   2563     1  0.0000000  3.3472000  1
   2559   2557   2561   2563     1  0.0000000  0.0000000  2
   2559   2557   2561   2563     1  180.0000771  0.3347200  3
   2559   2557   2561   4113     1  180.0000771  0.0000000  2
   2560   4101   4103   4105     1  0.0000000  0.0000000  2
   2560   4101   4103   4106     1  0.0000000  0.0000000  2
   2561   4113   4115   4117     1  0.0000000  0.0000000  2
   2561   4113   4115   4118     1  0.0000000  0.0000000  2
   2562   2560   4101   4102     1  0.0000000  8.3680000  1
   2562   2560   4101   4102     1  180.0000771  10.4600000  2
   2563   2561   4113   4114     1  0.0000000  8.3680000  1
   2563   2561   4113   4114     1  180.0000771  10.4600000  2
   2566   2569   2589   2590     1  0.0000000  0.0000000  2
   2566   2572   2573   2574     1  0.0000000  1.2552000  3
   2566   2572   2573   2575     1  0.0000000  1.2552000  3
   2566   2572   2576   2577     1  0.0000000  1.2552000  3
   2566   2572   2576   2578     1  0.0000000  1.2552000  3
   2567   2566   2569   2589     1  0.0000000  0.6508444  3
   2567   2566   2569   2570     1  0.0000000  0.6508444  3
   2567   2566   2569   2571     1  0.0000000  0.6508444  3
   2567   2566   2572   2573     1  0.0000000  1.2552000  3
   2567   2566   2572   2576     1  0.0000000  1.2552000  3
   2568   2566   2569   2589     1  0.0000000  0.6508444  3
   2568   2566   2569   2570     1  0.0000000  0.6508444  3
   2568   2566   2569   2571     1  0.0000000  0.6508444  3
   2568   2566   2572   2573     1  0.0000000  1.2552000  3
   2568   2566   2572   2576     1  0.0000000  1.2552000  3
   2570   2569   2566   2572     1  0.0000000  0.6508444  3
   2570   2569   2589   2590     1  0.0000000  0.0000000  2
   2571   2569   2566   2572     1  0.0000000  0.6508444  3
   2571   2569   2589   2590     1  0.0000000  0.0000000  2
   2572   2573   2582   2583     1  0.0000000  0.6508444  3
   2572   2573   2582   2584     1  0.0000000  0.6508444  3
   2572   2576   2579   2580     1  0.0000000  0.6508444  3
   2572   2576   2579   2581     1  0.0000000  0.6508444  3
   2573   2572   2576   2577     1  0.0000000  1.2552000  3
   2573   2572   2576   2578     1  0.0000000  1.2552000  3
   2574   2573   2572   2576     1  0.0000000  1.2552000  3
   2574   2573   2582   2586     1  0.0000000  0.6508444  3
   2574   2573   2582   2583     1  0.0000000  0.6508444  3
   2574   2573   2582   2584     1  0.0000000  0.6508444  3
   2575   2573   2572   2576     1  0.0000000  1.2552000  3
   2575   2573   2582   2586     1  0.0000000  0.6508444  3
   2575   2573   2582   2583     1  0.0000000  0.6508444  3
   2575   2573   2582   2584     1  0.0000000  0.6508444  3
   2577   2576   2579   2585     1  0.0000000  0.6508444  3
   2577   2576   2579   2580     1  0.0000000  0.6508444  3
   2577   2576   2579   2581     1  0.0000000  0.6508444  3
   2578   2576   2579   2585     1  0.0000000  0.6508444  3
   2578   2576   2579   2580     1  0.0000000  0.6508444  3
   2578   2576   2579   2581     1  0.0000000  0.6508444  3
   2579   2585   4125   4126     1  180.0000771  10.4600000  2
   2580   2579   2585   4125     1  180.0000771  0.0000000  2
   2580   2579   2585   2587     1  0.0000000  3.3472000  1
   2580   2579   2585   2587     1  0.0000000  0.0000000  2
   2580   2579   2585   2587     1  180.0000771  0.3347200  3
   2581   2579   2585   4125     1  180.0000771  0.0000000  2
   2581   2579   2585   2587     1  0.0000000  3.3472000  1
   2581   2579   2585   2587     1  0.0000000  0.0000000  2
   2581   2579   2585   2587     1  180.0000771  0.3347200  3
   2582   2586   4137   4138     1  180.0000771  10.4600000  2
   2583   2582   2586   2588     1  0.0000000  3.3472000  1
   2583   2582   2586   2588     1  0.0000000  0.0000000  2
   2583   2582   2586   2588     1  180.0000771  0.3347200  3
   2583   2582   2586   4137     1  180.0000771  0.0000000  2
   2584   2582   2586   2588     1  0.0000000  3.3472000  1
   2584   2582   2586   2588     1  0.0000000  0.0000000  2
   2584   2582   2586   2588     1  180.0000771  0.3347200  3
   2584   2582   2586   4137     1  180.0000771  0.0000000  2
   2585   4125   4127   4129     1  0.0000000  0.0000000  2
   2585   4125   4127   4130     1  0.0000000  0.0000000  2
   2586   4137   4139   4141     1  0.0000000  0.0000000  2
   2586   4137   4139   4142     1  0.0000000  0.0000000  2
   2587   2585   4125   4126     1  0.0000000  8.3680000  1
   2587   2585   4125   4126     1  180.0000771  10.4600000  2
   2588   2586   4137   4138     1  0.0000000  8.3680000  1
   2588   2586   4137   4138     1  180.0000771  10.4600000  2
   2591   2594   2614   2615     1  0.0000000  0.0000000  2
   2591   2597   2598   2599     1  0.0000000  1.2552000  3
   2591   2597   2598   2600     1  0.0000000  1.2552000  3
   2591   2597   2601   2602     1  0.0000000  1.2552000  3
   2591   2597   2601   2603     1  0.0000000  1.2552000  3
   2592   2591   2594   2614     1  0.0000000  0.6508444  3
   2592   2591   2594   2595     1  0.0000000  0.6508444  3
   2592   2591   2594   2596     1  0.0000000  0.6508444  3
   2592   2591   2597   2598     1  0.0000000  1.2552000  3
   2592   2591   2597   2601     1  0.0000000  1.2552000  3
   2593   2591   2594   2614     1  0.0000000  0.6508444  3
   2593   2591   2594   2595     1  0.0000000  0.6508444  3
   2593   2591   2594   2596     1  0.0000000  0.6508444  3
   2593   2591   2597   2598     1  0.0000000  1.2552000  3
   2593   2591   2597   2601     1  0.0000000  1.2552000  3
   2595   2594   2591   2597     1  0.0000000  0.6508444  3
   2595   2594   2614   2615     1  0.0000000  0.0000000  2
   2596   2594   2591   2597     1  0.0000000  0.6508444  3
   2596   2594   2614   2615     1  0.0000000  0.0000000  2
   2597   2598   2607   2608     1  0.0000000  0.6508444  3
   2597   2598   2607   2609     1  0.0000000  0.6508444  3
   2597   2601   2604   2605     1  0.0000000  0.6508444  3
   2597   2601   2604   2606     1  0.0000000  0.6508444  3
   2598   2597   2601   2602     1  0.0000000  1.2552000  3
   2598   2597   2601   2603     1  0.0000000  1.2552000  3
   2599   2598   2597   2601     1  0.0000000  1.2552000  3
   2599   2598   2607   2611     1  0.0000000  0.6508444  3
   2599   2598   2607   2608     1  0.0000000  0.6508444  3
   2599   2598   2607   2609     1  0.0000000  0.6508444  3
   2600   2598   2597   2601     1  0.0000000  1.2552000  3
   2600   2598   2607   2611     1  0.0000000  0.6508444  3
   2600   2598   2607   2608     1  0.0000000  0.6508444  3
   2600   2598   2607   2609     1  0.0000000  0.6508444  3
   2602   2601   2604   2610     1  0.0000000  0.6508444  3
   2602   2601   2604   2605     1  0.0000000  0.6508444  3
   2602   2601   2604   2606     1  0.0000000  0.6508444  3
   2603   2601   2604   2610     1  0.0000000  0.6508444  3
   2603   2601   2604   2605     1  0.0000000  0.6508444  3
   2603   2601   2604   2606     1  0.0000000  0.6508444  3
   2604   2610   4149   4150     1  180.0000771  10.4600000  2
   2605   2604   2610   4149     1  180.0000771  0.0000000  2
   2605   2604   2610   2612     1  0.0000000  3.3472000  1
   2605   2604   2610   2612     1  0.0000000  0.0000000  2
   2605   2604   2610   2612     1  180.0000771  0.3347200  3
   2606   2604   2610   4149     1  180.0000771  0.0000000  2
   2606   2604   2610   2612     1  0.0000000  3.3472000  1
   2606   2604   2610   2612     1  0.0000000  0.0000000  2
   2606   2604   2610   2612     1  180.0000771  0.3347200  3
   2607   2611   4161   4162     1  180.0000771  10.4600000  2
   2608   2607   2611   2613     1  0.0000000  3.3472000  1
   2608   2607   2611   2613     1  0.0000000  0.0000000  2
   2608   2607   2611   2613     1  180.0000771  0.3347200  3
   2608   2607   2611   4161     1  180.0000771  0.0000000  2
   2609   2607   2611   2613     1  0.0000000  3.3472000  1
   2609   2607   2611   2613     1  0.0000000  0.0000000  2
   2609   2607   2611   2613     1  180.0000771  0.3347200  3
   2609   2607   2611   4161     1  180.0000771  0.0000000  2
   2610   4149   4151   4153     1  0.0000000  0.0000000  2
   2610   4149   4151   4154     1  0.0000000  0.0000000  2
   2611   4161   4163   4165     1  0.0000000  0.0000000  2
   2611   4161   4163   4166     1  0.0000000  0.0000000  2
   2612   2610   4149   4150     1  0.0000000  8.3680000  1
   2612   2610   4149   4150     1  180.0000771  10.4600000  2
   2613   2611   4161   4162     1  0.0000000  8.3680000  1
   2613   2611   4161   4162     1  180.0000771  10.4600000  2
   2616   2619   2639   2640     1  0.0000000  0.0000000  2
   2616   2622   2623   2624     1  0.0000000  1.2552000  3
   2616   2622   2623   2625     1  0.0000000  1.2552000  3
   2616   2622   2626   2627     1  0.0000000  1.2552000  3
   2616   2622   2626   2628     1  0.0000000  1.2552000  3
   2617   2616   2619   2639     1  0.0000000  0.6508444  3
   2617   2616   2619   2620     1  0.0000000  0.6508444  3
   2617   2616   2619   2621     1  0.0000000  0.6508444  3
   2617   2616   2622   2623     1  0.0000000  1.2552000  3
   2617   2616   2622   2626     1  0.0000000  1.2552000  3
   2618   2616   2619   2639     1  0.0000000  0.6508444  3
   2618   2616   2619   2620     1  0.0000000  0.6508444  3
   2618   2616   2619   2621     1  0.0000000  0.6508444  3
   2618   2616   2622   2623     1  0.0000000  1.2552000  3
   2618   2616   2622   2626     1  0.0000000  1.2552000  3
   2620   2619   2616   2622     1  0.0000000  0.6508444  3
   2620   2619   2639   2640     1  0.0000000  0.0000000  2
   2621   2619   2616   2622     1  0.0000000  0.6508444  3
   2621   2619   2639   2640     1  0.0000000  0.0000000  2
   2622   2623   2632   2633     1  0.0000000  0.6508444  3
   2622   2623   2632   2634     1  0.0000000  0.6508444  3
   2622   2626   2629   2630     1  0.0000000  0.6508444  3
   2622   2626   2629   2631     1  0.0000000  0.6508444  3
   2623   2622   2626   2627     1  0.0000000  1.2552000  3
   2623   2622   2626   2628     1  0.0000000  1.2552000  3
   2624   2623   2622   2626     1  0.0000000  1.2552000  3
   2624   2623   2632   2636     1  0.0000000  0.6508444  3
   2624   2623   2632   2633     1  0.0000000  0.6508444  3
   2624   2623   2632   2634     1  0.0000000  0.6508444  3
   2625   2623   2622   2626     1  0.0000000  1.2552000  3
   2625   2623   2632   2636     1  0.0000000  0.6508444  3
   2625   2623   2632   2633     1  0.0000000  0.6508444  3
   2625   2623   2632   2634     1  0.0000000  0.6508444  3
   2627   2626   2629   2635     1  0.0000000  0.6508444  3
   2627   2626   2629   2630     1  0.0000000  0.6508444  3
   2627   2626   2629   2631     1  0.0000000  0.6508444  3
   2628   2626   2629   2635     1  0.0000000  0.6508444  3
   2628   2626   2629   2630     1  0.0000000  0.6508444  3
   2628   2626   2629   2631     1  0.0000000  0.6508444  3
   2629   2635   4173   4174     1  180.0000771  10.4600000  2
   2630   2629   2635   4173     1  180.0000771  0.0000000  2
   2630   2629   2635   2637     1  0.0000000  3.3472000  1
   2630   2629   2635   2637     1  0.0000000  0.0000000  2
   2630   2629   2635   2637     1  180.0000771  0.3347200  3
   2631   2629   2635   4173     1  180.0000771  0.0000000  2
   2631   2629   2635   2637     1  0.0000000  3.3472000  1
   2631   2629   2635   2637     1  0.0000000  0.0000000  2
   2631   2629   2635   2637     1  180.0000771  0.3347200  3
   2632   2636   4185   4186     1  180.0000771  10.4600000  2
   2633   2632   2636   2638     1  0.0000000  3.3472000  1
   2633   2632   2636   2638     1  0.0000000  0.0000000  2
   2633   2632   2636   2638     1  180.0000771  0.3347200  3
   2633   2632   2636   4185     1  180.0000771  0.0000000  2
   2634   2632   2636   2638     1  0.0000000  3.3472000  1
   2634   2632   2636   2638     1  0.0000000  0.0000000  2
   2634   2632   2636   2638     1  180.0000771  0.3347200  3
   2634   2632   2636   4185     1  180.0000771  0.0000000  2
   2635   4173   4175   4177     1  0.0000000  0.0000000  2
   2635   4173   4175   4178     1  0.0000000  0.0000000  2
   2636   4185   4187   4189     1  0.0000000  0.0000000  2
   2636   4185   4187   4190     1  0.0000000  0.0000000  2
   2637   2635   4173   4174     1  0.0000000  8.3680000  1
   2637   2635   4173   4174     1  180.0000771  10.4600000  2
   2638   2636   4185   4186     1  0.0000000  8.3680000  1
   2638   2636   4185   4186     1  180.0000771  10.4600000  2
   2641   2644   2664   2665     1  0.0000000  0.0000000  2
   2641   2647   2648   2649     1  0.0000000  1.2552000  3
   2641   2647   2648   2650     1  0.0000000  1.2552000  3
   2641   2647   2651   2652     1  0.0000000  1.2552000  3
   2641   2647   2651   2653     1  0.0000000  1.2552000  3
   2642   2641   2644   2664     1  0.0000000  0.6508444  3
   2642   2641   2644   2645     1  0.0000000  0.6508444  3
   2642   2641   2644   2646     1  0.0000000  0.6508444  3
   2642   2641   2647   2648     1  0.0000000  1.2552000  3
   2642   2641   2647   2651     1  0.0000000  1.2552000  3
   2643   2641   2644   2664     1  0.0000000  0.6508444  3
   2643   2641   2644   2645     1  0.0000000  0.6508444  3
   2643   2641   2644   2646     1  0.0000000  0.6508444  3
   2643   2641   2647   2648     1  0.0000000  1.2552000  3
   2643   2641   2647   2651     1  0.0000000  1.2552000  3
   2645   2644   2641   2647     1  0.0000000  0.6508444  3
   2645   2644   2664   2665     1  0.0000000  0.0000000  2
   2646   2644   2641   2647     1  0.0000000  0.6508444  3
   2646   2644   2664   2665     1  0.0000000  0.0000000  2
   2647   2648   2657   2658     1  0.0000000  0.6508444  3
   2647   2648   2657   2659     1  0.0000000  0.6508444  3
   2647   2651   2654   2655     1  0.0000000  0.6508444  3
   2647   2651   2654   2656     1  0.0000000  0.6508444  3
   2648   2647   2651   2652     1  0.0000000  1.2552000  3
   2648   2647   2651   2653     1  0.0000000  1.2552000  3
   2649   2648   2647   2651     1  0.0000000  1.2552000  3
   2649   2648   2657   2661     1  0.0000000  0.6508444  3
   2649   2648   2657   2658     1  0.0000000  0.6508444  3
   2649   2648   2657   2659     1  0.0000000  0.6508444  3
   2650   2648   2647   2651     1  0.0000000  1.2552000  3
   2650   2648   2657   2661     1  0.0000000  0.6508444  3
   2650   2648   2657   2658     1  0.0000000  0.6508444  3
   2650   2648   2657   2659     1  0.0000000  0.6508444  3
   2652   2651   2654   2660     1  0.0000000  0.6508444  3
   2652   2651   2654   2655     1  0.0000000  0.6508444  3
   2652   2651   2654   2656     1  0.0000000  0.6508444  3
   2653   2651   2654   2660     1  0.0000000  0.6508444  3
   2653   2651   2654   2655     1  0.0000000  0.6508444  3
   2653   2651   2654   2656     1  0.0000000  0.6508444  3
   2654   2660   4197   4198     1  180.0000771  10.4600000  2
   2655   2654   2660   4197     1  180.0000771  0.0000000  2
   2655   2654   2660   2662     1  0.0000000  3.3472000  1
   2655   2654   2660   2662     1  0.0000000  0.0000000  2
   2655   2654   2660   2662     1  180.0000771  0.3347200  3
   2656   2654   2660   4197     1  180.0000771  0.0000000  2
   2656   2654   2660   2662     1  0.0000000  3.3472000  1
   2656   2654   2660   2662     1  0.0000000  0.0000000  2
   2656   2654   2660   2662     1  180.0000771  0.3347200  3
   2657   2661   4209   4210     1  180.0000771  10.4600000  2
   2658   2657   2661   2663     1  0.0000000  3.3472000  1
   2658   2657   2661   2663     1  0.0000000  0.0000000  2
   2658   2657   2661   2663     1  180.0000771  0.3347200  3
   2658   2657   2661   4209     1  180.0000771  0.0000000  2
   2659   2657   2661   2663     1  0.0000000  3.3472000  1
   2659   2657   2661   2663     1  0.0000000  0.0000000  2
   2659   2657   2661   2663     1  180.0000771  0.3347200  3
   2659   2657   2661   4209     1  180.0000771  0.0000000  2
   2660   4197   4199   4201     1  0.0000000  0.0000000  2
   2660   4197   4199   4202     1  0.0000000  0.0000000  2
   2661   4209   4211   4213     1  0.0000000  0.0000000  2
   2661   4209   4211   4214     1  0.0000000  0.0000000  2
   2662   2660   4197   4198     1  0.0000000  8.3680000  1
   2662   2660   4197   4198     1  180.0000771  10.4600000  2
   2663   2661   4209   4210     1  0.0000000  8.3680000  1
   2663   2661   4209   4210     1  180.0000771  10.4600000  2
   2666   2669   2689   2690     1  0.0000000  0.0000000  2
   2666   2672   2673   2674     1  0.0000000  1.2552000  3
   2666   2672   2673   2675     1  0.0000000  1.2552000  3
   2666   2672   2676   2677     1  0.0000000  1.2552000  3
   2666   2672   2676   2678     1  0.0000000  1.2552000  3
   2667   2666   2669   2689     1  0.0000000  0.6508444  3
   2667   2666   2669   2670     1  0.0000000  0.6508444  3
   2667   2666   2669   2671     1  0.0000000  0.6508444  3
   2667   2666   2672   2673     1  0.0000000  1.2552000  3
   2667   2666   2672   2676     1  0.0000000  1.2552000  3
   2668   2666   2669   2689     1  0.0000000  0.6508444  3
   2668   2666   2669   2670     1  0.0000000  0.6508444  3
   2668   2666   2669   2671     1  0.0000000  0.6508444  3
   2668   2666   2672   2673     1  0.0000000  1.2552000  3
   2668   2666   2672   2676     1  0.0000000  1.2552000  3
   2670   2669   2666   2672     1  0.0000000  0.6508444  3
   2670   2669   2689   2690     1  0.0000000  0.0000000  2
   2671   2669   2666   2672     1  0.0000000  0.6508444  3
   2671   2669   2689   2690     1  0.0000000  0.0000000  2
   2672   2673   2682   2683     1  0.0000000  0.6508444  3
   2672   2673   2682   2684     1  0.0000000  0.6508444  3
   2672   2676   2679   2680     1  0.0000000  0.6508444  3
   2672   2676   2679   2681     1  0.0000000  0.6508444  3
   2673   2672   2676   2677     1  0.0000000  1.2552000  3
   2673   2672   2676   2678     1  0.0000000  1.2552000  3
   2674   2673   2672   2676     1  0.0000000  1.2552000  3
   2674   2673   2682   2686     1  0.0000000  0.6508444  3
   2674   2673   2682   2683     1  0.0000000  0.6508444  3
   2674   2673   2682   2684     1  0.0000000  0.6508444  3
   2675   2673   2672   2676     1  0.0000000  1.2552000  3
   2675   2673   2682   2686     1  0.0000000  0.6508444  3
   2675   2673   2682   2683     1  0.0000000  0.6508444  3
   2675   2673   2682   2684     1  0.0000000  0.6508444  3
   2677   2676   2679   2685     1  0.0000000  0.6508444  3
   2677   2676   2679   2680     1  0.0000000  0.6508444  3
   2677   2676   2679   2681     1  0.0000000  0.6508444  3
   2678   2676   2679   2685     1  0.0000000  0.6508444  3
   2678   2676   2679   2680     1  0.0000000  0.6508444  3
   2678   2676   2679   2681     1  0.0000000  0.6508444  3
   2679   2685   4221   4222     1  180.0000771  10.4600000  2
   2680   2679   2685   4221     1  180.0000771  0.0000000  2
   2680   2679   2685   2687     1  0.0000000  3.3472000  1
   2680   2679   2685   2687     1  0.0000000  0.0000000  2
   2680   2679   2685   2687     1  180.0000771  0.3347200  3
   2681   2679   2685   4221     1  180.0000771  0.0000000  2
   2681   2679   2685   2687     1  0.0000000  3.3472000  1
   2681   2679   2685   2687     1  0.0000000  0.0000000  2
   2681   2679   2685   2687     1  180.0000771  0.3347200  3
   2682   2686   4233   4234     1  180.0000771  10.4600000  2
   2683   2682   2686   2688     1  0.0000000  3.3472000  1
   2683   2682   2686   2688     1  0.0000000  0.0000000  2
   2683   2682   2686   2688     1  180.0000771  0.3347200  3
   2683   2682   2686   4233     1  180.0000771  0.0000000  2
   2684   2682   2686   2688     1  0.0000000  3.3472000  1
   2684   2682   2686   2688     1  0.0000000  0.0000000  2
   2684   2682   2686   2688     1  180.0000771  0.3347200  3
   2684   2682   2686   4233     1  180.0000771  0.0000000  2
   2685   4221   4223   4225     1  0.0000000  0.0000000  2
   2685   4221   4223   4226     1  0.0000000  0.0000000  2
   2686   4233   4235   4237     1  0.0000000  0.0000000  2
   2686   4233   4235   4238     1  0.0000000  0.0000000  2
   2687   2685   4221   4222     1  0.0000000  8.3680000  1
   2687   2685   4221   4222     1  180.0000771  10.4600000  2
   2688   2686   4233   4234     1  0.0000000  8.3680000  1
   2688   2686   4233   4234     1  180.0000771  10.4600000  2
   2691   2694   2714   2715     1  0.0000000  0.0000000  2
   2691   2697   2698   2699     1  0.0000000  1.2552000  3
   2691   2697   2698   2700     1  0.0000000  1.2552000  3
   2691   2697   2701   2702     1  0.0000000  1.2552000  3
   2691   2697   2701   2703     1  0.0000000  1.2552000  3
   2692   2691   2694   2714     1  0.0000000  0.6508444  3
   2692   2691   2694   2695     1  0.0000000  0.6508444  3
   2692   2691   2694   2696     1  0.0000000  0.6508444  3
   2692   2691   2697   2698     1  0.0000000  1.2552000  3
   2692   2691   2697   2701     1  0.0000000  1.2552000  3
   2693   2691   2694   2714     1  0.0000000  0.6508444  3
   2693   2691   2694   2695     1  0.0000000  0.6508444  3
   2693   2691   2694   2696     1  0.0000000  0.6508444  3
   2693   2691   2697   2698     1  0.0000000  1.2552000  3
   2693   2691   2697   2701     1  0.0000000  1.2552000  3
   2695   2694   2691   2697     1  0.0000000  0.6508444  3
   2695   2694   2714   2715     1  0.0000000  0.0000000  2
   2696   2694   2691   2697     1  0.0000000  0.6508444  3
   2696   2694   2714   2715     1  0.0000000  0.0000000  2
   2697   2698   2707   2708     1  0.0000000  0.6508444  3
   2697   2698   2707   2709     1  0.0000000  0.6508444  3
   2697   2701   2704   2705     1  0.0000000  0.6508444  3
   2697   2701   2704   2706     1  0.0000000  0.6508444  3
   2698   2697   2701   2702     1  0.0000000  1.2552000  3
   2698   2697   2701   2703     1  0.0000000  1.2552000  3
   2699   2698   2697   2701     1  0.0000000  1.2552000  3
   2699   2698   2707   2711     1  0.0000000  0.6508444  3
   2699   2698   2707   2708     1  0.0000000  0.6508444  3
   2699   2698   2707   2709     1  0.0000000  0.6508444  3
   2700   2698   2697   2701     1  0.0000000  1.2552000  3
   2700   2698   2707   2711     1  0.0000000  0.6508444  3
   2700   2698   2707   2708     1  0.0000000  0.6508444  3
   2700   2698   2707   2709     1  0.0000000  0.6508444  3
   2702   2701   2704   2710     1  0.0000000  0.6508444  3
   2702   2701   2704   2705     1  0.0000000  0.6508444  3
   2702   2701   2704   2706     1  0.0000000  0.6508444  3
   2703   2701   2704   2710     1  0.0000000  0.6508444  3
   2703   2701   2704   2705     1  0.0000000  0.6508444  3
   2703   2701   2704   2706     1  0.0000000  0.6508444  3
   2704   2710   4245   4246     1  180.0000771  10.4600000  2
   2705   2704   2710   4245     1  180.0000771  0.0000000  2
   2705   2704   2710   2712     1  0.0000000  3.3472000  1
   2705   2704   2710   2712     1  0.0000000  0.0000000  2
   2705   2704   2710   2712     1  180.0000771  0.3347200  3
   2706   2704   2710   4245     1  180.0000771  0.0000000  2
   2706   2704   2710   2712     1  0.0000000  3.3472000  1
   2706   2704   2710   2712     1  0.0000000  0.0000000  2
   2706   2704   2710   2712     1  180.0000771  0.3347200  3
   2707   2711   4257   4258     1  180.0000771  10.4600000  2
   2708   2707   2711   2713     1  0.0000000  3.3472000  1
   2708   2707   2711   2713     1  0.0000000  0.0000000  2
   2708   2707   2711   2713     1  180.0000771  0.3347200  3
   2708   2707   2711   4257     1  180.0000771  0.0000000  2
   2709   2707   2711   2713     1  0.0000000  3.3472000  1
   2709   2707   2711   2713     1  0.0000000  0.0000000  2
   2709   2707   2711   2713     1  180.0000771  0.3347200  3
   2709   2707   2711   4257     1  180.0000771  0.0000000  2
   2710   4245   4247   4249     1  0.0000000  0.0000000  2
   2710   4245   4247   4250     1  0.0000000  0.0000000  2
   2711   4257   4259   4261     1  0.0000000  0.0000000  2
   2711   4257   4259   4262     1  0.0000000  0.0000000  2
   2712   2710   4245   4246     1  0.0000000  8.3680000  1
   2712   2710   4245   4246     1  180.0000771  10.4600000  2
   2713   2711   4257   4258     1  0.0000000  8.3680000  1
   2713   2711   4257   4258     1  180.0000771  10.4600000  2
   2716   2719   2739   2740     1  0.0000000  0.0000000  2
   2716   2722   2723   2724     1  0.0000000  1.2552000  3
   2716   2722   2723   2725     1  0.0000000  1.2552000  3
   2716   2722   2726   2727     1  0.0000000  1.2552000  3
   2716   2722   2726   2728     1  0.0000000  1.2552000  3
   2717   2716   2719   2739     1  0.0000000  0.6508444  3
   2717   2716   2719   2720     1  0.0000000  0.6508444  3
   2717   2716   2719   2721     1  0.0000000  0.6508444  3
   2717   2716   2722   2723     1  0.0000000  1.2552000  3
   2717   2716   2722   2726     1  0.0000000  1.2552000  3
   2718   2716   2719   2739     1  0.0000000  0.6508444  3
   2718   2716   2719   2720     1  0.0000000  0.6508444  3
   2718   2716   2719   2721     1  0.0000000  0.6508444  3
   2718   2716   2722   2723     1  0.0000000  1.2552000  3
   2718   2716   2722   2726     1  0.0000000  1.2552000  3
   2720   2719   2716   2722     1  0.0000000  0.6508444  3
   2720   2719   2739   2740     1  0.0000000  0.0000000  2
   2721   2719   2716   2722     1  0.0000000  0.6508444  3
   2721   2719   2739   2740     1  0.0000000  0.0000000  2
   2722   2723   2732   2733     1  0.0000000  0.6508444  3
   2722   2723   2732   2734     1  0.0000000  0.6508444  3
   2722   2726   2729   2730     1  0.0000000  0.6508444  3
   2722   2726   2729   2731     1  0.0000000  0.6508444  3
   2723   2722   2726   2727     1  0.0000000  1.2552000  3
   2723   2722   2726   2728     1  0.0000000  1.2552000  3
   2724   2723   2722   2726     1  0.0000000  1.2552000  3
   2724   2723   2732   2736     1  0.0000000  0.6508444  3
   2724   2723   2732   2733     1  0.0000000  0.6508444  3
   2724   2723   2732   2734     1  0.0000000  0.6508444  3
   2725   2723   2722   2726     1  0.0000000  1.2552000  3
   2725   2723   2732   2736     1  0.0000000  0.6508444  3
   2725   2723   2732   2733     1  0.0000000  0.6508444  3
   2725   2723   2732   2734     1  0.0000000  0.6508444  3
   2727   2726   2729   2735     1  0.0000000  0.6508444  3
   2727   2726   2729   2730     1  0.0000000  0.6508444  3
   2727   2726   2729   2731     1  0.0000000  0.6508444  3
   2728   2726   2729   2735     1  0.0000000  0.6508444  3
   2728   2726   2729   2730     1  0.0000000  0.6508444  3
   2728   2726   2729   2731     1  0.0000000  0.6508444  3
   2729   2735   4269   4270     1  180.0000771  10.4600000  2
   2730   2729   2735   4269     1  180.0000771  0.0000000  2
   2730   2729   2735   2737     1  0.0000000  3.3472000  1
   2730   2729   2735   2737     1  0.0000000  0.0000000  2
   2730   2729   2735   2737     1  180.0000771  0.3347200  3
   2731   2729   2735   4269     1  180.0000771  0.0000000  2
   2731   2729   2735   2737     1  0.0000000  3.3472000  1
   2731   2729   2735   2737     1  0.0000000  0.0000000  2
   2731   2729   2735   2737     1  180.0000771  0.3347200  3
   2732   2736   4281   4282     1  180.0000771  10.4600000  2
   2733   2732   2736   2738     1  0.0000000  3.3472000  1
   2733   2732   2736   2738     1  0.0000000  0.0000000  2
   2733   2732   2736   2738     1  180.0000771  0.3347200  3
   2733   2732   2736   4281     1  180.0000771  0.0000000  2
   2734   2732   2736   2738     1  0.0000000  3.3472000  1
   2734   2732   2736   2738     1  0.0000000  0.0000000  2
   2734   2732   2736   2738     1  180.0000771  0.3347200  3
   2734   2732   2736   4281     1  180.0000771  0.0000000  2
   2735   4269   4271   4273     1  0.0000000  0.0000000  2
   2735   4269   4271   4274     1  0.0000000  0.0000000  2
   2736   4281   4283   4285     1  0.0000000  0.0000000  2
   2736   4281   4283   4286     1  0.0000000  0.0000000  2
   2737   2735   4269   4270     1  0.0000000  8.3680000  1
   2737   2735   4269   4270     1  180.0000771  10.4600000  2
   2738   2736   4281   4282     1  0.0000000  8.3680000  1
   2738   2736   4281   4282     1  180.0000771  10.4600000  2
   2741   2744   2764   2765     1  0.0000000  0.0000000  2
   2741   2747   2748   2749     1  0.0000000  1.2552000  3
   2741   2747   2748   2750     1  0.0000000  1.2552000  3
   2741   2747   2751   2752     1  0.0000000  1.2552000  3
   2741   2747   2751   2753     1  0.0000000  1.2552000  3
   2742   2741   2744   2764     1  0.0000000  0.6508444  3
   2742   2741   2744   2745     1  0.0000000  0.6508444  3
   2742   2741   2744   2746     1  0.0000000  0.6508444  3
   2742   2741   2747   2748     1  0.0000000  1.2552000  3
   2742   2741   2747   2751     1  0.0000000  1.2552000  3
   2743   2741   2744   2764     1  0.0000000  0.6508444  3
   2743   2741   2744   2745     1  0.0000000  0.6508444  3
   2743   2741   2744   2746     1  0.0000000  0.6508444  3
   2743   2741   2747   2748     1  0.0000000  1.2552000  3
   2743   2741   2747   2751     1  0.0000000  1.2552000  3
   2745   2744   2741   2747     1  0.0000000  0.6508444  3
   2745   2744   2764   2765     1  0.0000000  0.0000000  2
   2746   2744   2741   2747     1  0.0000000  0.6508444  3
   2746   2744   2764   2765     1  0.0000000  0.0000000  2
   2747   2748   2757   2758     1  0.0000000  0.6508444  3
   2747   2748   2757   2759     1  0.0000000  0.6508444  3
   2747   2751   2754   2755     1  0.0000000  0.6508444  3
   2747   2751   2754   2756     1  0.0000000  0.6508444  3
   2748   2747   2751   2752     1  0.0000000  1.2552000  3
   2748   2747   2751   2753     1  0.0000000  1.2552000  3
   2749   2748   2747   2751     1  0.0000000  1.2552000  3
   2749   2748   2757   2761     1  0.0000000  0.6508444  3
   2749   2748   2757   2758     1  0.0000000  0.6508444  3
   2749   2748   2757   2759     1  0.0000000  0.6508444  3
   2750   2748   2747   2751     1  0.0000000  1.2552000  3
   2750   2748   2757   2761     1  0.0000000  0.6508444  3
   2750   2748   2757   2758     1  0.0000000  0.6508444  3
   2750   2748   2757   2759     1  0.0000000  0.6508444  3
   2752   2751   2754   2760     1  0.0000000  0.6508444  3
   2752   2751   2754   2755     1  0.0000000  0.6508444  3
   2752   2751   2754   2756     1  0.0000000  0.6508444  3
   2753   2751   2754   2760     1  0.0000000  0.6508444  3
   2753   2751   2754   2755     1  0.0000000  0.6508444  3
   2753   2751   2754   2756     1  0.0000000  0.6508444  3
   2754   2760   4293   4294     1  180.0000771  10.4600000  2
   2755   2754   2760   4293     1  180.0000771  0.0000000  2
   2755   2754   2760   2762     1  0.0000000  3.3472000  1
   2755   2754   2760   2762     1  0.0000000  0.0000000  2
   2755   2754   2760   2762     1  180.0000771  0.3347200  3
   2756   2754   2760   4293     1  180.0000771  0.0000000  2
   2756   2754   2760   2762     1  0.0000000  3.3472000  1
   2756   2754   2760   2762     1  0.0000000  0.0000000  2
   2756   2754   2760   2762     1  180.0000771  0.3347200  3
   2757   2761   4305   4306     1  180.0000771  10.4600000  2
   2758   2757   2761   2763     1  0.0000000  3.3472000  1
   2758   2757   2761   2763     1  0.0000000  0.0000000  2
   2758   2757   2761   2763     1  180.0000771  0.3347200  3
   2758   2757   2761   4305     1  180.0000771  0.0000000  2
   2759   2757   2761   2763     1  0.0000000  3.3472000  1
   2759   2757   2761   2763     1  0.0000000  0.0000000  2
   2759   2757   2761   2763     1  180.0000771  0.3347200  3
   2759   2757   2761   4305     1  180.0000771  0.0000000  2
   2760   4293   4295   4297     1  0.0000000  0.0000000  2
   2760   4293   4295   4298     1  0.0000000  0.0000000  2
   2761   4305   4307   4309     1  0.0000000  0.0000000  2
   2761   4305   4307   4310     1  0.0000000  0.0000000  2
   2762   2760   4293   4294     1  0.0000000  8.3680000  1
   2762   2760   4293   4294     1  180.0000771  10.4600000  2
   2763   2761   4305   4306     1  0.0000000  8.3680000  1
   2763   2761   4305   4306     1  180.0000771  10.4600000  2
   2766   2769   2789   2790     1  0.0000000  0.0000000  2
   2766   2772   2773   2774     1  0.0000000  1.2552000  3
   2766   2772   2773   2775     1  0.0000000  1.2552000  3
   2766   2772   2776   2777     1  0.0000000  1.2552000  3
   2766   2772   2776   2778     1  0.0000000  1.2552000  3
   2767   2766   2769   2789     1  0.0000000  0.6508444  3
   2767   2766   2769   2770     1  0.0000000  0.6508444  3
   2767   2766   2769   2771     1  0.0000000  0.6508444  3
   2767   2766   2772   2773     1  0.0000000  1.2552000  3
   2767   2766   2772   2776     1  0.0000000  1.2552000  3
   2768   2766   2769   2789     1  0.0000000  0.6508444  3
   2768   2766   2769   2770     1  0.0000000  0.6508444  3
   2768   2766   2769   2771     1  0.0000000  0.6508444  3
   2768   2766   2772   2773     1  0.0000000  1.2552000  3
   2768   2766   2772   2776     1  0.0000000  1.2552000  3
   2770   2769   2766   2772     1  0.0000000  0.6508444  3
   2770   2769   2789   2790     1  0.0000000  0.0000000  2
   2771   2769   2766   2772     1  0.0000000  0.6508444  3
   2771   2769   2789   2790     1  0.0000000  0.0000000  2
   2772   2773   2782   2783     1  0.0000000  0.6508444  3
   2772   2773   2782   2784     1  0.0000000  0.6508444  3
   2772   2776   2779   2780     1  0.0000000  0.6508444  3
   2772   2776   2779   2781     1  0.0000000  0.6508444  3
   2773   2772   2776   2777     1  0.0000000  1.2552000  3
   2773   2772   2776   2778     1  0.0000000  1.2552000  3
   2774   2773   2772   2776     1  0.0000000  1.2552000  3
   2774   2773   2782   2786     1  0.0000000  0.6508444  3
   2774   2773   2782   2783     1  0.0000000  0.6508444  3
   2774   2773   2782   2784     1  0.0000000  0.6508444  3
   2775   2773   2772   2776     1  0.0000000  1.2552000  3
   2775   2773   2782   2786     1  0.0000000  0.6508444  3
   2775   2773   2782   2783     1  0.0000000  0.6508444  3
   2775   2773   2782   2784     1  0.0000000  0.6508444  3
   2777   2776   2779   2785     1  0.0000000  0.6508444  3
   2777   2776   2779   2780     1  0.0000000  0.6508444  3
   2777   2776   2779   2781     1  0.0000000  0.6508444  3
   2778   2776   2779   2785     1  0.0000000  0.6508444  3
   2778   2776   2779   2780     1  0.0000000  0.6508444  3
   2778   2776   2779   2781     1  0.0000000  0.6508444  3
   2779   2785   4317   4318     1  180.0000771  10.4600000  2
   2780   2779   2785   4317     1  180.0000771  0.0000000  2
   2780   2779   2785   2787     1  0.0000000  3.3472000  1
   2780   2779   2785   2787     1  0.0000000  0.0000000  2
   2780   2779   2785   2787     1  180.0000771  0.3347200  3
   2781   2779   2785   4317     1  180.0000771  0.0000000  2
   2781   2779   2785   2787     1  0.0000000  3.3472000  1
   2781   2779   2785   2787     1  0.0000000  0.0000000  2
   2781   2779   2785   2787     1  180.0000771  0.3347200  3
   2782   2786   4329   4330     1  180.0000771  10.4600000  2
   2783   2782   2786   2788     1  0.0000000  3.3472000  1
   2783   2782   2786   2788     1  0.0000000  0.0000000  2
   2783   2782   2786   2788     1  180.0000771  0.3347200  3
   2783   2782   2786   4329     1  180.0000771  0.0000000  2
   2784   2782   2786   2788     1  0.0000000  3.3472000  1
   2784   2782   2786   2788     1  0.0000000  0.0000000  2
   2784   2782   2786   2788     1  180.0000771  0.3347200  3
   2784   2782   2786   4329     1  180.0000771  0.0000000  2
   2785   4317   4319   4321     1  0.0000000  0.0000000  2
   2785   4317   4319   4322     1  0.0000000  0.0000000  2
   2786   4329   4331   4333     1  0.0000000  0.0000000  2
   2786   4329   4331   4334     1  0.0000000  0.0000000  2
   2787   2785   4317   4318     1  0.0000000  8.3680000  1
   2787   2785   4317   4318     1  180.0000771  10.4600000  2
   2788   2786   4329   4330     1  0.0000000  8.3680000  1
   2788   2786   4329   4330     1  180.0000771  10.4600000  2
   2791   2794   2814   2815     1  0.0000000  0.0000000  2
   2791   2797   2798   2799     1  0.0000000  1.2552000  3
   2791   2797   2798   2800     1  0.0000000  1.2552000  3
   2791   2797   2801   2802     1  0.0000000  1.2552000  3
   2791   2797   2801   2803     1  0.0000000  1.2552000  3
   2792   2791   2794   2814     1  0.0000000  0.6508444  3
   2792   2791   2794   2795     1  0.0000000  0.6508444  3
   2792   2791   2794   2796     1  0.0000000  0.6508444  3
   2792   2791   2797   2798     1  0.0000000  1.2552000  3
   2792   2791   2797   2801     1  0.0000000  1.2552000  3
   2793   2791   2794   2814     1  0.0000000  0.6508444  3
   2793   2791   2794   2795     1  0.0000000  0.6508444  3
   2793   2791   2794   2796     1  0.0000000  0.6508444  3
   2793   2791   2797   2798     1  0.0000000  1.2552000  3
   2793   2791   2797   2801     1  0.0000000  1.2552000  3
   2795   2794   2791   2797     1  0.0000000  0.6508444  3
   2795   2794   2814   2815     1  0.0000000  0.0000000  2
   2796   2794   2791   2797     1  0.0000000  0.6508444  3
   2796   2794   2814   2815     1  0.0000000  0.0000000  2
   2797   2798   2807   2808     1  0.0000000  0.6508444  3
   2797   2798   2807   2809     1  0.0000000  0.6508444  3
   2797   2801   2804   2805     1  0.0000000  0.6508444  3
   2797   2801   2804   2806     1  0.0000000  0.6508444  3
   2798   2797   2801   2802     1  0.0000000  1.2552000  3
   2798   2797   2801   2803     1  0.0000000  1.2552000  3
   2799   2798   2797   2801     1  0.0000000  1.2552000  3
   2799   2798   2807   2811     1  0.0000000  0.6508444  3
   2799   2798   2807   2808     1  0.0000000  0.6508444  3
   2799   2798   2807   2809     1  0.0000000  0.6508444  3
   2800   2798   2797   2801     1  0.0000000  1.2552000  3
   2800   2798   2807   2811     1  0.0000000  0.6508444  3
   2800   2798   2807   2808     1  0.0000000  0.6508444  3
   2800   2798   2807   2809     1  0.0000000  0.6508444  3
   2802   2801   2804   2810     1  0.0000000  0.6508444  3
   2802   2801   2804   2805     1  0.0000000  0.6508444  3
   2802   2801   2804   2806     1  0.0000000  0.6508444  3
   2803   2801   2804   2810     1  0.0000000  0.6508444  3
   2803   2801   2804   2805     1  0.0000000  0.6508444  3
   2803   2801   2804   2806     1  0.0000000  0.6508444  3
   2804   2810   4341   4342     1  180.0000771  10.4600000  2
   2805   2804   2810   4341     1  180.0000771  0.0000000  2
   2805   2804   2810   2812     1  0.0000000  3.3472000  1
   2805   2804   2810   2812     1  0.0000000  0.0000000  2
   2805   2804   2810   2812     1  180.0000771  0.3347200  3
   2806   2804   2810   4341     1  180.0000771  0.0000000  2
   2806   2804   2810   2812     1  0.0000000  3.3472000  1
   2806   2804   2810   2812     1  0.0000000  0.0000000  2
   2806   2804   2810   2812     1  180.0000771  0.3347200  3
   2807   2811   4353   4354     1  180.0000771  10.4600000  2
   2808   2807   2811   2813     1  0.0000000  3.3472000  1
   2808   2807   2811   2813     1  0.0000000  0.0000000  2
   2808   2807   2811   2813     1  180.0000771  0.3347200  3
   2808   2807   2811   4353     1  180.0000771  0.0000000  2
   2809   2807   2811   2813     1  0.0000000  3.3472000  1
   2809   2807   2811   2813     1  0.0000000  0.0000000  2
   2809   2807   2811   2813     1  180.0000771  0.3347200  3
   2809   2807   2811   4353     1  180.0000771  0.0000000  2
   2810   4341   4343   4345     1  0.0000000  0.0000000  2
   2810   4341   4343   4346     1  0.0000000  0.0000000  2
   2811   4353   4355   4357     1  0.0000000  0.0000000  2
   2811   4353   4355   4358     1  0.0000000  0.0000000  2
   2812   2810   4341   4342     1  0.0000000  8.3680000  1
   2812   2810   4341   4342     1  180.0000771  10.4600000  2
   2813   2811   4353   4354     1  0.0000000  8.3680000  1
   2813   2811   4353   4354     1  180.0000771  10.4600000  2
   2816   2819   2839   2840     1  0.0000000  0.0000000  2
   2816   2822   2823   2824     1  0.0000000  1.2552000  3
   2816   2822   2823   2825     1  0.0000000  1.2552000  3
   2816   2822   2826   2827     1  0.0000000  1.2552000  3
   2816   2822   2826   2828     1  0.0000000  1.2552000  3
   2817   2816   2819   2839     1  0.0000000  0.6508444  3
   2817   2816   2819   2820     1  0.0000000  0.6508444  3
   2817   2816   2819   2821     1  0.0000000  0.6508444  3
   2817   2816   2822   2823     1  0.0000000  1.2552000  3
   2817   2816   2822   2826     1  0.0000000  1.2552000  3
   2818   2816   2819   2839     1  0.0000000  0.6508444  3
   2818   2816   2819   2820     1  0.0000000  0.6508444  3
   2818   2816   2819   2821     1  0.0000000  0.6508444  3
   2818   2816   2822   2823     1  0.0000000  1.2552000  3
   2818   2816   2822   2826     1  0.0000000  1.2552000  3
   2820   2819   2816   2822     1  0.0000000  0.6508444  3
   2820   2819   2839   2840     1  0.0000000  0.0000000  2
   2821   2819   2816   2822     1  0.0000000  0.6508444  3
   2821   2819   2839   2840     1  0.0000000  0.0000000  2
   2822   2823   2832   2833     1  0.0000000  0.6508444  3
   2822   2823   2832   2834     1  0.0000000  0.6508444  3
   2822   2826   2829   2830     1  0.0000000  0.6508444  3
   2822   2826   2829   2831     1  0.0000000  0.6508444  3
   2823   2822   2826   2827     1  0.0000000  1.2552000  3
   2823   2822   2826   2828     1  0.0000000  1.2552000  3
   2824   2823   2822   2826     1  0.0000000  1.2552000  3
   2824   2823   2832   2836     1  0.0000000  0.6508444  3
   2824   2823   2832   2833     1  0.0000000  0.6508444  3
   2824   2823   2832   2834     1  0.0000000  0.6508444  3
   2825   2823   2822   2826     1  0.0000000  1.2552000  3
   2825   2823   2832   2836     1  0.0000000  0.6508444  3
   2825   2823   2832   2833     1  0.0000000  0.6508444  3
   2825   2823   2832   2834     1  0.0000000  0.6508444  3
   2827   2826   2829   2835     1  0.0000000  0.6508444  3
   2827   2826   2829   2830     1  0.0000000  0.6508444  3
   2827   2826   2829   2831     1  0.0000000  0.6508444  3
   2828   2826   2829   2835     1  0.0000000  0.6508444  3
   2828   2826   2829   2830     1  0.0000000  0.6508444  3
   2828   2826   2829   2831     1  0.0000000  0.6508444  3
   2829   2835   4365   4366     1  180.0000771  10.4600000  2
   2830   2829   2835   4365     1  180.0000771  0.0000000  2
   2830   2829   2835   2837     1  0.0000000  3.3472000  1
   2830   2829   2835   2837     1  0.0000000  0.0000000  2
   2830   2829   2835   2837     1  180.0000771  0.3347200  3
   2831   2829   2835   4365     1  180.0000771  0.0000000  2
   2831   2829   2835   2837     1  0.0000000  3.3472000  1
   2831   2829   2835   2837     1  0.0000000  0.0000000  2
   2831   2829   2835   2837     1  180.0000771  0.3347200  3
   2832   2836   4377   4378     1  180.0000771  10.4600000  2
   2833   2832   2836   2838     1  0.0000000  3.3472000  1
   2833   2832   2836   2838     1  0.0000000  0.0000000  2
   2833   2832   2836   2838     1  180.0000771  0.3347200  3
   2833   2832   2836   4377     1  180.0000771  0.0000000  2
   2834   2832   2836   2838     1  0.0000000  3.3472000  1
   2834   2832   2836   2838     1  0.0000000  0.0000000  2
   2834   2832   2836   2838     1  180.0000771  0.3347200  3
   2834   2832   2836   4377     1  180.0000771  0.0000000  2
   2835   4365   4367   4369     1  0.0000000  0.0000000  2
   2835   4365   4367   4370     1  0.0000000  0.0000000  2
   2836   4377   4379   4381     1  0.0000000  0.0000000  2
   2836   4377   4379   4382     1  0.0000000  0.0000000  2
   2837   2835   4365   4366     1  0.0000000  8.3680000  1
   2837   2835   4365   4366     1  180.0000771  10.4600000  2
   2838   2836   4377   4378     1  0.0000000  8.3680000  1
   2838   2836   4377   4378     1  180.0000771  10.4600000  2
   2841   2844   2864   2865     1  0.0000000  0.0000000  2
   2841   2847   2848   2849     1  0.0000000  1.2552000  3
   2841   2847   2848   2850     1  0.0000000  1.2552000  3
   2841   2847   2851   2852     1  0.0000000  1.2552000  3
   2841   2847   2851   2853     1  0.0000000  1.2552000  3
   2842   2841   2844   2864     1  0.0000000  0.6508444  3
   2842   2841   2844   2845     1  0.0000000  0.6508444  3
   2842   2841   2844   2846     1  0.0000000  0.6508444  3
   2842   2841   2847   2848     1  0.0000000  1.2552000  3
   2842   2841   2847   2851     1  0.0000000  1.2552000  3
   2843   2841   2844   2864     1  0.0000000  0.6508444  3
   2843   2841   2844   2845     1  0.0000000  0.6508444  3
   2843   2841   2844   2846     1  0.0000000  0.6508444  3
   2843   2841   2847   2848     1  0.0000000  1.2552000  3
   2843   2841   2847   2851     1  0.0000000  1.2552000  3
   2845   2844   2841   2847     1  0.0000000  0.6508444  3
   2845   2844   2864   2865     1  0.0000000  0.0000000  2
   2846   2844   2841   2847     1  0.0000000  0.6508444  3
   2846   2844   2864   2865     1  0.0000000  0.0000000  2
   2847   2848   2857   2858     1  0.0000000  0.6508444  3
   2847   2848   2857   2859     1  0.0000000  0.6508444  3
   2847   2851   2854   2855     1  0.0000000  0.6508444  3
   2847   2851   2854   2856     1  0.0000000  0.6508444  3
   2848   2847   2851   2852     1  0.0000000  1.2552000  3
   2848   2847   2851   2853     1  0.0000000  1.2552000  3
   2849   2848   2847   2851     1  0.0000000  1.2552000  3
   2849   2848   2857   2861     1  0.0000000  0.6508444  3
   2849   2848   2857   2858     1  0.0000000  0.6508444  3
   2849   2848   2857   2859     1  0.0000000  0.6508444  3
   2850   2848   2847   2851     1  0.0000000  1.2552000  3
   2850   2848   2857   2861     1  0.0000000  0.6508444  3
   2850   2848   2857   2858     1  0.0000000  0.6508444  3
   2850   2848   2857   2859     1  0.0000000  0.6508444  3
   2852   2851   2854   2860     1  0.0000000  0.6508444  3
   2852   2851   2854   2855     1  0.0000000  0.6508444  3
   2852   2851   2854   2856     1  0.0000000  0.6508444  3
   2853   2851   2854   2860     1  0.0000000  0.6508444  3
   2853   2851   2854   2855     1  0.0000000  0.6508444  3
   2853   2851   2854   2856     1  0.0000000  0.6508444  3
   2854   2860   4389   4390     1  180.0000771  10.4600000  2
   2855   2854   2860   4389     1  180.0000771  0.0000000  2
   2855   2854   2860   2862     1  0.0000000  3.3472000  1
   2855   2854   2860   2862     1  0.0000000  0.0000000  2
   2855   2854   2860   2862     1  180.0000771  0.3347200  3
   2856   2854   2860   4389     1  180.0000771  0.0000000  2
   2856   2854   2860   2862     1  0.0000000  3.3472000  1
   2856   2854   2860   2862     1  0.0000000  0.0000000  2
   2856   2854   2860   2862     1  180.0000771  0.3347200  3
   2857   2861   4401   4402     1  180.0000771  10.4600000  2
   2858   2857   2861   2863     1  0.0000000  3.3472000  1
   2858   2857   2861   2863     1  0.0000000  0.0000000  2
   2858   2857   2861   2863     1  180.0000771  0.3347200  3
   2858   2857   2861   4401     1  180.0000771  0.0000000  2
   2859   2857   2861   2863     1  0.0000000  3.3472000  1
   2859   2857   2861   2863     1  0.0000000  0.0000000  2
   2859   2857   2861   2863     1  180.0000771  0.3347200  3
   2859   2857   2861   4401     1  180.0000771  0.0000000  2
   2860   4389   4391   4393     1  0.0000000  0.0000000  2
   2860   4389   4391   4394     1  0.0000000  0.0000000  2
   2861   4401   4403   4405     1  0.0000000  0.0000000  2
   2861   4401   4403   4406     1  0.0000000  0.0000000  2
   2862   2860   4389   4390     1  0.0000000  8.3680000  1
   2862   2860   4389   4390     1  180.0000771  10.4600000  2
   2863   2861   4401   4402     1  0.0000000  8.3680000  1
   2863   2861   4401   4402     1  180.0000771  10.4600000  2
   2866   2869   2889   2890     1  0.0000000  0.0000000  2
   2866   2872   2873   2874     1  0.0000000  1.2552000  3
   2866   2872   2873   2875     1  0.0000000  1.2552000  3
   2866   2872   2876   2877     1  0.0000000  1.2552000  3
   2866   2872   2876   2878     1  0.0000000  1.2552000  3
   2867   2866   2869   2889     1  0.0000000  0.6508444  3
   2867   2866   2869   2870     1  0.0000000  0.6508444  3
   2867   2866   2869   2871     1  0.0000000  0.6508444  3
   2867   2866   2872   2873     1  0.0000000  1.2552000  3
   2867   2866   2872   2876     1  0.0000000  1.2552000  3
   2868   2866   2869   2889     1  0.0000000  0.6508444  3
   2868   2866   2869   2870     1  0.0000000  0.6508444  3
   2868   2866   2869   2871     1  0.0000000  0.6508444  3
   2868   2866   2872   2873     1  0.0000000  1.2552000  3
   2868   2866   2872   2876     1  0.0000000  1.2552000  3
   2870   2869   2866   2872     1  0.0000000  0.6508444  3
   2870   2869   2889   2890     1  0.0000000  0.0000000  2
   2871   2869   2866   2872     1  0.0000000  0.6508444  3
   2871   2869   2889   2890     1  0.0000000  0.0000000  2
   2872   2873   2882   2883     1  0.0000000  0.6508444  3
   2872   2873   2882   2884     1  0.0000000  0.6508444  3
   2872   2876   2879   2880     1  0.0000000  0.6508444  3
   2872   2876   2879   2881     1  0.0000000  0.6508444  3
   2873   2872   2876   2877     1  0.0000000  1.2552000  3
   2873   2872   2876   2878     1  0.0000000  1.2552000  3
   2874   2873   2872   2876     1  0.0000000  1.2552000  3
   2874   2873   2882   2886     1  0.0000000  0.6508444  3
   2874   2873   2882   2883     1  0.0000000  0.6508444  3
   2874   2873   2882   2884     1  0.0000000  0.6508444  3
   2875   2873   2872   2876     1  0.0000000  1.2552000  3
   2875   2873   2882   2886     1  0.0000000  0.6508444  3
   2875   2873   2882   2883     1  0.0000000  0.6508444  3
   2875   2873   2882   2884     1  0.0000000  0.6508444  3
   2877   2876   2879   2885     1  0.0000000  0.6508444  3
   2877   2876   2879   2880     1  0.0000000  0.6508444  3
   2877   2876   2879   2881     1  0.0000000  0.6508444  3
   2878   2876   2879   2885     1  0.0000000  0.6508444  3
   2878   2876   2879   2880     1  0.0000000  0.6508444  3
   2878   2876   2879   2881     1  0.0000000  0.6508444  3
   2879   2885   4413   4414     1  180.0000771  10.4600000  2
   2880   2879   2885   4413     1  180.0000771  0.0000000  2
   2880   2879   2885   2887     1  0.0000000  3.3472000  1
   2880   2879   2885   2887     1  0.0000000  0.0000000  2
   2880   2879   2885   2887     1  180.0000771  0.3347200  3
   2881   2879   2885   4413     1  180.0000771  0.0000000  2
   2881   2879   2885   2887     1  0.0000000  3.3472000  1
   2881   2879   2885   2887     1  0.0000000  0.0000000  2
   2881   2879   2885   2887     1  180.0000771  0.3347200  3
   2882   2886   4425   4426     1  180.0000771  10.4600000  2
   2883   2882   2886   2888     1  0.0000000  3.3472000  1
   2883   2882   2886   2888     1  0.0000000  0.0000000  2
   2883   2882   2886   2888     1  180.0000771  0.3347200  3
   2883   2882   2886   4425     1  180.0000771  0.0000000  2
   2884   2882   2886   2888     1  0.0000000  3.3472000  1
   2884   2882   2886   2888     1  0.0000000  0.0000000  2
   2884   2882   2886   2888     1  180.0000771  0.3347200  3
   2884   2882   2886   4425     1  180.0000771  0.0000000  2
   2885   4413   4415   4417     1  0.0000000  0.0000000  2
   2885   4413   4415   4418     1  0.0000000  0.0000000  2
   2886   4425   4427   4429     1  0.0000000  0.0000000  2
   2886   4425   4427   4430     1  0.0000000  0.0000000  2
   2887   2885   4413   4414     1  0.0000000  8.3680000  1
   2887   2885   4413   4414     1  180.0000771  10.4600000  2
   2888   2886   4425   4426     1  0.0000000  8.3680000  1
   2888   2886   4425   4426     1  180.0000771  10.4600000  2
   2891   2894   2914   2915     1  0.0000000  0.0000000  2
   2891   2897   2898   2899     1  0.0000000  1.2552000  3
   2891   2897   2898   2900     1  0.0000000  1.2552000  3
   2891   2897   2901   2902     1  0.0000000  1.2552000  3
   2891   2897   2901   2903     1  0.0000000  1.2552000  3
   2892   2891   2894   2914     1  0.0000000  0.6508444  3
   2892   2891   2894   2895     1  0.0000000  0.6508444  3
   2892   2891   2894   2896     1  0.0000000  0.6508444  3
   2892   2891   2897   2898     1  0.0000000  1.2552000  3
   2892   2891   2897   2901     1  0.0000000  1.2552000  3
   2893   2891   2894   2914     1  0.0000000  0.6508444  3
   2893   2891   2894   2895     1  0.0000000  0.6508444  3
   2893   2891   2894   2896     1  0.0000000  0.6508444  3
   2893   2891   2897   2898     1  0.0000000  1.2552000  3
   2893   2891   2897   2901     1  0.0000000  1.2552000  3
   2895   2894   2891   2897     1  0.0000000  0.6508444  3
   2895   2894   2914   2915     1  0.0000000  0.0000000  2
   2896   2894   2891   2897     1  0.0000000  0.6508444  3
   2896   2894   2914   2915     1  0.0000000  0.0000000  2
   2897   2898   2907   2908     1  0.0000000  0.6508444  3
   2897   2898   2907   2909     1  0.0000000  0.6508444  3
   2897   2901   2904   2905     1  0.0000000  0.6508444  3
   2897   2901   2904   2906     1  0.0000000  0.6508444  3
   2898   2897   2901   2902     1  0.0000000  1.2552000  3
   2898   2897   2901   2903     1  0.0000000  1.2552000  3
   2899   2898   2897   2901     1  0.0000000  1.2552000  3
   2899   2898   2907   2911     1  0.0000000  0.6508444  3
   2899   2898   2907   2908     1  0.0000000  0.6508444  3
   2899   2898   2907   2909     1  0.0000000  0.6508444  3
   2900   2898   2897   2901     1  0.0000000  1.2552000  3
   2900   2898   2907   2911     1  0.0000000  0.6508444  3
   2900   2898   2907   2908     1  0.0000000  0.6508444  3
   2900   2898   2907   2909     1  0.0000000  0.6508444  3
   2902   2901   2904   2910     1  0.0000000  0.6508444  3
   2902   2901   2904   2905     1  0.0000000  0.6508444  3
   2902   2901   2904   2906     1  0.0000000  0.6508444  3
   2903   2901   2904   2910     1  0.0000000  0.6508444  3
   2903   2901   2904   2905     1  0.0000000  0.6508444  3
   2903   2901   2904   2906     1  0.0000000  0.6508444  3
   2904   2910   4437   4438     1  180.0000771  10.4600000  2
   2905   2904   2910   4437     1  180.0000771  0.0000000  2
   2905   2904   2910   2912     1  0.0000000  3.3472000  1
   2905   2904   2910   2912     1  0.0000000  0.0000000  2
   2905   2904   2910   2912     1  180.0000771  0.3347200  3
   2906   2904   2910   4437     1  180.0000771  0.0000000  2
   2906   2904   2910   2912     1  0.0000000  3.3472000  1
   2906   2904   2910   2912     1  0.0000000  0.0000000  2
   2906   2904   2910   2912     1  180.0000771  0.3347200  3
   2907   2911   4449   4450     1  180.0000771  10.4600000  2
   2908   2907   2911   2913     1  0.0000000  3.3472000  1
   2908   2907   2911   2913     1  0.0000000  0.0000000  2
   2908   2907   2911   2913     1  180.0000771  0.3347200  3
   2908   2907   2911   4449     1  180.0000771  0.0000000  2
   2909   2907   2911   2913     1  0.0000000  3.3472000  1
   2909   2907   2911   2913     1  0.0000000  0.0000000  2
   2909   2907   2911   2913     1  180.0000771  0.3347200  3
   2909   2907   2911   4449     1  180.0000771  0.0000000  2
   2910   4437   4439   4441     1  0.0000000  0.0000000  2
   2910   4437   4439   4442     1  0.0000000  0.0000000  2
   2911   4449   4451   4453     1  0.0000000  0.0000000  2
   2911   4449   4451   4454     1  0.0000000  0.0000000  2
   2912   2910   4437   4438     1  0.0000000  8.3680000  1
   2912   2910   4437   4438     1  180.0000771  10.4600000  2
   2913   2911   4449   4450     1  0.0000000  8.3680000  1
   2913   2911   4449   4450     1  180.0000771  10.4600000  2
   2916   2919   2939   2940     1  0.0000000  0.0000000  2
   2916   2922   2923   2924     1  0.0000000  1.2552000  3
   2916   2922   2923   2925     1  0.0000000  1.2552000  3
   2916   2922   2926   2927     1  0.0000000  1.2552000  3
   2916   2922   2926   2928     1  0.0000000  1.2552000  3
   2917   2916   2919   2939     1  0.0000000  0.6508444  3
   2917   2916   2919   2920     1  0.0000000  0.6508444  3
   2917   2916   2919   2921     1  0.0000000  0.6508444  3
   2917   2916   2922   2923     1  0.0000000  1.2552000  3
   2917   2916   2922   2926     1  0.0000000  1.2552000  3
   2918   2916   2919   2939     1  0.0000000  0.6508444  3
   2918   2916   2919   2920     1  0.0000000  0.6508444  3
   2918   2916   2919   2921     1  0.0000000  0.6508444  3
   2918   2916   2922   2923     1  0.0000000  1.2552000  3
   2918   2916   2922   2926     1  0.0000000  1.2552000  3
   2920   2919   2916   2922     1  0.0000000  0.6508444  3
   2920   2919   2939   2940     1  0.0000000  0.0000000  2
   2921   2919   2916   2922     1  0.0000000  0.6508444  3
   2921   2919   2939   2940     1  0.0000000  0.0000000  2
   2922   2923   2932   2933     1  0.0000000  0.6508444  3
   2922   2923   2932   2934     1  0.0000000  0.6508444  3
   2922   2926   2929   2930     1  0.0000000  0.6508444  3
   2922   2926   2929   2931     1  0.0000000  0.6508444  3
   2923   2922   2926   2927     1  0.0000000  1.2552000  3
   2923   2922   2926   2928     1  0.0000000  1.2552000  3
   2924   2923   2922   2926     1  0.0000000  1.2552000  3
   2924   2923   2932   2936     1  0.0000000  0.6508444  3
   2924   2923   2932   2933     1  0.0000000  0.6508444  3
   2924   2923   2932   2934     1  0.0000000  0.6508444  3
   2925   2923   2922   2926     1  0.0000000  1.2552000  3
   2925   2923   2932   2936     1  0.0000000  0.6508444  3
   2925   2923   2932   2933     1  0.0000000  0.6508444  3
   2925   2923   2932   2934     1  0.0000000  0.6508444  3
   2927   2926   2929   2935     1  0.0000000  0.6508444  3
   2927   2926   2929   2930     1  0.0000000  0.6508444  3
   2927   2926   2929   2931     1  0.0000000  0.6508444  3
   2928   2926   2929   2935     1  0.0000000  0.6508444  3
   2928   2926   2929   2930     1  0.0000000  0.6508444  3
   2928   2926   2929   2931     1  0.0000000  0.6508444  3
   2929   2935   4461   4462     1  180.0000771  10.4600000  2
   2930   2929   2935   4461     1  180.0000771  0.0000000  2
   2930   2929   2935   2937     1  0.0000000  3.3472000  1
   2930   2929   2935   2937     1  0.0000000  0.0000000  2
   2930   2929   2935   2937     1  180.0000771  0.3347200  3
   2931   2929   2935   4461     1  180.0000771  0.0000000  2
   2931   2929   2935   2937     1  0.0000000  3.3472000  1
   2931   2929   2935   2937     1  0.0000000  0.0000000  2
   2931   2929   2935   2937     1  180.0000771  0.3347200  3
   2932   2936   4473   4474     1  180.0000771  10.4600000  2
   2933   2932   2936   2938     1  0.0000000  3.3472000  1
   2933   2932   2936   2938     1  0.0000000  0.0000000  2
   2933   2932   2936   2938     1  180.0000771  0.3347200  3
   2933   2932   2936   4473     1  180.0000771  0.0000000  2
   2934   2932   2936   2938     1  0.0000000  3.3472000  1
   2934   2932   2936   2938     1  0.0000000  0.0000000  2
   2934   2932   2936   2938     1  180.0000771  0.3347200  3
   2934   2932   2936   4473     1  180.0000771  0.0000000  2
   2935   4461   4463   4465     1  0.0000000  0.0000000  2
   2935   4461   4463   4466     1  0.0000000  0.0000000  2
   2936   4473   4475   4477     1  0.0000000  0.0000000  2
   2936   4473   4475   4478     1  0.0000000  0.0000000  2
   2937   2935   4461   4462     1  0.0000000  8.3680000  1
   2937   2935   4461   4462     1  180.0000771  10.4600000  2
   2938   2936   4473   4474     1  0.0000000  8.3680000  1
   2938   2936   4473   4474     1  180.0000771  10.4600000  2
   2941   2944   2964   2965     1  0.0000000  0.0000000  2
   2941   2947   2948   2949     1  0.0000000  1.2552000  3
   2941   2947   2948   2950     1  0.0000000  1.2552000  3
   2941   2947   2951   2952     1  0.0000000  1.2552000  3
   2941   2947   2951   2953     1  0.0000000  1.2552000  3
   2942   2941   2944   2964     1  0.0000000  0.6508444  3
   2942   2941   2944   2945     1  0.0000000  0.6508444  3
   2942   2941   2944   2946     1  0.0000000  0.6508444  3
   2942   2941   2947   2948     1  0.0000000  1.2552000  3
   2942   2941   2947   2951     1  0.0000000  1.2552000  3
   2943   2941   2944   2964     1  0.0000000  0.6508444  3
   2943   2941   2944   2945     1  0.0000000  0.6508444  3
   2943   2941   2944   2946     1  0.0000000  0.6508444  3
   2943   2941   2947   2948     1  0.0000000  1.2552000  3
   2943   2941   2947   2951     1  0.0000000  1.2552000  3
   2945   2944   2941   2947     1  0.0000000  0.6508444  3
   2945   2944   2964   2965     1  0.0000000  0.0000000  2
   2946   2944   2941   2947     1  0.0000000  0.6508444  3
   2946   2944   2964   2965     1  0.0000000  0.0000000  2
   2947   2948   2957   2958     1  0.0000000  0.6508444  3
   2947   2948   2957   2959     1  0.0000000  0.6508444  3
   2947   2951   2954   2955     1  0.0000000  0.6508444  3
   2947   2951   2954   2956     1  0.0000000  0.6508444  3
   2948   2947   2951   2952     1  0.0000000  1.2552000  3
   2948   2947   2951   2953     1  0.0000000  1.2552000  3
   2949   2948   2947   2951     1  0.0000000  1.2552000  3
   2949   2948   2957   2961     1  0.0000000  0.6508444  3
   2949   2948   2957   2958     1  0.0000000  0.6508444  3
   2949   2948   2957   2959     1  0.0000000  0.6508444  3
   2950   2948   2947   2951     1  0.0000000  1.2552000  3
   2950   2948   2957   2961     1  0.0000000  0.6508444  3
   2950   2948   2957   2958     1  0.0000000  0.6508444  3
   2950   2948   2957   2959     1  0.0000000  0.6508444  3
   2952   2951   2954   2960     1  0.0000000  0.6508444  3
   2952   2951   2954   2955     1  0.0000000  0.6508444  3
   2952   2951   2954   2956     1  0.0000000  0.6508444  3
   2953   2951   2954   2960     1  0.0000000  0.6508444  3
   2953   2951   2954   2955     1  0.0000000  0.6508444  3
   2953   2951   2954   2956     1  0.0000000  0.6508444  3
   2954   2960   4485   4486     1  180.0000771  10.4600000  2
   2955   2954   2960   4485     1  180.0000771  0.0000000  2
   2955   2954   2960   2962     1  0.0000000  3.3472000  1
   2955   2954   2960   2962     1  0.0000000  0.0000000  2
   2955   2954   2960   2962     1  180.0000771  0.3347200  3
   2956   2954   2960   4485     1  180.0000771  0.0000000  2
   2956   2954   2960   2962     1  0.0000000  3.3472000  1
   2956   2954   2960   2962     1  0.0000000  0.0000000  2
   2956   2954   2960   2962     1  180.0000771  0.3347200  3
   2957   2961   4497   4498     1  180.0000771  10.4600000  2
   2958   2957   2961   2963     1  0.0000000  3.3472000  1
   2958   2957   2961   2963     1  0.0000000  0.0000000  2
   2958   2957   2961   2963     1  180.0000771  0.3347200  3
   2958   2957   2961   4497     1  180.0000771  0.0000000  2
   2959   2957   2961   2963     1  0.0000000  3.3472000  1
   2959   2957   2961   2963     1  0.0000000  0.0000000  2
   2959   2957   2961   2963     1  180.0000771  0.3347200  3
   2959   2957   2961   4497     1  180.0000771  0.0000000  2
   2960   4485   4487   4489     1  0.0000000  0.0000000  2
   2960   4485   4487   4490     1  0.0000000  0.0000000  2
   2961   4497   4499   4501     1  0.0000000  0.0000000  2
   2961   4497   4499   4502     1  0.0000000  0.0000000  2
   2962   2960   4485   4486     1  0.0000000  8.3680000  1
   2962   2960   4485   4486     1  180.0000771  10.4600000  2
   2963   2961   4497   4498     1  0.0000000  8.3680000  1
   2963   2961   4497   4498     1  180.0000771  10.4600000  2
   2966   2969   2989   2990     1  0.0000000  0.0000000  2
   2966   2972   2973   2974     1  0.0000000  1.2552000  3
   2966   2972   2973   2975     1  0.0000000  1.2552000  3
   2966   2972   2976   2977     1  0.0000000  1.2552000  3
   2966   2972   2976   2978     1  0.0000000  1.2552000  3
   2967   2966   2969   2989     1  0.0000000  0.6508444  3
   2967   2966   2969   2970     1  0.0000000  0.6508444  3
   2967   2966   2969   2971     1  0.0000000  0.6508444  3
   2967   2966   2972   2973     1  0.0000000  1.2552000  3
   2967   2966   2972   2976     1  0.0000000  1.2552000  3
   2968   2966   2969   2989     1  0.0000000  0.6508444  3
   2968   2966   2969   2970     1  0.0000000  0.6508444  3
   2968   2966   2969   2971     1  0.0000000  0.6508444  3
   2968   2966   2972   2973     1  0.0000000  1.2552000  3
   2968   2966   2972   2976     1  0.0000000  1.2552000  3
   2970   2969   2966   2972     1  0.0000000  0.6508444  3
   2970   2969   2989   2990     1  0.0000000  0.0000000  2
   2971   2969   2966   2972     1  0.0000000  0.6508444  3
   2971   2969   2989   2990     1  0.0000000  0.0000000  2
   2972   2973   2982   2983     1  0.0000000  0.6508444  3
   2972   2973   2982   2984     1  0.0000000  0.6508444  3
   2972   2976   2979   2980     1  0.0000000  0.6508444  3
   2972   2976   2979   2981     1  0.0000000  0.6508444  3
   2973   2972   2976   2977     1  0.0000000  1.2552000  3
   2973   2972   2976   2978     1  0.0000000  1.2552000  3
   2974   2973   2972   2976     1  0.0000000  1.2552000  3
   2974   2973   2982   2986     1  0.0000000  0.6508444  3
   2974   2973   2982   2983     1  0.0000000  0.6508444  3
   2974   2973   2982   2984     1  0.0000000  0.6508444  3
   2975   2973   2972   2976     1  0.0000000  1.2552000  3
   2975   2973   2982   2986     1  0.0000000  0.6508444  3
   2975   2973   2982   2983     1  0.0000000  0.6508444  3
   2975   2973   2982   2984     1  0.0000000  0.6508444  3
   2977   2976   2979   2985     1  0.0000000  0.6508444  3
   2977   2976   2979   2980     1  0.0000000  0.6508444  3
   2977   2976   2979   2981     1  0.0000000  0.6508444  3
   2978   2976   2979   2985     1  0.0000000  0.6508444  3
   2978   2976   2979   2980     1  0.0000000  0.6508444  3
   2978   2976   2979   2981     1  0.0000000  0.6508444  3
   2979   2985   4509   4510     1  180.0000771  10.4600000  2
   2980   2979   2985   4509     1  180.0000771  0.0000000  2
   2980   2979   2985   2987     1  0.0000000  3.3472000  1
   2980   2979   2985   2987     1  0.0000000  0.0000000  2
   2980   2979   2985   2987     1  180.0000771  0.3347200  3
   2981   2979   2985   4509     1  180.0000771  0.0000000  2
   2981   2979   2985   2987     1  0.0000000  3.3472000  1
   2981   2979   2985   2987     1  0.0000000  0.0000000  2
   2981   2979   2985   2987     1  180.0000771  0.3347200  3
   2982   2986   4521   4522     1  180.0000771  10.4600000  2
   2983   2982   2986   2988     1  0.0000000  3.3472000  1
   2983   2982   2986   2988     1  0.0000000  0.0000000  2
   2983   2982   2986   2988     1  180.0000771  0.3347200  3
   2983   2982   2986   4521     1  180.0000771  0.0000000  2
   2984   2982   2986   2988     1  0.0000000  3.3472000  1
   2984   2982   2986   2988     1  0.0000000  0.0000000  2
   2984   2982   2986   2988     1  180.0000771  0.3347200  3
   2984   2982   2986   4521     1  180.0000771  0.0000000  2
   2985   4509   4511   4513     1  0.0000000  0.0000000  2
   2985   4509   4511   4514     1  0.0000000  0.0000000  2
   2986   4521   4523   4525     1  0.0000000  0.0000000  2
   2986   4521   4523   4526     1  0.0000000  0.0000000  2
   2987   2985   4509   4510     1  0.0000000  8.3680000  1
   2987   2985   4509   4510     1  180.0000771  10.4600000  2
   2988   2986   4521   4522     1  0.0000000  8.3680000  1
   2988   2986   4521   4522     1  180.0000771  10.4600000  2
   2991   2994   3014   3015     1  0.0000000  0.0000000  2
   2991   2997   2998   2999     1  0.0000000  1.2552000  3
   2991   2997   2998   3000     1  0.0000000  1.2552000  3
   2991   2997   3001   3002     1  0.0000000  1.2552000  3
   2991   2997   3001   3003     1  0.0000000  1.2552000  3
   2992   2991   2994   3014     1  0.0000000  0.6508444  3
   2992   2991   2994   2995     1  0.0000000  0.6508444  3
   2992   2991   2994   2996     1  0.0000000  0.6508444  3
   2992   2991   2997   2998     1  0.0000000  1.2552000  3
   2992   2991   2997   3001     1  0.0000000  1.2552000  3
   2993   2991   2994   3014     1  0.0000000  0.6508444  3
   2993   2991   2994   2995     1  0.0000000  0.6508444  3
   2993   2991   2994   2996     1  0.0000000  0.6508444  3
   2993   2991   2997   2998     1  0.0000000  1.2552000  3
   2993   2991   2997   3001     1  0.0000000  1.2552000  3
   2995   2994   2991   2997     1  0.0000000  0.6508444  3
   2995   2994   3014   3015     1  0.0000000  0.0000000  2
   2996   2994   2991   2997     1  0.0000000  0.6508444  3
   2996   2994   3014   3015     1  0.0000000  0.0000000  2
   2997   2998   3007   3008     1  0.0000000  0.6508444  3
   2997   2998   3007   3009     1  0.0000000  0.6508444  3
   2997   3001   3004   3005     1  0.0000000  0.6508444  3
   2997   3001   3004   3006     1  0.0000000  0.6508444  3
   2998   2997   3001   3002     1  0.0000000  1.2552000  3
   2998   2997   3001   3003     1  0.0000000  1.2552000  3
   2999   2998   2997   3001     1  0.0000000  1.2552000  3
   2999   2998   3007   3011     1  0.0000000  0.6508444  3
   2999   2998   3007   3008     1  0.0000000  0.6508444  3
   2999   2998   3007   3009     1  0.0000000  0.6508444  3
   3000   2998   2997   3001     1  0.0000000  1.2552000  3
   3000   2998   3007   3011     1  0.0000000  0.6508444  3
   3000   2998   3007   3008     1  0.0000000  0.6508444  3
   3000   2998   3007   3009     1  0.0000000  0.6508444  3
   3002   3001   3004   3010     1  0.0000000  0.6508444  3
   3002   3001   3004   3005     1  0.0000000  0.6508444  3
   3002   3001   3004   3006     1  0.0000000  0.6508444  3
   3003   3001   3004   3010     1  0.0000000  0.6508444  3
   3003   3001   3004   3005     1  0.0000000  0.6508444  3
   3003   3001   3004   3006     1  0.0000000  0.6508444  3
   3004   3010   4533   4534     1  180.0000771  10.4600000  2
   3005   3004   3010   4533     1  180.0000771  0.0000000  2
   3005   3004   3010   3012     1  0.0000000  3.3472000  1
   3005   3004   3010   3012     1  0.0000000  0.0000000  2
   3005   3004   3010   3012     1  180.0000771  0.3347200  3
   3006   3004   3010   4533     1  180.0000771  0.0000000  2
   3006   3004   3010   3012     1  0.0000000  3.3472000  1
   3006   3004   3010   3012     1  0.0000000  0.0000000  2
   3006   3004   3010   3012     1  180.0000771  0.3347200  3
   3007   3011   4545   4546     1  180.0000771  10.4600000  2
   3008   3007   3011   3013     1  0.0000000  3.3472000  1
   3008   3007   3011   3013     1  0.0000000  0.0000000  2
   3008   3007   3011   3013     1  180.0000771  0.3347200  3
   3008   3007   3011   4545     1  180.0000771  0.0000000  2
   3009   3007   3011   3013     1  0.0000000  3.3472000  1
   3009   3007   3011   3013     1  0.0000000  0.0000000  2
   3009   3007   3011   3013     1  180.0000771  0.3347200  3
   3009   3007   3011   4545     1  180.0000771  0.0000000  2
   3010   4533   4535   4537     1  0.0000000  0.0000000  2
   3010   4533   4535   4538     1  0.0000000  0.0000000  2
   3011   4545   4547   4549     1  0.0000000  0.0000000  2
   3011   4545   4547   4550     1  0.0000000  0.0000000  2
   3012   3010   4533   4534     1  0.0000000  8.3680000  1
   3012   3010   4533   4534     1  180.0000771  10.4600000  2
   3013   3011   4545   4546     1  0.0000000  8.3680000  1
   3013   3011   4545   4546     1  180.0000771  10.4600000  2
   3016   3019   3039   3040     1  0.0000000  0.0000000  2
   3016   3022   3023   3024     1  0.0000000  1.2552000  3
   3016   3022   3023   3025     1  0.0000000  1.2552000  3
   3016   3022   3026   3027     1  0.0000000  1.2552000  3
   3016   3022   3026   3028     1  0.0000000  1.2552000  3
   3017   3016   3019   3039     1  0.0000000  0.6508444  3
   3017   3016   3019   3020     1  0.0000000  0.6508444  3
   3017   3016   3019   3021     1  0.0000000  0.6508444  3
   3017   3016   3022   3023     1  0.0000000  1.2552000  3
   3017   3016   3022   3026     1  0.0000000  1.2552000  3
   3018   3016   3019   3039     1  0.0000000  0.6508444  3
   3018   3016   3019   3020     1  0.0000000  0.6508444  3
   3018   3016   3019   3021     1  0.0000000  0.6508444  3
   3018   3016   3022   3023     1  0.0000000  1.2552000  3
   3018   3016   3022   3026     1  0.0000000  1.2552000  3
   3020   3019   3016   3022     1  0.0000000  0.6508444  3
   3020   3019   3039   3040     1  0.0000000  0.0000000  2
   3021   3019   3016   3022     1  0.0000000  0.6508444  3
   3021   3019   3039   3040     1  0.0000000  0.0000000  2
   3022   3023   3032   3033     1  0.0000000  0.6508444  3
   3022   3023   3032   3034     1  0.0000000  0.6508444  3
   3022   3026   3029   3030     1  0.0000000  0.6508444  3
   3022   3026   3029   3031     1  0.0000000  0.6508444  3
   3023   3022   3026   3027     1  0.0000000  1.2552000  3
   3023   3022   3026   3028     1  0.0000000  1.2552000  3
   3024   3023   3022   3026     1  0.0000000  1.2552000  3
   3024   3023   3032   3036     1  0.0000000  0.6508444  3
   3024   3023   3032   3033     1  0.0000000  0.6508444  3
   3024   3023   3032   3034     1  0.0000000  0.6508444  3
   3025   3023   3022   3026     1  0.0000000  1.2552000  3
   3025   3023   3032   3036     1  0.0000000  0.6508444  3
   3025   3023   3032   3033     1  0.0000000  0.6508444  3
   3025   3023   3032   3034     1  0.0000000  0.6508444  3
   3027   3026   3029   3035     1  0.0000000  0.6508444  3
   3027   3026   3029   3030     1  0.0000000  0.6508444  3
   3027   3026   3029   3031     1  0.0000000  0.6508444  3
   3028   3026   3029   3035     1  0.0000000  0.6508444  3
   3028   3026   3029   3030     1  0.0000000  0.6508444  3
   3028   3026   3029   3031     1  0.0000000  0.6508444  3
   3029   3035   4557   4558     1  180.0000771  10.4600000  2
   3030   3029   3035   4557     1  180.0000771  0.0000000  2
   3030   3029   3035   3037     1  0.0000000  3.3472000  1
   3030   3029   3035   3037     1  0.0000000  0.0000000  2
   3030   3029   3035   3037     1  180.0000771  0.3347200  3
   3031   3029   3035   4557     1  180.0000771  0.0000000  2
   3031   3029   3035   3037     1  0.0000000  3.3472000  1
   3031   3029   3035   3037     1  0.0000000  0.0000000  2
   3031   3029   3035   3037     1  180.0000771  0.3347200  3
   3032   3036   4569   4570     1  180.0000771  10.4600000  2
   3033   3032   3036   3038     1  0.0000000  3.3472000  1
   3033   3032   3036   3038     1  0.0000000  0.0000000  2
   3033   3032   3036   3038     1  180.0000771  0.3347200  3
   3033   3032   3036   4569     1  180.0000771  0.0000000  2
   3034   3032   3036   3038     1  0.0000000  3.3472000  1
   3034   3032   3036   3038     1  0.0000000  0.0000000  2
   3034   3032   3036   3038     1  180.0000771  0.3347200  3
   3034   3032   3036   4569     1  180.0000771  0.0000000  2
   3035   4557   4559   4561     1  0.0000000  0.0000000  2
   3035   4557   4559   4562     1  0.0000000  0.0000000  2
   3036   4569   4571   4573     1  0.0000000  0.0000000  2
   3036   4569   4571   4574     1  0.0000000  0.0000000  2
   3037   3035   4557   4558     1  0.0000000  8.3680000  1
   3037   3035   4557   4558     1  180.0000771  10.4600000  2
   3038   3036   4569   4570     1  0.0000000  8.3680000  1
   3038   3036   4569   4570     1  180.0000771  10.4600000  2
   3041   3044   3064   3065     1  0.0000000  0.0000000  2
   3041   3047   3048   3049     1  0.0000000  1.2552000  3
   3041   3047   3048   3050     1  0.0000000  1.2552000  3
   3041   3047   3051   3052     1  0.0000000  1.2552000  3
   3041   3047   3051   3053     1  0.0000000  1.2552000  3
   3042   3041   3044   3064     1  0.0000000  0.6508444  3
   3042   3041   3044   3045     1  0.0000000  0.6508444  3
   3042   3041   3044   3046     1  0.0000000  0.6508444  3
   3042   3041   3047   3048     1  0.0000000  1.2552000  3
   3042   3041   3047   3051     1  0.0000000  1.2552000  3
   3043   3041   3044   3064     1  0.0000000  0.6508444  3
   3043   3041   3044   3045     1  0.0000000  0.6508444  3
   3043   3041   3044   3046     1  0.0000000  0.6508444  3
   3043   3041   3047   3048     1  0.0000000  1.2552000  3
   3043   3041   3047   3051     1  0.0000000  1.2552000  3
   3045   3044   3041   3047     1  0.0000000  0.6508444  3
   3045   3044   3064   3065     1  0.0000000  0.0000000  2
   3046   3044   3041   3047     1  0.0000000  0.6508444  3
   3046   3044   3064   3065     1  0.0000000  0.0000000  2
   3047   3048   3057   3058     1  0.0000000  0.6508444  3
   3047   3048   3057   3059     1  0.0000000  0.6508444  3
   3047   3051   3054   3055     1  0.0000000  0.6508444  3
   3047   3051   3054   3056     1  0.0000000  0.6508444  3
   3048   3047   3051   3052     1  0.0000000  1.2552000  3
   3048   3047   3051   3053     1  0.0000000  1.2552000  3
   3049   3048   3047   3051     1  0.0000000  1.2552000  3
   3049   3048   3057   3061     1  0.0000000  0.6508444  3
   3049   3048   3057   3058     1  0.0000000  0.6508444  3
   3049   3048   3057   3059     1  0.0000000  0.6508444  3
   3050   3048   3047   3051     1  0.0000000  1.2552000  3
   3050   3048   3057   3061     1  0.0000000  0.6508444  3
   3050   3048   3057   3058     1  0.0000000  0.6508444  3
   3050   3048   3057   3059     1  0.0000000  0.6508444  3
   3052   3051   3054   3060     1  0.0000000  0.6508444  3
   3052   3051   3054   3055     1  0.0000000  0.6508444  3
   3052   3051   3054   3056     1  0.0000000  0.6508444  3
   3053   3051   3054   3060     1  0.0000000  0.6508444  3
   3053   3051   3054   3055     1  0.0000000  0.6508444  3
   3053   3051   3054   3056     1  0.0000000  0.6508444  3
   3054   3060   4581   4582     1  180.0000771  10.4600000  2
   3055   3054   3060   4581     1  180.0000771  0.0000000  2
   3055   3054   3060   3062     1  0.0000000  3.3472000  1
   3055   3054   3060   3062     1  0.0000000  0.0000000  2
   3055   3054   3060   3062     1  180.0000771  0.3347200  3
   3056   3054   3060   4581     1  180.0000771  0.0000000  2
   3056   3054   3060   3062     1  0.0000000  3.3472000  1
   3056   3054   3060   3062     1  0.0000000  0.0000000  2
   3056   3054   3060   3062     1  180.0000771  0.3347200  3
   3057   3061   4593   4594     1  180.0000771  10.4600000  2
   3058   3057   3061   3063     1  0.0000000  3.3472000  1
   3058   3057   3061   3063     1  0.0000000  0.0000000  2
   3058   3057   3061   3063     1  180.0000771  0.3347200  3
   3058   3057   3061   4593     1  180.0000771  0.0000000  2
   3059   3057   3061   3063     1  0.0000000  3.3472000  1
   3059   3057   3061   3063     1  0.0000000  0.0000000  2
   3059   3057   3061   3063     1  180.0000771  0.3347200  3
   3059   3057   3061   4593     1  180.0000771  0.0000000  2
   3060   4581   4583   4585     1  0.0000000  0.0000000  2
   3060   4581   4583   4586     1  0.0000000  0.0000000  2
   3061   4593   4595   4597     1  0.0000000  0.0000000  2
   3061   4593   4595   4598     1  0.0000000  0.0000000  2
   3062   3060   4581   4582     1  0.0000000  8.3680000  1
   3062   3060   4581   4582     1  180.0000771  10.4600000  2
   3063   3061   4593   4594     1  0.0000000  8.3680000  1
   3063   3061   4593   4594     1  180.0000771  10.4600000  2
   3066   3069   3089   3090     1  0.0000000  0.0000000  2
   3066   3072   3073   3074     1  0.0000000  1.2552000  3
   3066   3072   3073   3075     1  0.0000000  1.2552000  3
   3066   3072   3076   3077     1  0.0000000  1.2552000  3
   3066   3072   3076   3078     1  0.0000000  1.2552000  3
   3067   3066   3069   3089     1  0.0000000  0.6508444  3
   3067   3066   3069   3070     1  0.0000000  0.6508444  3
   3067   3066   3069   3071     1  0.0000000  0.6508444  3
   3067   3066   3072   3073     1  0.0000000  1.2552000  3
   3067   3066   3072   3076     1  0.0000000  1.2552000  3
   3068   3066   3069   3089     1  0.0000000  0.6508444  3
   3068   3066   3069   3070     1  0.0000000  0.6508444  3
   3068   3066   3069   3071     1  0.0000000  0.6508444  3
   3068   3066   3072   3073     1  0.0000000  1.2552000  3
   3068   3066   3072   3076     1  0.0000000  1.2552000  3
   3070   3069   3066   3072     1  0.0000000  0.6508444  3
   3070   3069   3089   3090     1  0.0000000  0.0000000  2
   3071   3069   3066   3072     1  0.0000000  0.6508444  3
   3071   3069   3089   3090     1  0.0000000  0.0000000  2
   3072   3073   3082   3083     1  0.0000000  0.6508444  3
   3072   3073   3082   3084     1  0.0000000  0.6508444  3
   3072   3076   3079   3080     1  0.0000000  0.6508444  3
   3072   3076   3079   3081     1  0.0000000  0.6508444  3
   3073   3072   3076   3077     1  0.0000000  1.2552000  3
   3073   3072   3076   3078     1  0.0000000  1.2552000  3
   3074   3073   3072   3076     1  0.0000000  1.2552000  3
   3074   3073   3082   3086     1  0.0000000  0.6508444  3
   3074   3073   3082   3083     1  0.0000000  0.6508444  3
   3074   3073   3082   3084     1  0.0000000  0.6508444  3
   3075   3073   3072   3076     1  0.0000000  1.2552000  3
   3075   3073   3082   3086     1  0.0000000  0.6508444  3
   3075   3073   3082   3083     1  0.0000000  0.6508444  3
   3075   3073   3082   3084     1  0.0000000  0.6508444  3
   3077   3076   3079   3085     1  0.0000000  0.6508444  3
   3077   3076   3079   3080     1  0.0000000  0.6508444  3
   3077   3076   3079   3081     1  0.0000000  0.6508444  3
   3078   3076   3079   3085     1  0.0000000  0.6508444  3
   3078   3076   3079   3080     1  0.0000000  0.6508444  3
   3078   3076   3079   3081     1  0.0000000  0.6508444  3
   3079   3085   4605   4606     1  180.0000771  10.4600000  2
   3080   3079   3085   4605     1  180.0000771  0.0000000  2
   3080   3079   3085   3087     1  0.0000000  3.3472000  1
   3080   3079   3085   3087     1  0.0000000  0.0000000  2
   3080   3079   3085   3087     1  180.0000771  0.3347200  3
   3081   3079   3085   4605     1  180.0000771  0.0000000  2
   3081   3079   3085   3087     1  0.0000000  3.3472000  1
   3081   3079   3085   3087     1  0.0000000  0.0000000  2
   3081   3079   3085   3087     1  180.0000771  0.3347200  3
   3082   3086   4617   4618     1  180.0000771  10.4600000  2
   3083   3082   3086   3088     1  0.0000000  3.3472000  1
   3083   3082   3086   3088     1  0.0000000  0.0000000  2
   3083   3082   3086   3088     1  180.0000771  0.3347200  3
   3083   3082   3086   4617     1  180.0000771  0.0000000  2
   3084   3082   3086   3088     1  0.0000000  3.3472000  1
   3084   3082   3086   3088     1  0.0000000  0.0000000  2
   3084   3082   3086   3088     1  180.0000771  0.3347200  3
   3084   3082   3086   4617     1  180.0000771  0.0000000  2
   3085   4605   4607   4609     1  0.0000000  0.0000000  2
   3085   4605   4607   4610     1  0.0000000  0.0000000  2
   3086   4617   4619   4621     1  0.0000000  0.0000000  2
   3086   4617   4619   4622     1  0.0000000  0.0000000  2
   3087   3085   4605   4606     1  0.0000000  8.3680000  1
   3087   3085   4605   4606     1  180.0000771  10.4600000  2
   3088   3086   4617   4618     1  0.0000000  8.3680000  1
   3088   3086   4617   4618     1  180.0000771  10.4600000  2
   3091   3094   3114   3115     1  0.0000000  0.0000000  2
   3091   3097   3098   3099     1  0.0000000  1.2552000  3
   3091   3097   3098   3100     1  0.0000000  1.2552000  3
   3091   3097   3101   3102     1  0.0000000  1.2552000  3
   3091   3097   3101   3103     1  0.0000000  1.2552000  3
   3092   3091   3094   3114     1  0.0000000  0.6508444  3
   3092   3091   3094   3095     1  0.0000000  0.6508444  3
   3092   3091   3094   3096     1  0.0000000  0.6508444  3
   3092   3091   3097   3098     1  0.0000000  1.2552000  3
   3092   3091   3097   3101     1  0.0000000  1.2552000  3
   3093   3091   3094   3114     1  0.0000000  0.6508444  3
   3093   3091   3094   3095     1  0.0000000  0.6508444  3
   3093   3091   3094   3096     1  0.0000000  0.6508444  3
   3093   3091   3097   3098     1  0.0000000  1.2552000  3
   3093   3091   3097   3101     1  0.0000000  1.2552000  3
   3095   3094   3091   3097     1  0.0000000  0.6508444  3
   3095   3094   3114   3115     1  0.0000000  0.0000000  2
   3096   3094   3091   3097     1  0.0000000  0.6508444  3
   3096   3094   3114   3115     1  0.0000000  0.0000000  2
   3097   3098   3107   3108     1  0.0000000  0.6508444  3
   3097   3098   3107   3109     1  0.0000000  0.6508444  3
   3097   3101   3104   3105     1  0.0000000  0.6508444  3
   3097   3101   3104   3106     1  0.0000000  0.6508444  3
   3098   3097   3101   3102     1  0.0000000  1.2552000  3
   3098   3097   3101   3103     1  0.0000000  1.2552000  3
   3099   3098   3097   3101     1  0.0000000  1.2552000  3
   3099   3098   3107   3111     1  0.0000000  0.6508444  3
   3099   3098   3107   3108     1  0.0000000  0.6508444  3
   3099   3098   3107   3109     1  0.0000000  0.6508444  3
   3100   3098   3097   3101     1  0.0000000  1.2552000  3
   3100   3098   3107   3111     1  0.0000000  0.6508444  3
   3100   3098   3107   3108     1  0.0000000  0.6508444  3
   3100   3098   3107   3109     1  0.0000000  0.6508444  3
   3102   3101   3104   3110     1  0.0000000  0.6508444  3
   3102   3101   3104   3105     1  0.0000000  0.6508444  3
   3102   3101   3104   3106     1  0.0000000  0.6508444  3
   3103   3101   3104   3110     1  0.0000000  0.6508444  3
   3103   3101   3104   3105     1  0.0000000  0.6508444  3
   3103   3101   3104   3106     1  0.0000000  0.6508444  3
   3104   3110   4629   4630     1  180.0000771  10.4600000  2
   3105   3104   3110   4629     1  180.0000771  0.0000000  2
   3105   3104   3110   3112     1  0.0000000  3.3472000  1
   3105   3104   3110   3112     1  0.0000000  0.0000000  2
   3105   3104   3110   3112     1  180.0000771  0.3347200  3
   3106   3104   3110   4629     1  180.0000771  0.0000000  2
   3106   3104   3110   3112     1  0.0000000  3.3472000  1
   3106   3104   3110   3112     1  0.0000000  0.0000000  2
   3106   3104   3110   3112     1  180.0000771  0.3347200  3
   3107   3111   4641   4642     1  180.0000771  10.4600000  2
   3108   3107   3111   3113     1  0.0000000  3.3472000  1
   3108   3107   3111   3113     1  0.0000000  0.0000000  2
   3108   3107   3111   3113     1  180.0000771  0.3347200  3
   3108   3107   3111   4641     1  180.0000771  0.0000000  2
   3109   3107   3111   3113     1  0.0000000  3.3472000  1
   3109   3107   3111   3113     1  0.0000000  0.0000000  2
   3109   3107   3111   3113     1  180.0000771  0.3347200  3
   3109   3107   3111   4641     1  180.0000771  0.0000000  2
   3110   4629   4631   4633     1  0.0000000  0.0000000  2
   3110   4629   4631   4634     1  0.0000000  0.0000000  2
   3111   4641   4643   4645     1  0.0000000  0.0000000  2
   3111   4641   4643   4646     1  0.0000000  0.0000000  2
   3112   3110   4629   4630     1  0.0000000  8.3680000  1
   3112   3110   4629   4630     1  180.0000771  10.4600000  2
   3113   3111   4641   4642     1  0.0000000  8.3680000  1
   3113   3111   4641   4642     1  180.0000771  10.4600000  2
   3116   3119   3139   3140     1  0.0000000  0.0000000  2
   3116   3122   3123   3124     1  0.0000000  1.2552000  3
   3116   3122   3123   3125     1  0.0000000  1.2552000  3
   3116   3122   3126   3127     1  0.0000000  1.2552000  3
   3116   3122   3126   3128     1  0.0000000  1.2552000  3
   3117   3116   3119   3139     1  0.0000000  0.6508444  3
   3117   3116   3119   3120     1  0.0000000  0.6508444  3
   3117   3116   3119   3121     1  0.0000000  0.6508444  3
   3117   3116   3122   3123     1  0.0000000  1.2552000  3
   3117   3116   3122   3126     1  0.0000000  1.2552000  3
   3118   3116   3119   3139     1  0.0000000  0.6508444  3
   3118   3116   3119   3120     1  0.0000000  0.6508444  3
   3118   3116   3119   3121     1  0.0000000  0.6508444  3
   3118   3116   3122   3123     1  0.0000000  1.2552000  3
   3118   3116   3122   3126     1  0.0000000  1.2552000  3
   3120   3119   3116   3122     1  0.0000000  0.6508444  3
   3120   3119   3139   3140     1  0.0000000  0.0000000  2
   3121   3119   3116   3122     1  0.0000000  0.6508444  3
   3121   3119   3139   3140     1  0.0000000  0.0000000  2
   3122   3123   3132   3133     1  0.0000000  0.6508444  3
   3122   3123   3132   3134     1  0.0000000  0.6508444  3
   3122   3126   3129   3130     1  0.0000000  0.6508444  3
   3122   3126   3129   3131     1  0.0000000  0.6508444  3
   3123   3122   3126   3127     1  0.0000000  1.2552000  3
   3123   3122   3126   3128     1  0.0000000  1.2552000  3
   3124   3123   3122   3126     1  0.0000000  1.2552000  3
   3124   3123   3132   3136     1  0.0000000  0.6508444  3
   3124   3123   3132   3133     1  0.0000000  0.6508444  3
   3124   3123   3132   3134     1  0.0000000  0.6508444  3
   3125   3123   3122   3126     1  0.0000000  1.2552000  3
   3125   3123   3132   3136     1  0.0000000  0.6508444  3
   3125   3123   3132   3133     1  0.0000000  0.6508444  3
   3125   3123   3132   3134     1  0.0000000  0.6508444  3
   3127   3126   3129   3135     1  0.0000000  0.6508444  3
   3127   3126   3129   3130     1  0.0000000  0.6508444  3
   3127   3126   3129   3131     1  0.0000000  0.6508444  3
   3128   3126   3129   3135     1  0.0000000  0.6508444  3
   3128   3126   3129   3130     1  0.0000000  0.6508444  3
   3128   3126   3129   3131     1  0.0000000  0.6508444  3
   3129   3135   4653   4654     1  180.0000771  10.4600000  2
   3130   3129   3135   4653     1  180.0000771  0.0000000  2
   3130   3129   3135   3137     1  0.0000000  3.3472000  1
   3130   3129   3135   3137     1  0.0000000  0.0000000  2
   3130   3129   3135   3137     1  180.0000771  0.3347200  3
   3131   3129   3135   4653     1  180.0000771  0.0000000  2
   3131   3129   3135   3137     1  0.0000000  3.3472000  1
   3131   3129   3135   3137     1  0.0000000  0.0000000  2
   3131   3129   3135   3137     1  180.0000771  0.3347200  3
   3132   3136   4665   4666     1  180.0000771  10.4600000  2
   3133   3132   3136   4665     1  180.0000771  0.0000000  2
   3133   3132   3136   3138     1  0.0000000  3.3472000  1
   3133   3132   3136   3138     1  0.0000000  0.0000000  2
   3133   3132   3136   3138     1  180.0000771  0.3347200  3
   3134   3132   3136   4665     1  180.0000771  0.0000000  2
   3134   3132   3136   3138     1  0.0000000  3.3472000  1
   3134   3132   3136   3138     1  0.0000000  0.0000000  2
   3134   3132   3136   3138     1  180.0000771  0.3347200  3
   3135   4653   4655   4657     1  0.0000000  0.0000000  2
   3135   4653   4655   4658     1  0.0000000  0.0000000  2
   3136   4665   4667   4669     1  0.0000000  0.0000000  2
   3136   4665   4667   4670     1  0.0000000  0.0000000  2
   3137   3135   4653   4654     1  0.0000000  8.3680000  1
   3137   3135   4653   4654     1  180.0000771  10.4600000  2
   3138   3136   4665   4666     1  0.0000000  8.3680000  1
   3138   3136   4665   4666     1  180.0000771  10.4600000  2
   3141   3143   3144   3147     1  0.0000000  0.6508444  3
   3141   3143   3144   3148     1  0.0000000  0.6508444  3
   3142   3141   3143   3144     1  0.0000000  0.0000000  2
   3142   3141   3143   3145     1  0.0000000  0.0000000  2
   3142   3141   3143   3146     1  0.0000000  0.0000000  2
   3143   3144   3149   3150     1  0.0000000  0.6508444  3
   3143   3144   3149   3151     1  0.0000000  0.6508444  3
   3143   3144   3149   3152     1  0.0000000  0.6508444  3
   3145   3143   3144   3149     1  0.0000000  0.6508444  3
   3145   3143   3144   3147     1  0.0000000  0.6508444  3
   3145   3143   3144   3148     1  0.0000000  0.6508444  3
   3146   3143   3144   3149     1  0.0000000  0.6508444  3
   3146   3143   3144   3147     1  0.0000000  0.6508444  3
   3146   3143   3144   3148     1  0.0000000  0.6508444  3
   3147   3144   3149   3150     1  0.0000000  0.6508444  3
   3147   3144   3149   3151     1  0.0000000  0.6508444  3
   3147   3144   3149   3152     1  0.0000000  0.6508444  3
   3148   3144   3149   3150     1  0.0000000  0.6508444  3
   3148   3144   3149   3151     1  0.0000000  0.6508444  3
   3148   3144   3149   3152     1  0.0000000  0.6508444  3
   3153   3155   3156   3159     1  0.0000000  0.6508444  3
   3153   3155   3156   3160     1  0.0000000  0.6508444  3
   3154   3153   3155   3156     1  0.0000000  0.0000000  2
   3154   3153   3155   3157     1  0.0000000  0.0000000  2
   3154   3153   3155   3158     1  0.0000000  0.0000000  2
   3155   3156   3161   3162     1  0.0000000  0.6508444  3
   3155   3156   3161   3163     1  0.0000000  0.6508444  3
   3155   3156   3161   3164     1  0.0000000  0.6508444  3
   3157   3155   3156   3161     1  0.0000000  0.6508444  3
   3157   3155   3156   3159     1  0.0000000  0.6508444  3
   3157   3155   3156   3160     1  0.0000000  0.6508444  3
   3158   3155   3156   3161     1  0.0000000  0.6508444  3
   3158   3155   3156   3159     1  0.0000000  0.6508444  3
   3158   3155   3156   3160     1  0.0000000  0.6508444  3
   3159   3156   3161   3162     1  0.0000000  0.6508444  3
   3159   3156   3161   3163     1  0.0000000  0.6508444  3
   3159   3156   3161   3164     1  0.0000000  0.6508444  3
   3160   3156   3161   3162     1  0.0000000  0.6508444  3
   3160   3156   3161   3163     1  0.0000000  0.6508444  3
   3160   3156   3161   3164     1  0.0000000  0.6508444  3
   3165   3167   3168   3171     1  0.0000000  0.6508444  3
   3165   3167   3168   3172     1  0.0000000  0.6508444  3
   3166   3165   3167   3168     1  0.0000000  0.0000000  2
   3166   3165   3167   3169     1  0.0000000  0.0000000  2
   3166   3165   3167   3170     1  0.0000000  0.0000000  2
   3167   3168   3173   3174     1  0.0000000  0.6508444  3
   3167   3168   3173   3175     1  0.0000000  0.6508444  3
   3167   3168   3173   3176     1  0.0000000  0.6508444  3
   3169   3167   3168   3173     1  0.0000000  0.6508444  3
   3169   3167   3168   3171     1  0.0000000  0.6508444  3
   3169   3167   3168   3172     1  0.0000000  0.6508444  3
   3170   3167   3168   3173     1  0.0000000  0.6508444  3
   3170   3167   3168   3171     1  0.0000000  0.6508444  3
   3170   3167   3168   3172     1  0.0000000  0.6508444  3
   3171   3168   3173   3174     1  0.0000000  0.6508444  3
   3171   3168   3173   3175     1  0.0000000  0.6508444  3
   3171   3168   3173   3176     1  0.0000000  0.6508444  3
   3172   3168   3173   3174     1  0.0000000  0.6508444  3
   3172   3168   3173   3175     1  0.0000000  0.6508444  3
   3172   3168   3173   3176     1  0.0000000  0.6508444  3
   3177   3179   3180   3183     1  0.0000000  0.6508444  3
   3177   3179   3180   3184     1  0.0000000  0.6508444  3
   3178   3177   3179   3180     1  0.0000000  0.0000000  2
   3178   3177   3179   3181     1  0.0000000  0.0000000  2
   3178   3177   3179   3182     1  0.0000000  0.0000000  2
   3179   3180   3185   3186     1  0.0000000  0.6508444  3
   3179   3180   3185   3187     1  0.0000000  0.6508444  3
   3179   3180   3185   3188     1  0.0000000  0.6508444  3
   3181   3179   3180   3185     1  0.0000000  0.6508444  3
   3181   3179   3180   3183     1  0.0000000  0.6508444  3
   3181   3179   3180   3184     1  0.0000000  0.6508444  3
   3182   3179   3180   3185     1  0.0000000  0.6508444  3
   3182   3179   3180   3183     1  0.0000000  0.6508444  3
   3182   3179   3180   3184     1  0.0000000  0.6508444  3
   3183   3180   3185   3186     1  0.0000000  0.6508444  3
   3183   3180   3185   3187     1  0.0000000  0.6508444  3
   3183   3180   3185   3188     1  0.0000000  0.6508444  3
   3184   3180   3185   3186     1  0.0000000  0.6508444  3
   3184   3180   3185   3187     1  0.0000000  0.6508444  3
   3184   3180   3185   3188     1  0.0000000  0.6508444  3
   3189   3191   3192   3195     1  0.0000000  0.6508444  3
   3189   3191   3192   3196     1  0.0000000  0.6508444  3
   3190   3189   3191   3192     1  0.0000000  0.0000000  2
   3190   3189   3191   3193     1  0.0000000  0.0000000  2
   3190   3189   3191   3194     1  0.0000000  0.0000000  2
   3191   3192   3197   3198     1  0.0000000  0.6508444  3
   3191   3192   3197   3199     1  0.0000000  0.6508444  3
   3191   3192   3197   3200     1  0.0000000  0.6508444  3
   3193   3191   3192   3197     1  0.0000000  0.6508444  3
   3193   3191   3192   3195     1  0.0000000  0.6508444  3
   3193   3191   3192   3196     1  0.0000000  0.6508444  3
   3194   3191   3192   3197     1  0.0000000  0.6508444  3
   3194   3191   3192   3195     1  0.0000000  0.6508444  3
   3194   3191   3192   3196     1  0.0000000  0.6508444  3
   3195   3192   3197   3198     1  0.0000000  0.6508444  3
   3195   3192   3197   3199     1  0.0000000  0.6508444  3
   3195   3192   3197   3200     1  0.0000000  0.6508444  3
   3196   3192   3197   3198     1  0.0000000  0.6508444  3
   3196   3192   3197   3199     1  0.0000000  0.6508444  3
   3196   3192   3197   3200     1  0.0000000  0.6508444  3
   3201   3203   3204   3207     1  0.0000000  0.6508444  3
   3201   3203   3204   3208     1  0.0000000  0.6508444  3
   3202   3201   3203   3204     1  0.0000000  0.0000000  2
   3202   3201   3203   3205     1  0.0000000  0.0000000  2
   3202   3201   3203   3206     1  0.0000000  0.0000000  2
   3203   3204   3209   3210     1  0.0000000  0.6508444  3
   3203   3204   3209   3211     1  0.0000000  0.6508444  3
   3203   3204   3209   3212     1  0.0000000  0.6508444  3
   3205   3203   3204   3209     1  0.0000000  0.6508444  3
   3205   3203   3204   3207     1  0.0000000  0.6508444  3
   3205   3203   3204   3208     1  0.0000000  0.6508444  3
   3206   3203   3204   3209     1  0.0000000  0.6508444  3
   3206   3203   3204   3207     1  0.0000000  0.6508444  3
   3206   3203   3204   3208     1  0.0000000  0.6508444  3
   3207   3204   3209   3210     1  0.0000000  0.6508444  3
   3207   3204   3209   3211     1  0.0000000  0.6508444  3
   3207   3204   3209   3212     1  0.0000000  0.6508444  3
   3208   3204   3209   3210     1  0.0000000  0.6508444  3
   3208   3204   3209   3211     1  0.0000000  0.6508444  3
   3208   3204   3209   3212     1  0.0000000  0.6508444  3
   3213   3215   3216   3219     1  0.0000000  0.6508444  3
   3213   3215   3216   3220     1  0.0000000  0.6508444  3
   3214   3213   3215   3216     1  0.0000000  0.0000000  2
   3214   3213   3215   3217     1  0.0000000  0.0000000  2
   3214   3213   3215   3218     1  0.0000000  0.0000000  2
   3215   3216   3221   3222     1  0.0000000  0.6508444  3
   3215   3216   3221   3223     1  0.0000000  0.6508444  3
   3215   3216   3221   3224     1  0.0000000  0.6508444  3
   3217   3215   3216   3221     1  0.0000000  0.6508444  3
   3217   3215   3216   3219     1  0.0000000  0.6508444  3
   3217   3215   3216   3220     1  0.0000000  0.6508444  3
   3218   3215   3216   3221     1  0.0000000  0.6508444  3
   3218   3215   3216   3219     1  0.0000000  0.6508444  3
   3218   3215   3216   3220     1  0.0000000  0.6508444  3
   3219   3216   3221   3222     1  0.0000000  0.6508444  3
   3219   3216   3221   3223     1  0.0000000  0.6508444  3
   3219   3216   3221   3224     1  0.0000000  0.6508444  3
   3220   3216   3221   3222     1  0.0000000  0.6508444  3
   3220   3216   3221   3223     1  0.0000000  0.6508444  3
   3220   3216   3221   3224     1  0.0000000  0.6508444  3
   3225   3227   3228   3231     1  0.0000000  0.6508444  3
   3225   3227   3228   3232     1  0.0000000  0.6508444  3
   3226   3225   3227   3228     1  0.0000000  0.0000000  2
   3226   3225   3227   3229     1  0.0000000  0.0000000  2
   3226   3225   3227   3230     1  0.0000000  0.0000000  2
   3227   3228   3233   3234     1  0.0000000  0.6508444  3
   3227   3228   3233   3235     1  0.0000000  0.6508444  3
   3227   3228   3233   3236     1  0.0000000  0.6508444  3
   3229   3227   3228   3233     1  0.0000000  0.6508444  3
   3229   3227   3228   3231     1  0.0000000  0.6508444  3
   3229   3227   3228   3232     1  0.0000000  0.6508444  3
   3230   3227   3228   3233     1  0.0000000  0.6508444  3
   3230   3227   3228   3231     1  0.0000000  0.6508444  3
   3230   3227   3228   3232     1  0.0000000  0.6508444  3
   3231   3228   3233   3234     1  0.0000000  0.6508444  3
   3231   3228   3233   3235     1  0.0000000  0.6508444  3
   3231   3228   3233   3236     1  0.0000000  0.6508444  3
   3232   3228   3233   3234     1  0.0000000  0.6508444  3
   3232   3228   3233   3235     1  0.0000000  0.6508444  3
   3232   3228   3233   3236     1  0.0000000  0.6508444  3
   3237   3239   3240   3243     1  0.0000000  0.6508444  3
   3237   3239   3240   3244     1  0.0000000  0.6508444  3
   3238   3237   3239   3240     1  0.0000000  0.0000000  2
   3238   3237   3239   3241     1  0.0000000  0.0000000  2
   3238   3237   3239   3242     1  0.0000000  0.0000000  2
   3239   3240   3245   3246     1  0.0000000  0.6508444  3
   3239   3240   3245   3247     1  0.0000000  0.6508444  3
   3239   3240   3245   3248     1  0.0000000  0.6508444  3
   3241   3239   3240   3245     1  0.0000000  0.6508444  3
   3241   3239   3240   3243     1  0.0000000  0.6508444  3
   3241   3239   3240   3244     1  0.0000000  0.6508444  3
   3242   3239   3240   3245     1  0.0000000  0.6508444  3
   3242   3239   3240   3243     1  0.0000000  0.6508444  3
   3242   3239   3240   3244     1  0.0000000  0.6508444  3
   3243   3240   3245   3246     1  0.0000000  0.6508444  3
   3243   3240   3245   3247     1  0.0000000  0.6508444  3
   3243   3240   3245   3248     1  0.0000000  0.6508444  3
   3244   3240   3245   3246     1  0.0000000  0.6508444  3
   3244   3240   3245   3247     1  0.0000000  0.6508444  3
   3244   3240   3245   3248     1  0.0000000  0.6508444  3
   3249   3251   3252   3255     1  0.0000000  0.6508444  3
   3249   3251   3252   3256     1  0.0000000  0.6508444  3
   3250   3249   3251   3252     1  0.0000000  0.0000000  2
   3250   3249   3251   3253     1  0.0000000  0.0000000  2
   3250   3249   3251   3254     1  0.0000000  0.0000000  2
   3251   3252   3257   3258     1  0.0000000  0.6508444  3
   3251   3252   3257   3259     1  0.0000000  0.6508444  3
   3251   3252   3257   3260     1  0.0000000  0.6508444  3
   3253   3251   3252   3257     1  0.0000000  0.6508444  3
   3253   3251   3252   3255     1  0.0000000  0.6508444  3
   3253   3251   3252   3256     1  0.0000000  0.6508444  3
   3254   3251   3252   3257     1  0.0000000  0.6508444  3
   3254   3251   3252   3255     1  0.0000000  0.6508444  3
   3254   3251   3252   3256     1  0.0000000  0.6508444  3
   3255   3252   3257   3258     1  0.0000000  0.6508444  3
   3255   3252   3257   3259     1  0.0000000  0.6508444  3
   3255   3252   3257   3260     1  0.0000000  0.6508444  3
   3256   3252   3257   3258     1  0.0000000  0.6508444  3
   3256   3252   3257   3259     1  0.0000000  0.6508444  3
   3256   3252   3257   3260     1  0.0000000  0.6508444  3
   3261   3263   3264   3267     1  0.0000000  0.6508444  3
   3261   3263   3264   3268     1  0.0000000  0.6508444  3
   3262   3261   3263   3264     1  0.0000000  0.0000000  2
   3262   3261   3263   3265     1  0.0000000  0.0000000  2
   3262   3261   3263   3266     1  0.0000000  0.0000000  2
   3263   3264   3269   3270     1  0.0000000  0.6508444  3
   3263   3264   3269   3271     1  0.0000000  0.6508444  3
   3263   3264   3269   3272     1  0.0000000  0.6508444  3
   3265   3263   3264   3269     1  0.0000000  0.6508444  3
   3265   3263   3264   3267     1  0.0000000  0.6508444  3
   3265   3263   3264   3268     1  0.0000000  0.6508444  3
   3266   3263   3264   3269     1  0.0000000  0.6508444  3
   3266   3263   3264   3267     1  0.0000000  0.6508444  3
   3266   3263   3264   3268     1  0.0000000  0.6508444  3
   3267   3264   3269   3270     1  0.0000000  0.6508444  3
   3267   3264   3269   3271     1  0.0000000  0.6508444  3
   3267   3264   3269   3272     1  0.0000000  0.6508444  3
   3268   3264   3269   3270     1  0.0000000  0.6508444  3
   3268   3264   3269   3271     1  0.0000000  0.6508444  3
   3268   3264   3269   3272     1  0.0000000  0.6508444  3
   3273   3275   3276   3279     1  0.0000000  0.6508444  3
   3273   3275   3276   3280     1  0.0000000  0.6508444  3
   3274   3273   3275   3276     1  0.0000000  0.0000000  2
   3274   3273   3275   3277     1  0.0000000  0.0000000  2
   3274   3273   3275   3278     1  0.0000000  0.0000000  2
   3275   3276   3281   3282     1  0.0000000  0.6508444  3
   3275   3276   3281   3283     1  0.0000000  0.6508444  3
   3275   3276   3281   3284     1  0.0000000  0.6508444  3
   3277   3275   3276   3281     1  0.0000000  0.6508444  3
   3277   3275   3276   3279     1  0.0000000  0.6508444  3
   3277   3275   3276   3280     1  0.0000000  0.6508444  3
   3278   3275   3276   3281     1  0.0000000  0.6508444  3
   3278   3275   3276   3279     1  0.0000000  0.6508444  3
   3278   3275   3276   3280     1  0.0000000  0.6508444  3
   3279   3276   3281   3282     1  0.0000000  0.6508444  3
   3279   3276   3281   3283     1  0.0000000  0.6508444  3
   3279   3276   3281   3284     1  0.0000000  0.6508444  3
   3280   3276   3281   3282     1  0.0000000  0.6508444  3
   3280   3276   3281   3283     1  0.0000000  0.6508444  3
   3280   3276   3281   3284     1  0.0000000  0.6508444  3
   3285   3287   3288   3291     1  0.0000000  0.6508444  3
   3285   3287   3288   3292     1  0.0000000  0.6508444  3
   3286   3285   3287   3288     1  0.0000000  0.0000000  2
   3286   3285   3287   3289     1  0.0000000  0.0000000  2
   3286   3285   3287   3290     1  0.0000000  0.0000000  2
   3287   3288   3293   3294     1  0.0000000  0.6508444  3
   3287   3288   3293   3295     1  0.0000000  0.6508444  3
   3287   3288   3293   3296     1  0.0000000  0.6508444  3
   3289   3287   3288   3293     1  0.0000000  0.6508444  3
   3289   3287   3288   3291     1  0.0000000  0.6508444  3
   3289   3287   3288   3292     1  0.0000000  0.6508444  3
   3290   3287   3288   3293     1  0.0000000  0.6508444  3
   3290   3287   3288   3291     1  0.0000000  0.6508444  3
   3290   3287   3288   3292     1  0.0000000  0.6508444  3
   3291   3288   3293   3294     1  0.0000000  0.6508444  3
   3291   3288   3293   3295     1  0.0000000  0.6508444  3
   3291   3288   3293   3296     1  0.0000000  0.6508444  3
   3292   3288   3293   3294     1  0.0000000  0.6508444  3
   3292   3288   3293   3295     1  0.0000000  0.6508444  3
   3292   3288   3293   3296     1  0.0000000  0.6508444  3
   3297   3299   3300   3303     1  0.0000000  0.6508444  3
   3297   3299   3300   3304     1  0.0000000  0.6508444  3
   3298   3297   3299   3300     1  0.0000000  0.0000000  2
   3298   3297   3299   3301     1  0.0000000  0.0000000  2
   3298   3297   3299   3302     1  0.0000000  0.0000000  2
   3299   3300   3305   3306     1  0.0000000  0.6508444  3
   3299   3300   3305   3307     1  0.0000000  0.6508444  3
   3299   3300   3305   3308     1  0.0000000  0.6508444  3
   3301   3299   3300   3305     1  0.0000000  0.6508444  3
   3301   3299   3300   3303     1  0.0000000  0.6508444  3
   3301   3299   3300   3304     1  0.0000000  0.6508444  3
   3302   3299   3300   3305     1  0.0000000  0.6508444  3
   3302   3299   3300   3303     1  0.0000000  0.6508444  3
   3302   3299   3300   3304     1  0.0000000  0.6508444  3
   3303   3300   3305   3306     1  0.0000000  0.6508444  3
   3303   3300   3305   3307     1  0.0000000  0.6508444  3
   3303   3300   3305   3308     1  0.0000000  0.6508444  3
   3304   3300   3305   3306     1  0.0000000  0.6508444  3
   3304   3300   3305   3307     1  0.0000000  0.6508444  3
   3304   3300   3305   3308     1  0.0000000  0.6508444  3
   3309   3311   3312   3315     1  0.0000000  0.6508444  3
   3309   3311   3312   3316     1  0.0000000  0.6508444  3
   3310   3309   3311   3312     1  0.0000000  0.0000000  2
   3310   3309   3311   3313     1  0.0000000  0.0000000  2
   3310   3309   3311   3314     1  0.0000000  0.0000000  2
   3311   3312   3317   3318     1  0.0000000  0.6508444  3
   3311   3312   3317   3319     1  0.0000000  0.6508444  3
   3311   3312   3317   3320     1  0.0000000  0.6508444  3
   3313   3311   3312   3317     1  0.0000000  0.6508444  3
   3313   3311   3312   3315     1  0.0000000  0.6508444  3
   3313   3311   3312   3316     1  0.0000000  0.6508444  3
   3314   3311   3312   3317     1  0.0000000  0.6508444  3
   3314   3311   3312   3315     1  0.0000000  0.6508444  3
   3314   3311   3312   3316     1  0.0000000  0.6508444  3
   3315   3312   3317   3318     1  0.0000000  0.6508444  3
   3315   3312   3317   3319     1  0.0000000  0.6508444  3
   3315   3312   3317   3320     1  0.0000000  0.6508444  3
   3316   3312   3317   3318     1  0.0000000  0.6508444  3
   3316   3312   3317   3319     1  0.0000000  0.6508444  3
   3316   3312   3317   3320     1  0.0000000  0.6508444  3
   3321   3323   3324   3327     1  0.0000000  0.6508444  3
   3321   3323   3324   3328     1  0.0000000  0.6508444  3
   3322   3321   3323   3324     1  0.0000000  0.0000000  2
   3322   3321   3323   3325     1  0.0000000  0.0000000  2
   3322   3321   3323   3326     1  0.0000000  0.0000000  2
   3323   3324   3329   3330     1  0.0000000  0.6508444  3
   3323   3324   3329   3331     1  0.0000000  0.6508444  3
   3323   3324   3329   3332     1  0.0000000  0.6508444  3
   3325   3323   3324   3329     1  0.0000000  0.6508444  3
   3325   3323   3324   3327     1  0.0000000  0.6508444  3
   3325   3323   3324   3328     1  0.0000000  0.6508444  3
   3326   3323   3324   3329     1  0.0000000  0.6508444  3
   3326   3323   3324   3327     1  0.0000000  0.6508444  3
   3326   3323   3324   3328     1  0.0000000  0.6508444  3
   3327   3324   3329   3330     1  0.0000000  0.6508444  3
   3327   3324   3329   3331     1  0.0000000  0.6508444  3
   3327   3324   3329   3332     1  0.0000000  0.6508444  3
   3328   3324   3329   3330     1  0.0000000  0.6508444  3
   3328   3324   3329   3331     1  0.0000000  0.6508444  3
   3328   3324   3329   3332     1  0.0000000  0.6508444  3
   3333   3335   3336   3339     1  0.0000000  0.6508444  3
   3333   3335   3336   3340     1  0.0000000  0.6508444  3
   3334   3333   3335   3336     1  0.0000000  0.0000000  2
   3334   3333   3335   3337     1  0.0000000  0.0000000  2
   3334   3333   3335   3338     1  0.0000000  0.0000000  2
   3335   3336   3341   3342     1  0.0000000  0.6508444  3
   3335   3336   3341   3343     1  0.0000000  0.6508444  3
   3335   3336   3341   3344     1  0.0000000  0.6508444  3
   3337   3335   3336   3341     1  0.0000000  0.6508444  3
   3337   3335   3336   3339     1  0.0000000  0.6508444  3
   3337   3335   3336   3340     1  0.0000000  0.6508444  3
   3338   3335   3336   3341     1  0.0000000  0.6508444  3
   3338   3335   3336   3339     1  0.0000000  0.6508444  3
   3338   3335   3336   3340     1  0.0000000  0.6508444  3
   3339   3336   3341   3342     1  0.0000000  0.6508444  3
   3339   3336   3341   3343     1  0.0000000  0.6508444  3
   3339   3336   3341   3344     1  0.0000000  0.6508444  3
   3340   3336   3341   3342     1  0.0000000  0.6508444  3
   3340   3336   3341   3343     1  0.0000000  0.6508444  3
   3340   3336   3341   3344     1  0.0000000  0.6508444  3
   3345   3347   3348   3351     1  0.0000000  0.6508444  3
   3345   3347   3348   3352     1  0.0000000  0.6508444  3
   3346   3345   3347   3348     1  0.0000000  0.0000000  2
   3346   3345   3347   3349     1  0.0000000  0.0000000  2
   3346   3345   3347   3350     1  0.0000000  0.0000000  2
   3347   3348   3353   3354     1  0.0000000  0.6508444  3
   3347   3348   3353   3355     1  0.0000000  0.6508444  3
   3347   3348   3353   3356     1  0.0000000  0.6508444  3
   3349   3347   3348   3353     1  0.0000000  0.6508444  3
   3349   3347   3348   3351     1  0.0000000  0.6508444  3
   3349   3347   3348   3352     1  0.0000000  0.6508444  3
   3350   3347   3348   3353     1  0.0000000  0.6508444  3
   3350   3347   3348   3351     1  0.0000000  0.6508444  3
   3350   3347   3348   3352     1  0.0000000  0.6508444  3
   3351   3348   3353   3354     1  0.0000000  0.6508444  3
   3351   3348   3353   3355     1  0.0000000  0.6508444  3
   3351   3348   3353   3356     1  0.0000000  0.6508444  3
   3352   3348   3353   3354     1  0.0000000  0.6508444  3
   3352   3348   3353   3355     1  0.0000000  0.6508444  3
   3352   3348   3353   3356     1  0.0000000  0.6508444  3
   3357   3359   3360   3363     1  0.0000000  0.6508444  3
   3357   3359   3360   3364     1  0.0000000  0.6508444  3
   3358   3357   3359   3360     1  0.0000000  0.0000000  2
   3358   3357   3359   3361     1  0.0000000  0.0000000  2
   3358   3357   3359   3362     1  0.0000000  0.0000000  2
   3359   3360   3365   3366     1  0.0000000  0.6508444  3
   3359   3360   3365   3367     1  0.0000000  0.6508444  3
   3359   3360   3365   3368     1  0.0000000  0.6508444  3
   3361   3359   3360   3365     1  0.0000000  0.6508444  3
   3361   3359   3360   3363     1  0.0000000  0.6508444  3
   3361   3359   3360   3364     1  0.0000000  0.6508444  3
   3362   3359   3360   3365     1  0.0000000  0.6508444  3
   3362   3359   3360   3363     1  0.0000000  0.6508444  3
   3362   3359   3360   3364     1  0.0000000  0.6508444  3
   3363   3360   3365   3366     1  0.0000000  0.6508444  3
   3363   3360   3365   3367     1  0.0000000  0.6508444  3
   3363   3360   3365   3368     1  0.0000000  0.6508444  3
   3364   3360   3365   3366     1  0.0000000  0.6508444  3
   3364   3360   3365   3367     1  0.0000000  0.6508444  3
   3364   3360   3365   3368     1  0.0000000  0.6508444  3
   3369   3371   3372   3375     1  0.0000000  0.6508444  3
   3369   3371   3372   3376     1  0.0000000  0.6508444  3
   3370   3369   3371   3372     1  0.0000000  0.0000000  2
   3370   3369   3371   3373     1  0.0000000  0.0000000  2
   3370   3369   3371   3374     1  0.0000000  0.0000000  2
   3371   3372   3377   3378     1  0.0000000  0.6508444  3
   3371   3372   3377   3379     1  0.0000000  0.6508444  3
   3371   3372   3377   3380     1  0.0000000  0.6508444  3
   3373   3371   3372   3377     1  0.0000000  0.6508444  3
   3373   3371   3372   3375     1  0.0000000  0.6508444  3
   3373   3371   3372   3376     1  0.0000000  0.6508444  3
   3374   3371   3372   3377     1  0.0000000  0.6508444  3
   3374   3371   3372   3375     1  0.0000000  0.6508444  3
   3374   3371   3372   3376     1  0.0000000  0.6508444  3
   3375   3372   3377   3378     1  0.0000000  0.6508444  3
   3375   3372   3377   3379     1  0.0000000  0.6508444  3
   3375   3372   3377   3380     1  0.0000000  0.6508444  3
   3376   3372   3377   3378     1  0.0000000  0.6508444  3
   3376   3372   3377   3379     1  0.0000000  0.6508444  3
   3376   3372   3377   3380     1  0.0000000  0.6508444  3
   3381   3383   3384   3387     1  0.0000000  0.6508444  3
   3381   3383   3384   3388     1  0.0000000  0.6508444  3
   3382   3381   3383   3384     1  0.0000000  0.0000000  2
   3382   3381   3383   3385     1  0.0000000  0.0000000  2
   3382   3381   3383   3386     1  0.0000000  0.0000000  2
   3383   3384   3389   3390     1  0.0000000  0.6508444  3
   3383   3384   3389   3391     1  0.0000000  0.6508444  3
   3383   3384   3389   3392     1  0.0000000  0.6508444  3
   3385   3383   3384   3389     1  0.0000000  0.6508444  3
   3385   3383   3384   3387     1  0.0000000  0.6508444  3
   3385   3383   3384   3388     1  0.0000000  0.6508444  3
   3386   3383   3384   3389     1  0.0000000  0.6508444  3
   3386   3383   3384   3387     1  0.0000000  0.6508444  3
   3386   3383   3384   3388     1  0.0000000  0.6508444  3
   3387   3384   3389   3390     1  0.0000000  0.6508444  3
   3387   3384   3389   3391     1  0.0000000  0.6508444  3
   3387   3384   3389   3392     1  0.0000000  0.6508444  3
   3388   3384   3389   3390     1  0.0000000  0.6508444  3
   3388   3384   3389   3391     1  0.0000000  0.6508444  3
   3388   3384   3389   3392     1  0.0000000  0.6508444  3
   3393   3395   3396   3399     1  0.0000000  0.6508444  3
   3393   3395   3396   3400     1  0.0000000  0.6508444  3
   3394   3393   3395   3396     1  0.0000000  0.0000000  2
   3394   3393   3395   3397     1  0.0000000  0.0000000  2
   3394   3393   3395   3398     1  0.0000000  0.0000000  2
   3395   3396   3401   3402     1  0.0000000  0.6508444  3
   3395   3396   3401   3403     1  0.0000000  0.6508444  3
   3395   3396   3401   3404     1  0.0000000  0.6508444  3
   3397   3395   3396   3401     1  0.0000000  0.6508444  3
   3397   3395   3396   3399     1  0.0000000  0.6508444  3
   3397   3395   3396   3400     1  0.0000000  0.6508444  3
   3398   3395   3396   3401     1  0.0000000  0.6508444  3
   3398   3395   3396   3399     1  0.0000000  0.6508444  3
   3398   3395   3396   3400     1  0.0000000  0.6508444  3
   3399   3396   3401   3402     1  0.0000000  0.6508444  3
   3399   3396   3401   3403     1  0.0000000  0.6508444  3
   3399   3396   3401   3404     1  0.0000000  0.6508444  3
   3400   3396   3401   3402     1  0.0000000  0.6508444  3
   3400   3396   3401   3403     1  0.0000000  0.6508444  3
   3400   3396   3401   3404     1  0.0000000  0.6508444  3
   3405   3407   3408   3411     1  0.0000000  0.6508444  3
   3405   3407   3408   3412     1  0.0000000  0.6508444  3
   3406   3405   3407   3408     1  0.0000000  0.0000000  2
   3406   3405   3407   3409     1  0.0000000  0.0000000  2
   3406   3405   3407   3410     1  0.0000000  0.0000000  2
   3407   3408   3413   3414     1  0.0000000  0.6508444  3
   3407   3408   3413   3415     1  0.0000000  0.6508444  3
   3407   3408   3413   3416     1  0.0000000  0.6508444  3
   3409   3407   3408   3413     1  0.0000000  0.6508444  3
   3409   3407   3408   3411     1  0.0000000  0.6508444  3
   3409   3407   3408   3412     1  0.0000000  0.6508444  3
   3410   3407   3408   3413     1  0.0000000  0.6508444  3
   3410   3407   3408   3411     1  0.0000000  0.6508444  3
   3410   3407   3408   3412     1  0.0000000  0.6508444  3
   3411   3408   3413   3414     1  0.0000000  0.6508444  3
   3411   3408   3413   3415     1  0.0000000  0.6508444  3
   3411   3408   3413   3416     1  0.0000000  0.6508444  3
   3412   3408   3413   3414     1  0.0000000  0.6508444  3
   3412   3408   3413   3415     1  0.0000000  0.6508444  3
   3412   3408   3413   3416     1  0.0000000  0.6508444  3
   3417   3419   3420   3423     1  0.0000000  0.6508444  3
   3417   3419   3420   3424     1  0.0000000  0.6508444  3
   3418   3417   3419   3420     1  0.0000000  0.0000000  2
   3418   3417   3419   3421     1  0.0000000  0.0000000  2
   3418   3417   3419   3422     1  0.0000000  0.0000000  2
   3419   3420   3425   3426     1  0.0000000  0.6508444  3
   3419   3420   3425   3427     1  0.0000000  0.6508444  3
   3419   3420   3425   3428     1  0.0000000  0.6508444  3
   3421   3419   3420   3425     1  0.0000000  0.6508444  3
   3421   3419   3420   3423     1  0.0000000  0.6508444  3
   3421   3419   3420   3424     1  0.0000000  0.6508444  3
   3422   3419   3420   3425     1  0.0000000  0.6508444  3
   3422   3419   3420   3423     1  0.0000000  0.6508444  3
   3422   3419   3420   3424     1  0.0000000  0.6508444  3
   3423   3420   3425   3426     1  0.0000000  0.6508444  3
   3423   3420   3425   3427     1  0.0000000  0.6508444  3
   3423   3420   3425   3428     1  0.0000000  0.6508444  3
   3424   3420   3425   3426     1  0.0000000  0.6508444  3
   3424   3420   3425   3427     1  0.0000000  0.6508444  3
   3424   3420   3425   3428     1  0.0000000  0.6508444  3
   3429   3431   3432   3435     1  0.0000000  0.6508444  3
   3429   3431   3432   3436     1  0.0000000  0.6508444  3
   3430   3429   3431   3432     1  0.0000000  0.0000000  2
   3430   3429   3431   3433     1  0.0000000  0.0000000  2
   3430   3429   3431   3434     1  0.0000000  0.0000000  2
   3431   3432   3437   3438     1  0.0000000  0.6508444  3
   3431   3432   3437   3439     1  0.0000000  0.6508444  3
   3431   3432   3437   3440     1  0.0000000  0.6508444  3
   3433   3431   3432   3437     1  0.0000000  0.6508444  3
   3433   3431   3432   3435     1  0.0000000  0.6508444  3
   3433   3431   3432   3436     1  0.0000000  0.6508444  3
   3434   3431   3432   3437     1  0.0000000  0.6508444  3
   3434   3431   3432   3435     1  0.0000000  0.6508444  3
   3434   3431   3432   3436     1  0.0000000  0.6508444  3
   3435   3432   3437   3438     1  0.0000000  0.6508444  3
   3435   3432   3437   3439     1  0.0000000  0.6508444  3
   3435   3432   3437   3440     1  0.0000000  0.6508444  3
   3436   3432   3437   3438     1  0.0000000  0.6508444  3
   3436   3432   3437   3439     1  0.0000000  0.6508444  3
   3436   3432   3437   3440     1  0.0000000  0.6508444  3
   3441   3443   3444   3447     1  0.0000000  0.6508444  3
   3441   3443   3444   3448     1  0.0000000  0.6508444  3
   3442   3441   3443   3444     1  0.0000000  0.0000000  2
   3442   3441   3443   3445     1  0.0000000  0.0000000  2
   3442   3441   3443   3446     1  0.0000000  0.0000000  2
   3443   3444   3449   3450     1  0.0000000  0.6508444  3
   3443   3444   3449   3451     1  0.0000000  0.6508444  3
   3443   3444   3449   3452     1  0.0000000  0.6508444  3
   3445   3443   3444   3449     1  0.0000000  0.6508444  3
   3445   3443   3444   3447     1  0.0000000  0.6508444  3
   3445   3443   3444   3448     1  0.0000000  0.6508444  3
   3446   3443   3444   3449     1  0.0000000  0.6508444  3
   3446   3443   3444   3447     1  0.0000000  0.6508444  3
   3446   3443   3444   3448     1  0.0000000  0.6508444  3
   3447   3444   3449   3450     1  0.0000000  0.6508444  3
   3447   3444   3449   3451     1  0.0000000  0.6508444  3
   3447   3444   3449   3452     1  0.0000000  0.6508444  3
   3448   3444   3449   3450     1  0.0000000  0.6508444  3
   3448   3444   3449   3451     1  0.0000000  0.6508444  3
   3448   3444   3449   3452     1  0.0000000  0.6508444  3
   3453   3455   3456   3459     1  0.0000000  0.6508444  3
   3453   3455   3456   3460     1  0.0000000  0.6508444  3
   3454   3453   3455   3456     1  0.0000000  0.0000000  2
   3454   3453   3455   3457     1  0.0000000  0.0000000  2
   3454   3453   3455   3458     1  0.0000000  0.0000000  2
   3455   3456   3461   3462     1  0.0000000  0.6508444  3
   3455   3456   3461   3463     1  0.0000000  0.6508444  3
   3455   3456   3461   3464     1  0.0000000  0.6508444  3
   3457   3455   3456   3461     1  0.0000000  0.6508444  3
   3457   3455   3456   3459     1  0.0000000  0.6508444  3
   3457   3455   3456   3460     1  0.0000000  0.6508444  3
   3458   3455   3456   3461     1  0.0000000  0.6508444  3
   3458   3455   3456   3459     1  0.0000000  0.6508444  3
   3458   3455   3456   3460     1  0.0000000  0.6508444  3
   3459   3456   3461   3462     1  0.0000000  0.6508444  3
   3459   3456   3461   3463     1  0.0000000  0.6508444  3
   3459   3456   3461   3464     1  0.0000000  0.6508444  3
   3460   3456   3461   3462     1  0.0000000  0.6508444  3
   3460   3456   3461   3463     1  0.0000000  0.6508444  3
   3460   3456   3461   3464     1  0.0000000  0.6508444  3
   3465   3467   3468   3471     1  0.0000000  0.6508444  3
   3465   3467   3468   3472     1  0.0000000  0.6508444  3
   3466   3465   3467   3468     1  0.0000000  0.0000000  2
   3466   3465   3467   3469     1  0.0000000  0.0000000  2
   3466   3465   3467   3470     1  0.0000000  0.0000000  2
   3467   3468   3473   3474     1  0.0000000  0.6508444  3
   3467   3468   3473   3475     1  0.0000000  0.6508444  3
   3467   3468   3473   3476     1  0.0000000  0.6508444  3
   3469   3467   3468   3473     1  0.0000000  0.6508444  3
   3469   3467   3468   3471     1  0.0000000  0.6508444  3
   3469   3467   3468   3472     1  0.0000000  0.6508444  3
   3470   3467   3468   3473     1  0.0000000  0.6508444  3
   3470   3467   3468   3471     1  0.0000000  0.6508444  3
   3470   3467   3468   3472     1  0.0000000  0.6508444  3
   3471   3468   3473   3474     1  0.0000000  0.6508444  3
   3471   3468   3473   3475     1  0.0000000  0.6508444  3
   3471   3468   3473   3476     1  0.0000000  0.6508444  3
   3472   3468   3473   3474     1  0.0000000  0.6508444  3
   3472   3468   3473   3475     1  0.0000000  0.6508444  3
   3472   3468   3473   3476     1  0.0000000  0.6508444  3
   3477   3479   3480   3483     1  0.0000000  0.6508444  3
   3477   3479   3480   3484     1  0.0000000  0.6508444  3
   3478   3477   3479   3480     1  0.0000000  0.0000000  2
   3478   3477   3479   3481     1  0.0000000  0.0000000  2
   3478   3477   3479   3482     1  0.0000000  0.0000000  2
   3479   3480   3485   3486     1  0.0000000  0.6508444  3
   3479   3480   3485   3487     1  0.0000000  0.6508444  3
   3479   3480   3485   3488     1  0.0000000  0.6508444  3
   3481   3479   3480   3485     1  0.0000000  0.6508444  3
   3481   3479   3480   3483     1  0.0000000  0.6508444  3
   3481   3479   3480   3484     1  0.0000000  0.6508444  3
   3482   3479   3480   3485     1  0.0000000  0.6508444  3
   3482   3479   3480   3483     1  0.0000000  0.6508444  3
   3482   3479   3480   3484     1  0.0000000  0.6508444  3
   3483   3480   3485   3486     1  0.0000000  0.6508444  3
   3483   3480   3485   3487     1  0.0000000  0.6508444  3
   3483   3480   3485   3488     1  0.0000000  0.6508444  3
   3484   3480   3485   3486     1  0.0000000  0.6508444  3
   3484   3480   3485   3487     1  0.0000000  0.6508444  3
   3484   3480   3485   3488     1  0.0000000  0.6508444  3
   3489   3491   3492   3495     1  0.0000000  0.6508444  3
   3489   3491   3492   3496     1  0.0000000  0.6508444  3
   3490   3489   3491   3492     1  0.0000000  0.0000000  2
   3490   3489   3491   3493     1  0.0000000  0.0000000  2
   3490   3489   3491   3494     1  0.0000000  0.0000000  2
   3491   3492   3497   3498     1  0.0000000  0.6508444  3
   3491   3492   3497   3499     1  0.0000000  0.6508444  3
   3491   3492   3497   3500     1  0.0000000  0.6508444  3
   3493   3491   3492   3497     1  0.0000000  0.6508444  3
   3493   3491   3492   3495     1  0.0000000  0.6508444  3
   3493   3491   3492   3496     1  0.0000000  0.6508444  3
   3494   3491   3492   3497     1  0.0000000  0.6508444  3
   3494   3491   3492   3495     1  0.0000000  0.6508444  3
   3494   3491   3492   3496     1  0.0000000  0.6508444  3
   3495   3492   3497   3498     1  0.0000000  0.6508444  3
   3495   3492   3497   3499     1  0.0000000  0.6508444  3
   3495   3492   3497   3500     1  0.0000000  0.6508444  3
   3496   3492   3497   3498     1  0.0000000  0.6508444  3
   3496   3492   3497   3499     1  0.0000000  0.6508444  3
   3496   3492   3497   3500     1  0.0000000  0.6508444  3
   3501   3503   3504   3507     1  0.0000000  0.6508444  3
   3501   3503   3504   3508     1  0.0000000  0.6508444  3
   3502   3501   3503   3504     1  0.0000000  0.0000000  2
   3502   3501   3503   3505     1  0.0000000  0.0000000  2
   3502   3501   3503   3506     1  0.0000000  0.0000000  2
   3503   3504   3509   3510     1  0.0000000  0.6508444  3
   3503   3504   3509   3511     1  0.0000000  0.6508444  3
   3503   3504   3509   3512     1  0.0000000  0.6508444  3
   3505   3503   3504   3509     1  0.0000000  0.6508444  3
   3505   3503   3504   3507     1  0.0000000  0.6508444  3
   3505   3503   3504   3508     1  0.0000000  0.6508444  3
   3506   3503   3504   3509     1  0.0000000  0.6508444  3
   3506   3503   3504   3507     1  0.0000000  0.6508444  3
   3506   3503   3504   3508     1  0.0000000  0.6508444  3
   3507   3504   3509   3510     1  0.0000000  0.6508444  3
   3507   3504   3509   3511     1  0.0000000  0.6508444  3
   3507   3504   3509   3512     1  0.0000000  0.6508444  3
   3508   3504   3509   3510     1  0.0000000  0.6508444  3
   3508   3504   3509   3511     1  0.0000000  0.6508444  3
   3508   3504   3509   3512     1  0.0000000  0.6508444  3
   3513   3515   3516   3519     1  0.0000000  0.6508444  3
   3513   3515   3516   3520     1  0.0000000  0.6508444  3
   3514   3513   3515   3516     1  0.0000000  0.0000000  2
   3514   3513   3515   3517     1  0.0000000  0.0000000  2
   3514   3513   3515   3518     1  0.0000000  0.0000000  2
   3515   3516   3521   3522     1  0.0000000  0.6508444  3
   3515   3516   3521   3523     1  0.0000000  0.6508444  3
   3515   3516   3521   3524     1  0.0000000  0.6508444  3
   3517   3515   3516   3521     1  0.0000000  0.6508444  3
   3517   3515   3516   3519     1  0.0000000  0.6508444  3
   3517   3515   3516   3520     1  0.0000000  0.6508444  3
   3518   3515   3516   3521     1  0.0000000  0.6508444  3
   3518   3515   3516   3519     1  0.0000000  0.6508444  3
   3518   3515   3516   3520     1  0.0000000  0.6508444  3
   3519   3516   3521   3522     1  0.0000000  0.6508444  3
   3519   3516   3521   3523     1  0.0000000  0.6508444  3
   3519   3516   3521   3524     1  0.0000000  0.6508444  3
   3520   3516   3521   3522     1  0.0000000  0.6508444  3
   3520   3516   3521   3523     1  0.0000000  0.6508444  3
   3520   3516   3521   3524     1  0.0000000  0.6508444  3
   3525   3527   3528   3531     1  0.0000000  0.6508444  3
   3525   3527   3528   3532     1  0.0000000  0.6508444  3
   3526   3525   3527   3528     1  0.0000000  0.0000000  2
   3526   3525   3527   3529     1  0.0000000  0.0000000  2
   3526   3525   3527   3530     1  0.0000000  0.0000000  2
   3527   3528   3533   3534     1  0.0000000  0.6508444  3
   3527   3528   3533   3535     1  0.0000000  0.6508444  3
   3527   3528   3533   3536     1  0.0000000  0.6508444  3
   3529   3527   3528   3533     1  0.0000000  0.6508444  3
   3529   3527   3528   3531     1  0.0000000  0.6508444  3
   3529   3527   3528   3532     1  0.0000000  0.6508444  3
   3530   3527   3528   3533     1  0.0000000  0.6508444  3
   3530   3527   3528   3531     1  0.0000000  0.6508444  3
   3530   3527   3528   3532     1  0.0000000  0.6508444  3
   3531   3528   3533   3534     1  0.0000000  0.6508444  3
   3531   3528   3533   3535     1  0.0000000  0.6508444  3
   3531   3528   3533   3536     1  0.0000000  0.6508444  3
   3532   3528   3533   3534     1  0.0000000  0.6508444  3
   3532   3528   3533   3535     1  0.0000000  0.6508444  3
   3532   3528   3533   3536     1  0.0000000  0.6508444  3
   3537   3539   3540   3543     1  0.0000000  0.6508444  3
   3537   3539   3540   3544     1  0.0000000  0.6508444  3
   3538   3537   3539   3540     1  0.0000000  0.0000000  2
   3538   3537   3539   3541     1  0.0000000  0.0000000  2
   3538   3537   3539   3542     1  0.0000000  0.0000000  2
   3539   3540   3545   3546     1  0.0000000  0.6508444  3
   3539   3540   3545   3547     1  0.0000000  0.6508444  3
   3539   3540   3545   3548     1  0.0000000  0.6508444  3
   3541   3539   3540   3545     1  0.0000000  0.6508444  3
   3541   3539   3540   3543     1  0.0000000  0.6508444  3
   3541   3539   3540   3544     1  0.0000000  0.6508444  3
   3542   3539   3540   3545     1  0.0000000  0.6508444  3
   3542   3539   3540   3543     1  0.0000000  0.6508444  3
   3542   3539   3540   3544     1  0.0000000  0.6508444  3
   3543   3540   3545   3546     1  0.0000000  0.6508444  3
   3543   3540   3545   3547     1  0.0000000  0.6508444  3
   3543   3540   3545   3548     1  0.0000000  0.6508444  3
   3544   3540   3545   3546     1  0.0000000  0.6508444  3
   3544   3540   3545   3547     1  0.0000000  0.6508444  3
   3544   3540   3545   3548     1  0.0000000  0.6508444  3
   3549   3551   3552   3555     1  0.0000000  0.6508444  3
   3549   3551   3552   3556     1  0.0000000  0.6508444  3
   3550   3549   3551   3552     1  0.0000000  0.0000000  2
   3550   3549   3551   3553     1  0.0000000  0.0000000  2
   3550   3549   3551   3554     1  0.0000000  0.0000000  2
   3551   3552   3557   3558     1  0.0000000  0.6508444  3
   3551   3552   3557   3559     1  0.0000000  0.6508444  3
   3551   3552   3557   3560     1  0.0000000  0.6508444  3
   3553   3551   3552   3557     1  0.0000000  0.6508444  3
   3553   3551   3552   3555     1  0.0000000  0.6508444  3
   3553   3551   3552   3556     1  0.0000000  0.6508444  3
   3554   3551   3552   3557     1  0.0000000  0.6508444  3
   3554   3551   3552   3555     1  0.0000000  0.6508444  3
   3554   3551   3552   3556     1  0.0000000  0.6508444  3
   3555   3552   3557   3558     1  0.0000000  0.6508444  3
   3555   3552   3557   3559     1  0.0000000  0.6508444  3
   3555   3552   3557   3560     1  0.0000000  0.6508444  3
   3556   3552   3557   3558     1  0.0000000  0.6508444  3
   3556   3552   3557   3559     1  0.0000000  0.6508444  3
   3556   3552   3557   3560     1  0.0000000  0.6508444  3
   3561   3563   3564   3567     1  0.0000000  0.6508444  3
   3561   3563   3564   3568     1  0.0000000  0.6508444  3
   3562   3561   3563   3564     1  0.0000000  0.0000000  2
   3562   3561   3563   3565     1  0.0000000  0.0000000  2
   3562   3561   3563   3566     1  0.0000000  0.0000000  2
   3563   3564   3569   3570     1  0.0000000  0.6508444  3
   3563   3564   3569   3571     1  0.0000000  0.6508444  3
   3563   3564   3569   3572     1  0.0000000  0.6508444  3
   3565   3563   3564   3569     1  0.0000000  0.6508444  3
   3565   3563   3564   3567     1  0.0000000  0.6508444  3
   3565   3563   3564   3568     1  0.0000000  0.6508444  3
   3566   3563   3564   3569     1  0.0000000  0.6508444  3
   3566   3563   3564   3567     1  0.0000000  0.6508444  3
   3566   3563   3564   3568     1  0.0000000  0.6508444  3
   3567   3564   3569   3570     1  0.0000000  0.6508444  3
   3567   3564   3569   3571     1  0.0000000  0.6508444  3
   3567   3564   3569   3572     1  0.0000000  0.6508444  3
   3568   3564   3569   3570     1  0.0000000  0.6508444  3
   3568   3564   3569   3571     1  0.0000000  0.6508444  3
   3568   3564   3569   3572     1  0.0000000  0.6508444  3
   3573   3575   3576   3579     1  0.0000000  0.6508444  3
   3573   3575   3576   3580     1  0.0000000  0.6508444  3
   3574   3573   3575   3576     1  0.0000000  0.0000000  2
   3574   3573   3575   3577     1  0.0000000  0.0000000  2
   3574   3573   3575   3578     1  0.0000000  0.0000000  2
   3575   3576   3581   3582     1  0.0000000  0.6508444  3
   3575   3576   3581   3583     1  0.0000000  0.6508444  3
   3575   3576   3581   3584     1  0.0000000  0.6508444  3
   3577   3575   3576   3581     1  0.0000000  0.6508444  3
   3577   3575   3576   3579     1  0.0000000  0.6508444  3
   3577   3575   3576   3580     1  0.0000000  0.6508444  3
   3578   3575   3576   3581     1  0.0000000  0.6508444  3
   3578   3575   3576   3579     1  0.0000000  0.6508444  3
   3578   3575   3576   3580     1  0.0000000  0.6508444  3
   3579   3576   3581   3582     1  0.0000000  0.6508444  3
   3579   3576   3581   3583     1  0.0000000  0.6508444  3
   3579   3576   3581   3584     1  0.0000000  0.6508444  3
   3580   3576   3581   3582     1  0.0000000  0.6508444  3
   3580   3576   3581   3583     1  0.0000000  0.6508444  3
   3580   3576   3581   3584     1  0.0000000  0.6508444  3
   3585   3587   3588   3591     1  0.0000000  0.6508444  3
   3585   3587   3588   3592     1  0.0000000  0.6508444  3
   3586   3585   3587   3588     1  0.0000000  0.0000000  2
   3586   3585   3587   3589     1  0.0000000  0.0000000  2
   3586   3585   3587   3590     1  0.0000000  0.0000000  2
   3587   3588   3593   3594     1  0.0000000  0.6508444  3
   3587   3588   3593   3595     1  0.0000000  0.6508444  3
   3587   3588   3593   3596     1  0.0000000  0.6508444  3
   3589   3587   3588   3593     1  0.0000000  0.6508444  3
   3589   3587   3588   3591     1  0.0000000  0.6508444  3
   3589   3587   3588   3592     1  0.0000000  0.6508444  3
   3590   3587   3588   3593     1  0.0000000  0.6508444  3
   3590   3587   3588   3591     1  0.0000000  0.6508444  3
   3590   3587   3588   3592     1  0.0000000  0.6508444  3
   3591   3588   3593   3594     1  0.0000000  0.6508444  3
   3591   3588   3593   3595     1  0.0000000  0.6508444  3
   3591   3588   3593   3596     1  0.0000000  0.6508444  3
   3592   3588   3593   3594     1  0.0000000  0.6508444  3
   3592   3588   3593   3595     1  0.0000000  0.6508444  3
   3592   3588   3593   3596     1  0.0000000  0.6508444  3
   3597   3599   3600   3603     1  0.0000000  0.6508444  3
   3597   3599   3600   3604     1  0.0000000  0.6508444  3
   3598   3597   3599   3600     1  0.0000000  0.0000000  2
   3598   3597   3599   3601     1  0.0000000  0.0000000  2
   3598   3597   3599   3602     1  0.0000000  0.0000000  2
   3599   3600   3605   3606     1  0.0000000  0.6508444  3
   3599   3600   3605   3607     1  0.0000000  0.6508444  3
   3599   3600   3605   3608     1  0.0000000  0.6508444  3
   3601   3599   3600   3605     1  0.0000000  0.6508444  3
   3601   3599   3600   3603     1  0.0000000  0.6508444  3
   3601   3599   3600   3604     1  0.0000000  0.6508444  3
   3602   3599   3600   3605     1  0.0000000  0.6508444  3
   3602   3599   3600   3603     1  0.0000000  0.6508444  3
   3602   3599   3600   3604     1  0.0000000  0.6508444  3
   3603   3600   3605   3606     1  0.0000000  0.6508444  3
   3603   3600   3605   3607     1  0.0000000  0.6508444  3
   3603   3600   3605   3608     1  0.0000000  0.6508444  3
   3604   3600   3605   3606     1  0.0000000  0.6508444  3
   3604   3600   3605   3607     1  0.0000000  0.6508444  3
   3604   3600   3605   3608     1  0.0000000  0.6508444  3
   3609   3611   3612   3615     1  0.0000000  0.6508444  3
   3609   3611   3612   3616     1  0.0000000  0.6508444  3
   3610   3609   3611   3612     1  0.0000000  0.0000000  2
   3610   3609   3611   3613     1  0.0000000  0.0000000  2
   3610   3609   3611   3614     1  0.0000000  0.0000000  2
   3611   3612   3617   3618     1  0.0000000  0.6508444  3
   3611   3612   3617   3619     1  0.0000000  0.6508444  3
   3611   3612   3617   3620     1  0.0000000  0.6508444  3
   3613   3611   3612   3617     1  0.0000000  0.6508444  3
   3613   3611   3612   3615     1  0.0000000  0.6508444  3
   3613   3611   3612   3616     1  0.0000000  0.6508444  3
   3614   3611   3612   3617     1  0.0000000  0.6508444  3
   3614   3611   3612   3615     1  0.0000000  0.6508444  3
   3614   3611   3612   3616     1  0.0000000  0.6508444  3
   3615   3612   3617   3618     1  0.0000000  0.6508444  3
   3615   3612   3617   3619     1  0.0000000  0.6508444  3
   3615   3612   3617   3620     1  0.0000000  0.6508444  3
   3616   3612   3617   3618     1  0.0000000  0.6508444  3
   3616   3612   3617   3619     1  0.0000000  0.6508444  3
   3616   3612   3617   3620     1  0.0000000  0.6508444  3
   3621   3623   3624   3627     1  0.0000000  0.6508444  3
   3621   3623   3624   3628     1  0.0000000  0.6508444  3
   3622   3621   3623   3624     1  0.0000000  0.0000000  2
   3622   3621   3623   3625     1  0.0000000  0.0000000  2
   3622   3621   3623   3626     1  0.0000000  0.0000000  2
   3623   3624   3629   3630     1  0.0000000  0.6508444  3
   3623   3624   3629   3631     1  0.0000000  0.6508444  3
   3623   3624   3629   3632     1  0.0000000  0.6508444  3
   3625   3623   3624   3629     1  0.0000000  0.6508444  3
   3625   3623   3624   3627     1  0.0000000  0.6508444  3
   3625   3623   3624   3628     1  0.0000000  0.6508444  3
   3626   3623   3624   3629     1  0.0000000  0.6508444  3
   3626   3623   3624   3627     1  0.0000000  0.6508444  3
   3626   3623   3624   3628     1  0.0000000  0.6508444  3
   3627   3624   3629   3630     1  0.0000000  0.6508444  3
   3627   3624   3629   3631     1  0.0000000  0.6508444  3
   3627   3624   3629   3632     1  0.0000000  0.6508444  3
   3628   3624   3629   3630     1  0.0000000  0.6508444  3
   3628   3624   3629   3631     1  0.0000000  0.6508444  3
   3628   3624   3629   3632     1  0.0000000  0.6508444  3
   3633   3635   3636   3639     1  0.0000000  0.6508444  3
   3633   3635   3636   3640     1  0.0000000  0.6508444  3
   3634   3633   3635   3636     1  0.0000000  0.0000000  2
   3634   3633   3635   3637     1  0.0000000  0.0000000  2
   3634   3633   3635   3638     1  0.0000000  0.0000000  2
   3635   3636   3641   3642     1  0.0000000  0.6508444  3
   3635   3636   3641   3643     1  0.0000000  0.6508444  3
   3635   3636   3641   3644     1  0.0000000  0.6508444  3
   3637   3635   3636   3641     1  0.0000000  0.6508444  3
   3637   3635   3636   3639     1  0.0000000  0.6508444  3
   3637   3635   3636   3640     1  0.0000000  0.6508444  3
   3638   3635   3636   3641     1  0.0000000  0.6508444  3
   3638   3635   3636   3639     1  0.0000000  0.6508444  3
   3638   3635   3636   3640     1  0.0000000  0.6508444  3
   3639   3636   3641   3642     1  0.0000000  0.6508444  3
   3639   3636   3641   3643     1  0.0000000  0.6508444  3
   3639   3636   3641   3644     1  0.0000000  0.6508444  3
   3640   3636   3641   3642     1  0.0000000  0.6508444  3
   3640   3636   3641   3643     1  0.0000000  0.6508444  3
   3640   3636   3641   3644     1  0.0000000  0.6508444  3
   3645   3647   3648   3651     1  0.0000000  0.6508444  3
   3645   3647   3648   3652     1  0.0000000  0.6508444  3
   3646   3645   3647   3648     1  0.0000000  0.0000000  2
   3646   3645   3647   3649     1  0.0000000  0.0000000  2
   3646   3645   3647   3650     1  0.0000000  0.0000000  2
   3647   3648   3653   3654     1  0.0000000  0.6508444  3
   3647   3648   3653   3655     1  0.0000000  0.6508444  3
   3647   3648   3653   3656     1  0.0000000  0.6508444  3
   3649   3647   3648   3653     1  0.0000000  0.6508444  3
   3649   3647   3648   3651     1  0.0000000  0.6508444  3
   3649   3647   3648   3652     1  0.0000000  0.6508444  3
   3650   3647   3648   3653     1  0.0000000  0.6508444  3
   3650   3647   3648   3651     1  0.0000000  0.6508444  3
   3650   3647   3648   3652     1  0.0000000  0.6508444  3
   3651   3648   3653   3654     1  0.0000000  0.6508444  3
   3651   3648   3653   3655     1  0.0000000  0.6508444  3
   3651   3648   3653   3656     1  0.0000000  0.6508444  3
   3652   3648   3653   3654     1  0.0000000  0.6508444  3
   3652   3648   3653   3655     1  0.0000000  0.6508444  3
   3652   3648   3653   3656     1  0.0000000  0.6508444  3
   3657   3659   3660   3663     1  0.0000000  0.6508444  3
   3657   3659   3660   3664     1  0.0000000  0.6508444  3
   3658   3657   3659   3660     1  0.0000000  0.0000000  2
   3658   3657   3659   3661     1  0.0000000  0.0000000  2
   3658   3657   3659   3662     1  0.0000000  0.0000000  2
   3659   3660   3665   3666     1  0.0000000  0.6508444  3
   3659   3660   3665   3667     1  0.0000000  0.6508444  3
   3659   3660   3665   3668     1  0.0000000  0.6508444  3
   3661   3659   3660   3665     1  0.0000000  0.6508444  3
   3661   3659   3660   3663     1  0.0000000  0.6508444  3
   3661   3659   3660   3664     1  0.0000000  0.6508444  3
   3662   3659   3660   3665     1  0.0000000  0.6508444  3
   3662   3659   3660   3663     1  0.0000000  0.6508444  3
   3662   3659   3660   3664     1  0.0000000  0.6508444  3
   3663   3660   3665   3666     1  0.0000000  0.6508444  3
   3663   3660   3665   3667     1  0.0000000  0.6508444  3
   3663   3660   3665   3668     1  0.0000000  0.6508444  3
   3664   3660   3665   3666     1  0.0000000  0.6508444  3
   3664   3660   3665   3667     1  0.0000000  0.6508444  3
   3664   3660   3665   3668     1  0.0000000  0.6508444  3
   3669   3671   3672   3675     1  0.0000000  0.6508444  3
   3669   3671   3672   3676     1  0.0000000  0.6508444  3
   3670   3669   3671   3672     1  0.0000000  0.0000000  2
   3670   3669   3671   3673     1  0.0000000  0.0000000  2
   3670   3669   3671   3674     1  0.0000000  0.0000000  2
   3671   3672   3677   3678     1  0.0000000  0.6508444  3
   3671   3672   3677   3679     1  0.0000000  0.6508444  3
   3671   3672   3677   3680     1  0.0000000  0.6508444  3
   3673   3671   3672   3677     1  0.0000000  0.6508444  3
   3673   3671   3672   3675     1  0.0000000  0.6508444  3
   3673   3671   3672   3676     1  0.0000000  0.6508444  3
   3674   3671   3672   3677     1  0.0000000  0.6508444  3
   3674   3671   3672   3675     1  0.0000000  0.6508444  3
   3674   3671   3672   3676     1  0.0000000  0.6508444  3
   3675   3672   3677   3678     1  0.0000000  0.6508444  3
   3675   3672   3677   3679     1  0.0000000  0.6508444  3
   3675   3672   3677   3680     1  0.0000000  0.6508444  3
   3676   3672   3677   3678     1  0.0000000  0.6508444  3
   3676   3672   3677   3679     1  0.0000000  0.6508444  3
   3676   3672   3677   3680     1  0.0000000  0.6508444  3
   3681   3683   3684   3687     1  0.0000000  0.6508444  3
   3681   3683   3684   3688     1  0.0000000  0.6508444  3
   3682   3681   3683   3684     1  0.0000000  0.0000000  2
   3682   3681   3683   3685     1  0.0000000  0.0000000  2
   3682   3681   3683   3686     1  0.0000000  0.0000000  2
   3683   3684   3689   3690     1  0.0000000  0.6508444  3
   3683   3684   3689   3691     1  0.0000000  0.6508444  3
   3683   3684   3689   3692     1  0.0000000  0.6508444  3
   3685   3683   3684   3689     1  0.0000000  0.6508444  3
   3685   3683   3684   3687     1  0.0000000  0.6508444  3
   3685   3683   3684   3688     1  0.0000000  0.6508444  3
   3686   3683   3684   3689     1  0.0000000  0.6508444  3
   3686   3683   3684   3687     1  0.0000000  0.6508444  3
   3686   3683   3684   3688     1  0.0000000  0.6508444  3
   3687   3684   3689   3690     1  0.0000000  0.6508444  3
   3687   3684   3689   3691     1  0.0000000  0.6508444  3
   3687   3684   3689   3692     1  0.0000000  0.6508444  3
   3688   3684   3689   3690     1  0.0000000  0.6508444  3
   3688   3684   3689   3691     1  0.0000000  0.6508444  3
   3688   3684   3689   3692     1  0.0000000  0.6508444  3
   3693   3695   3696   3699     1  0.0000000  0.6508444  3
   3693   3695   3696   3700     1  0.0000000  0.6508444  3
   3694   3693   3695   3696     1  0.0000000  0.0000000  2
   3694   3693   3695   3697     1  0.0000000  0.0000000  2
   3694   3693   3695   3698     1  0.0000000  0.0000000  2
   3695   3696   3701   3702     1  0.0000000  0.6508444  3
   3695   3696   3701   3703     1  0.0000000  0.6508444  3
   3695   3696   3701   3704     1  0.0000000  0.6508444  3
   3697   3695   3696   3701     1  0.0000000  0.6508444  3
   3697   3695   3696   3699     1  0.0000000  0.6508444  3
   3697   3695   3696   3700     1  0.0000000  0.6508444  3
   3698   3695   3696   3701     1  0.0000000  0.6508444  3
   3698   3695   3696   3699     1  0.0000000  0.6508444  3
   3698   3695   3696   3700     1  0.0000000  0.6508444  3
   3699   3696   3701   3702     1  0.0000000  0.6508444  3
   3699   3696   3701   3703     1  0.0000000  0.6508444  3
   3699   3696   3701   3704     1  0.0000000  0.6508444  3
   3700   3696   3701   3702     1  0.0000000  0.6508444  3
   3700   3696   3701   3703     1  0.0000000  0.6508444  3
   3700   3696   3701   3704     1  0.0000000  0.6508444  3
   3705   3707   3708   3711     1  0.0000000  0.6508444  3
   3705   3707   3708   3712     1  0.0000000  0.6508444  3
   3706   3705   3707   3708     1  0.0000000  0.0000000  2
   3706   3705   3707   3709     1  0.0000000  0.0000000  2
   3706   3705   3707   3710     1  0.0000000  0.0000000  2
   3707   3708   3713   3714     1  0.0000000  0.6508444  3
   3707   3708   3713   3715     1  0.0000000  0.6508444  3
   3707   3708   3713   3716     1  0.0000000  0.6508444  3
   3709   3707   3708   3713     1  0.0000000  0.6508444  3
   3709   3707   3708   3711     1  0.0000000  0.6508444  3
   3709   3707   3708   3712     1  0.0000000  0.6508444  3
   3710   3707   3708   3713     1  0.0000000  0.6508444  3
   3710   3707   3708   3711     1  0.0000000  0.6508444  3
   3710   3707   3708   3712     1  0.0000000  0.6508444  3
   3711   3708   3713   3714     1  0.0000000  0.6508444  3
   3711   3708   3713   3715     1  0.0000000  0.6508444  3
   3711   3708   3713   3716     1  0.0000000  0.6508444  3
   3712   3708   3713   3714     1  0.0000000  0.6508444  3
   3712   3708   3713   3715     1  0.0000000  0.6508444  3
   3712   3708   3713   3716     1  0.0000000  0.6508444  3
   3717   3719   3720   3723     1  0.0000000  0.6508444  3
   3717   3719   3720   3724     1  0.0000000  0.6508444  3
   3718   3717   3719   3720     1  0.0000000  0.0000000  2
   3718   3717   3719   3721     1  0.0000000  0.0000000  2
   3718   3717   3719   3722     1  0.0000000  0.0000000  2
   3719   3720   3725   3726     1  0.0000000  0.6508444  3
   3719   3720   3725   3727     1  0.0000000  0.6508444  3
   3719   3720   3725   3728     1  0.0000000  0.6508444  3
   3721   3719   3720   3725     1  0.0000000  0.6508444  3
   3721   3719   3720   3723     1  0.0000000  0.6508444  3
   3721   3719   3720   3724     1  0.0000000  0.6508444  3
   3722   3719   3720   3725     1  0.0000000  0.6508444  3
   3722   3719   3720   3723     1  0.0000000  0.6508444  3
   3722   3719   3720   3724     1  0.0000000  0.6508444  3
   3723   3720   3725   3726     1  0.0000000  0.6508444  3
   3723   3720   3725   3727     1  0.0000000  0.6508444  3
   3723   3720   3725   3728     1  0.0000000  0.6508444  3
   3724   3720   3725   3726     1  0.0000000  0.6508444  3
   3724   3720   3725   3727     1  0.0000000  0.6508444  3
   3724   3720   3725   3728     1  0.0000000  0.6508444  3
   3729   3731   3732   3735     1  0.0000000  0.6508444  3
   3729   3731   3732   3736     1  0.0000000  0.6508444  3
   3730   3729   3731   3732     1  0.0000000  0.0000000  2
   3730   3729   3731   3733     1  0.0000000  0.0000000  2
   3730   3729   3731   3734     1  0.0000000  0.0000000  2
   3731   3732   3737   3738     1  0.0000000  0.6508444  3
   3731   3732   3737   3739     1  0.0000000  0.6508444  3
   3731   3732   3737   3740     1  0.0000000  0.6508444  3
   3733   3731   3732   3737     1  0.0000000  0.6508444  3
   3733   3731   3732   3735     1  0.0000000  0.6508444  3
   3733   3731   3732   3736     1  0.0000000  0.6508444  3
   3734   3731   3732   3737     1  0.0000000  0.6508444  3
   3734   3731   3732   3735     1  0.0000000  0.6508444  3
   3734   3731   3732   3736     1  0.0000000  0.6508444  3
   3735   3732   3737   3738     1  0.0000000  0.6508444  3
   3735   3732   3737   3739     1  0.0000000  0.6508444  3
   3735   3732   3737   3740     1  0.0000000  0.6508444  3
   3736   3732   3737   3738     1  0.0000000  0.6508444  3
   3736   3732   3737   3739     1  0.0000000  0.6508444  3
   3736   3732   3737   3740     1  0.0000000  0.6508444  3
   3741   3743   3744   3747     1  0.0000000  0.6508444  3
   3741   3743   3744   3748     1  0.0000000  0.6508444  3
   3742   3741   3743   3744     1  0.0000000  0.0000000  2
   3742   3741   3743   3745     1  0.0000000  0.0000000  2
   3742   3741   3743   3746     1  0.0000000  0.0000000  2
   3743   3744   3749   3750     1  0.0000000  0.6508444  3
   3743   3744   3749   3751     1  0.0000000  0.6508444  3
   3743   3744   3749   3752     1  0.0000000  0.6508444  3
   3745   3743   3744   3749     1  0.0000000  0.6508444  3
   3745   3743   3744   3747     1  0.0000000  0.6508444  3
   3745   3743   3744   3748     1  0.0000000  0.6508444  3
   3746   3743   3744   3749     1  0.0000000  0.6508444  3
   3746   3743   3744   3747     1  0.0000000  0.6508444  3
   3746   3743   3744   3748     1  0.0000000  0.6508444  3
   3747   3744   3749   3750     1  0.0000000  0.6508444  3
   3747   3744   3749   3751     1  0.0000000  0.6508444  3
   3747   3744   3749   3752     1  0.0000000  0.6508444  3
   3748   3744   3749   3750     1  0.0000000  0.6508444  3
   3748   3744   3749   3751     1  0.0000000  0.6508444  3
   3748   3744   3749   3752     1  0.0000000  0.6508444  3
   3753   3755   3756   3759     1  0.0000000  0.6508444  3
   3753   3755   3756   3760     1  0.0000000  0.6508444  3
   3754   3753   3755   3756     1  0.0000000  0.0000000  2
   3754   3753   3755   3757     1  0.0000000  0.0000000  2
   3754   3753   3755   3758     1  0.0000000  0.0000000  2
   3755   3756   3761   3762     1  0.0000000  0.6508444  3
   3755   3756   3761   3763     1  0.0000000  0.6508444  3
   3755   3756   3761   3764     1  0.0000000  0.6508444  3
   3757   3755   3756   3761     1  0.0000000  0.6508444  3
   3757   3755   3756   3759     1  0.0000000  0.6508444  3
   3757   3755   3756   3760     1  0.0000000  0.6508444  3
   3758   3755   3756   3761     1  0.0000000  0.6508444  3
   3758   3755   3756   3759     1  0.0000000  0.6508444  3
   3758   3755   3756   3760     1  0.0000000  0.6508444  3
   3759   3756   3761   3762     1  0.0000000  0.6508444  3
   3759   3756   3761   3763     1  0.0000000  0.6508444  3
   3759   3756   3761   3764     1  0.0000000  0.6508444  3
   3760   3756   3761   3762     1  0.0000000  0.6508444  3
   3760   3756   3761   3763     1  0.0000000  0.6508444  3
   3760   3756   3761   3764     1  0.0000000  0.6508444  3
   3765   3767   3768   3771     1  0.0000000  0.6508444  3
   3765   3767   3768   3772     1  0.0000000  0.6508444  3
   3766   3765   3767   3768     1  0.0000000  0.0000000  2
   3766   3765   3767   3769     1  0.0000000  0.0000000  2
   3766   3765   3767   3770     1  0.0000000  0.0000000  2
   3767   3768   3773   3774     1  0.0000000  0.6508444  3
   3767   3768   3773   3775     1  0.0000000  0.6508444  3
   3767   3768   3773   3776     1  0.0000000  0.6508444  3
   3769   3767   3768   3773     1  0.0000000  0.6508444  3
   3769   3767   3768   3771     1  0.0000000  0.6508444  3
   3769   3767   3768   3772     1  0.0000000  0.6508444  3
   3770   3767   3768   3773     1  0.0000000  0.6508444  3
   3770   3767   3768   3771     1  0.0000000  0.6508444  3
   3770   3767   3768   3772     1  0.0000000  0.6508444  3
   3771   3768   3773   3774     1  0.0000000  0.6508444  3
   3771   3768   3773   3775     1  0.0000000  0.6508444  3
   3771   3768   3773   3776     1  0.0000000  0.6508444  3
   3772   3768   3773   3774     1  0.0000000  0.6508444  3
   3772   3768   3773   3775     1  0.0000000  0.6508444  3
   3772   3768   3773   3776     1  0.0000000  0.6508444  3
   3777   3779   3780   3783     1  0.0000000  0.6508444  3
   3777   3779   3780   3784     1  0.0000000  0.6508444  3
   3778   3777   3779   3780     1  0.0000000  0.0000000  2
   3778   3777   3779   3781     1  0.0000000  0.0000000  2
   3778   3777   3779   3782     1  0.0000000  0.0000000  2
   3779   3780   3785   3786     1  0.0000000  0.6508444  3
   3779   3780   3785   3787     1  0.0000000  0.6508444  3
   3779   3780   3785   3788     1  0.0000000  0.6508444  3
   3781   3779   3780   3785     1  0.0000000  0.6508444  3
   3781   3779   3780   3783     1  0.0000000  0.6508444  3
   3781   3779   3780   3784     1  0.0000000  0.6508444  3
   3782   3779   3780   3785     1  0.0000000  0.6508444  3
   3782   3779   3780   3783     1  0.0000000  0.6508444  3
   3782   3779   3780   3784     1  0.0000000  0.6508444  3
   3783   3780   3785   3786     1  0.0000000  0.6508444  3
   3783   3780   3785   3787     1  0.0000000  0.6508444  3
   3783   3780   3785   3788     1  0.0000000  0.6508444  3
   3784   3780   3785   3786     1  0.0000000  0.6508444  3
   3784   3780   3785   3787     1  0.0000000  0.6508444  3
   3784   3780   3785   3788     1  0.0000000  0.6508444  3
   3789   3791   3792   3795     1  0.0000000  0.6508444  3
   3789   3791   3792   3796     1  0.0000000  0.6508444  3
   3790   3789   3791   3792     1  0.0000000  0.0000000  2
   3790   3789   3791   3793     1  0.0000000  0.0000000  2
   3790   3789   3791   3794     1  0.0000000  0.0000000  2
   3791   3792   3797   3798     1  0.0000000  0.6508444  3
   3791   3792   3797   3799     1  0.0000000  0.6508444  3
   3791   3792   3797   3800     1  0.0000000  0.6508444  3
   3793   3791   3792   3797     1  0.0000000  0.6508444  3
   3793   3791   3792   3795     1  0.0000000  0.6508444  3
   3793   3791   3792   3796     1  0.0000000  0.6508444  3
   3794   3791   3792   3797     1  0.0000000  0.6508444  3
   3794   3791   3792   3795     1  0.0000000  0.6508444  3
   3794   3791   3792   3796     1  0.0000000  0.6508444  3
   3795   3792   3797   3798     1  0.0000000  0.6508444  3
   3795   3792   3797   3799     1  0.0000000  0.6508444  3
   3795   3792   3797   3800     1  0.0000000  0.6508444  3
   3796   3792   3797   3798     1  0.0000000  0.6508444  3
   3796   3792   3797   3799     1  0.0000000  0.6508444  3
   3796   3792   3797   3800     1  0.0000000  0.6508444  3
   3801   3803   3804   3807     1  0.0000000  0.6508444  3
   3801   3803   3804   3808     1  0.0000000  0.6508444  3
   3802   3801   3803   3804     1  0.0000000  0.0000000  2
   3802   3801   3803   3805     1  0.0000000  0.0000000  2
   3802   3801   3803   3806     1  0.0000000  0.0000000  2
   3803   3804   3809   3810     1  0.0000000  0.6508444  3
   3803   3804   3809   3811     1  0.0000000  0.6508444  3
   3803   3804   3809   3812     1  0.0000000  0.6508444  3
   3805   3803   3804   3809     1  0.0000000  0.6508444  3
   3805   3803   3804   3807     1  0.0000000  0.6508444  3
   3805   3803   3804   3808     1  0.0000000  0.6508444  3
   3806   3803   3804   3809     1  0.0000000  0.6508444  3
   3806   3803   3804   3807     1  0.0000000  0.6508444  3
   3806   3803   3804   3808     1  0.0000000  0.6508444  3
   3807   3804   3809   3810     1  0.0000000  0.6508444  3
   3807   3804   3809   3811     1  0.0000000  0.6508444  3
   3807   3804   3809   3812     1  0.0000000  0.6508444  3
   3808   3804   3809   3810     1  0.0000000  0.6508444  3
   3808   3804   3809   3811     1  0.0000000  0.6508444  3
   3808   3804   3809   3812     1  0.0000000  0.6508444  3
   3813   3815   3816   3819     1  0.0000000  0.6508444  3
   3813   3815   3816   3820     1  0.0000000  0.6508444  3
   3814   3813   3815   3816     1  0.0000000  0.0000000  2
   3814   3813   3815   3817     1  0.0000000  0.0000000  2
   3814   3813   3815   3818     1  0.0000000  0.0000000  2
   3815   3816   3821   3822     1  0.0000000  0.6508444  3
   3815   3816   3821   3823     1  0.0000000  0.6508444  3
   3815   3816   3821   3824     1  0.0000000  0.6508444  3
   3817   3815   3816   3821     1  0.0000000  0.6508444  3
   3817   3815   3816   3819     1  0.0000000  0.6508444  3
   3817   3815   3816   3820     1  0.0000000  0.6508444  3
   3818   3815   3816   3821     1  0.0000000  0.6508444  3
   3818   3815   3816   3819     1  0.0000000  0.6508444  3
   3818   3815   3816   3820     1  0.0000000  0.6508444  3
   3819   3816   3821   3822     1  0.0000000  0.6508444  3
   3819   3816   3821   3823     1  0.0000000  0.6508444  3
   3819   3816   3821   3824     1  0.0000000  0.6508444  3
   3820   3816   3821   3822     1  0.0000000  0.6508444  3
   3820   3816   3821   3823     1  0.0000000  0.6508444  3
   3820   3816   3821   3824     1  0.0000000  0.6508444  3
   3825   3827   3828   3831     1  0.0000000  0.6508444  3
   3825   3827   3828   3832     1  0.0000000  0.6508444  3
   3826   3825   3827   3828     1  0.0000000  0.0000000  2
   3826   3825   3827   3829     1  0.0000000  0.0000000  2
   3826   3825   3827   3830     1  0.0000000  0.0000000  2
   3827   3828   3833   3834     1  0.0000000  0.6508444  3
   3827   3828   3833   3835     1  0.0000000  0.6508444  3
   3827   3828   3833   3836     1  0.0000000  0.6508444  3
   3829   3827   3828   3833     1  0.0000000  0.6508444  3
   3829   3827   3828   3831     1  0.0000000  0.6508444  3
   3829   3827   3828   3832     1  0.0000000  0.6508444  3
   3830   3827   3828   3833     1  0.0000000  0.6508444  3
   3830   3827   3828   3831     1  0.0000000  0.6508444  3
   3830   3827   3828   3832     1  0.0000000  0.6508444  3
   3831   3828   3833   3834     1  0.0000000  0.6508444  3
   3831   3828   3833   3835     1  0.0000000  0.6508444  3
   3831   3828   3833   3836     1  0.0000000  0.6508444  3
   3832   3828   3833   3834     1  0.0000000  0.6508444  3
   3832   3828   3833   3835     1  0.0000000  0.6508444  3
   3832   3828   3833   3836     1  0.0000000  0.6508444  3
   3837   3839   3840   3843     1  0.0000000  0.6508444  3
   3837   3839   3840   3844     1  0.0000000  0.6508444  3
   3838   3837   3839   3840     1  0.0000000  0.0000000  2
   3838   3837   3839   3841     1  0.0000000  0.0000000  2
   3838   3837   3839   3842     1  0.0000000  0.0000000  2
   3839   3840   3845   3846     1  0.0000000  0.6508444  3
   3839   3840   3845   3847     1  0.0000000  0.6508444  3
   3839   3840   3845   3848     1  0.0000000  0.6508444  3
   3841   3839   3840   3845     1  0.0000000  0.6508444  3
   3841   3839   3840   3843     1  0.0000000  0.6508444  3
   3841   3839   3840   3844     1  0.0000000  0.6508444  3
   3842   3839   3840   3845     1  0.0000000  0.6508444  3
   3842   3839   3840   3843     1  0.0000000  0.6508444  3
   3842   3839   3840   3844     1  0.0000000  0.6508444  3
   3843   3840   3845   3846     1  0.0000000  0.6508444  3
   3843   3840   3845   3847     1  0.0000000  0.6508444  3
   3843   3840   3845   3848     1  0.0000000  0.6508444  3
   3844   3840   3845   3846     1  0.0000000  0.6508444  3
   3844   3840   3845   3847     1  0.0000000  0.6508444  3
   3844   3840   3845   3848     1  0.0000000  0.6508444  3
   3849   3851   3852   3855     1  0.0000000  0.6508444  3
   3849   3851   3852   3856     1  0.0000000  0.6508444  3
   3850   3849   3851   3852     1  0.0000000  0.0000000  2
   3850   3849   3851   3853     1  0.0000000  0.0000000  2
   3850   3849   3851   3854     1  0.0000000  0.0000000  2
   3851   3852   3857   3858     1  0.0000000  0.6508444  3
   3851   3852   3857   3859     1  0.0000000  0.6508444  3
   3851   3852   3857   3860     1  0.0000000  0.6508444  3
   3853   3851   3852   3857     1  0.0000000  0.6508444  3
   3853   3851   3852   3855     1  0.0000000  0.6508444  3
   3853   3851   3852   3856     1  0.0000000  0.6508444  3
   3854   3851   3852   3857     1  0.0000000  0.6508444  3
   3854   3851   3852   3855     1  0.0000000  0.6508444  3
   3854   3851   3852   3856     1  0.0000000  0.6508444  3
   3855   3852   3857   3858     1  0.0000000  0.6508444  3
   3855   3852   3857   3859     1  0.0000000  0.6508444  3
   3855   3852   3857   3860     1  0.0000000  0.6508444  3
   3856   3852   3857   3858     1  0.0000000  0.6508444  3
   3856   3852   3857   3859     1  0.0000000  0.6508444  3
   3856   3852   3857   3860     1  0.0000000  0.6508444  3
   3861   3863   3864   3867     1  0.0000000  0.6508444  3
   3861   3863   3864   3868     1  0.0000000  0.6508444  3
   3862   3861   3863   3864     1  0.0000000  0.0000000  2
   3862   3861   3863   3865     1  0.0000000  0.0000000  2
   3862   3861   3863   3866     1  0.0000000  0.0000000  2
   3863   3864   3869   3870     1  0.0000000  0.6508444  3
   3863   3864   3869   3871     1  0.0000000  0.6508444  3
   3863   3864   3869   3872     1  0.0000000  0.6508444  3
   3865   3863   3864   3869     1  0.0000000  0.6508444  3
   3865   3863   3864   3867     1  0.0000000  0.6508444  3
   3865   3863   3864   3868     1  0.0000000  0.6508444  3
   3866   3863   3864   3869     1  0.0000000  0.6508444  3
   3866   3863   3864   3867     1  0.0000000  0.6508444  3
   3866   3863   3864   3868     1  0.0000000  0.6508444  3
   3867   3864   3869   3870     1  0.0000000  0.6508444  3
   3867   3864   3869   3871     1  0.0000000  0.6508444  3
   3867   3864   3869   3872     1  0.0000000  0.6508444  3
   3868   3864   3869   3870     1  0.0000000  0.6508444  3
   3868   3864   3869   3871     1  0.0000000  0.6508444  3
   3868   3864   3869   3872     1  0.0000000  0.6508444  3
   3873   3875   3876   3879     1  0.0000000  0.6508444  3
   3873   3875   3876   3880     1  0.0000000  0.6508444  3
   3874   3873   3875   3876     1  0.0000000  0.0000000  2
   3874   3873   3875   3877     1  0.0000000  0.0000000  2
   3874   3873   3875   3878     1  0.0000000  0.0000000  2
   3875   3876   3881   3882     1  0.0000000  0.6508444  3
   3875   3876   3881   3883     1  0.0000000  0.6508444  3
   3875   3876   3881   3884     1  0.0000000  0.6508444  3
   3877   3875   3876   3881     1  0.0000000  0.6508444  3
   3877   3875   3876   3879     1  0.0000000  0.6508444  3
   3877   3875   3876   3880     1  0.0000000  0.6508444  3
   3878   3875   3876   3881     1  0.0000000  0.6508444  3
   3878   3875   3876   3879     1  0.0000000  0.6508444  3
   3878   3875   3876   3880     1  0.0000000  0.6508444  3
   3879   3876   3881   3882     1  0.0000000  0.6508444  3
   3879   3876   3881   3883     1  0.0000000  0.6508444  3
   3879   3876   3881   3884     1  0.0000000  0.6508444  3
   3880   3876   3881   3882     1  0.0000000  0.6508444  3
   3880   3876   3881   3883     1  0.0000000  0.6508444  3
   3880   3876   3881   3884     1  0.0000000  0.6508444  3
   3885   3887   3888   3891     1  0.0000000  0.6508444  3
   3885   3887   3888   3892     1  0.0000000  0.6508444  3
   3886   3885   3887   3888     1  0.0000000  0.0000000  2
   3886   3885   3887   3889     1  0.0000000  0.0000000  2
   3886   3885   3887   3890     1  0.0000000  0.0000000  2
   3887   3888   3893   3894     1  0.0000000  0.6508444  3
   3887   3888   3893   3895     1  0.0000000  0.6508444  3
   3887   3888   3893   3896     1  0.0000000  0.6508444  3
   3889   3887   3888   3893     1  0.0000000  0.6508444  3
   3889   3887   3888   3891     1  0.0000000  0.6508444  3
   3889   3887   3888   3892     1  0.0000000  0.6508444  3
   3890   3887   3888   3893     1  0.0000000  0.6508444  3
   3890   3887   3888   3891     1  0.0000000  0.6508444  3
   3890   3887   3888   3892     1  0.0000000  0.6508444  3
   3891   3888   3893   3894     1  0.0000000  0.6508444  3
   3891   3888   3893   3895     1  0.0000000  0.6508444  3
   3891   3888   3893   3896     1  0.0000000  0.6508444  3
   3892   3888   3893   3894     1  0.0000000  0.6508444  3
   3892   3888   3893   3895     1  0.0000000  0.6508444  3
   3892   3888   3893   3896     1  0.0000000  0.6508444  3
   3897   3899   3900   3903     1  0.0000000  0.6508444  3
   3897   3899   3900   3904     1  0.0000000  0.6508444  3
   3898   3897   3899   3900     1  0.0000000  0.0000000  2
   3898   3897   3899   3901     1  0.0000000  0.0000000  2
   3898   3897   3899   3902     1  0.0000000  0.0000000  2
   3899   3900   3905   3906     1  0.0000000  0.6508444  3
   3899   3900   3905   3907     1  0.0000000  0.6508444  3
   3899   3900   3905   3908     1  0.0000000  0.6508444  3
   3901   3899   3900   3905     1  0.0000000  0.6508444  3
   3901   3899   3900   3903     1  0.0000000  0.6508444  3
   3901   3899   3900   3904     1  0.0000000  0.6508444  3
   3902   3899   3900   3905     1  0.0000000  0.6508444  3
   3902   3899   3900   3903     1  0.0000000  0.6508444  3
   3902   3899   3900   3904     1  0.0000000  0.6508444  3
   3903   3900   3905   3906     1  0.0000000  0.6508444  3
   3903   3900   3905   3907     1  0.0000000  0.6508444  3
   3903   3900   3905   3908     1  0.0000000  0.6508444  3
   3904   3900   3905   3906     1  0.0000000  0.6508444  3
   3904   3900   3905   3907     1  0.0000000  0.6508444  3
   3904   3900   3905   3908     1  0.0000000  0.6508444  3
   3909   3911   3912   3915     1  0.0000000  0.6508444  3
   3909   3911   3912   3916     1  0.0000000  0.6508444  3
   3910   3909   3911   3912     1  0.0000000  0.0000000  2
   3910   3909   3911   3913     1  0.0000000  0.0000000  2
   3910   3909   3911   3914     1  0.0000000  0.0000000  2
   3911   3912   3917   3918     1  0.0000000  0.6508444  3
   3911   3912   3917   3919     1  0.0000000  0.6508444  3
   3911   3912   3917   3920     1  0.0000000  0.6508444  3
   3913   3911   3912   3917     1  0.0000000  0.6508444  3
   3913   3911   3912   3915     1  0.0000000  0.6508444  3
   3913   3911   3912   3916     1  0.0000000  0.6508444  3
   3914   3911   3912   3917     1  0.0000000  0.6508444  3
   3914   3911   3912   3915     1  0.0000000  0.6508444  3
   3914   3911   3912   3916     1  0.0000000  0.6508444  3
   3915   3912   3917   3918     1  0.0000000  0.6508444  3
   3915   3912   3917   3919     1  0.0000000  0.6508444  3
   3915   3912   3917   3920     1  0.0000000  0.6508444  3
   3916   3912   3917   3918     1  0.0000000  0.6508444  3
   3916   3912   3917   3919     1  0.0000000  0.6508444  3
   3916   3912   3917   3920     1  0.0000000  0.6508444  3
   3921   3923   3924   3927     1  0.0000000  0.6508444  3
   3921   3923   3924   3928     1  0.0000000  0.6508444  3
   3922   3921   3923   3924     1  0.0000000  0.0000000  2
   3922   3921   3923   3925     1  0.0000000  0.0000000  2
   3922   3921   3923   3926     1  0.0000000  0.0000000  2
   3923   3924   3929   3930     1  0.0000000  0.6508444  3
   3923   3924   3929   3931     1  0.0000000  0.6508444  3
   3923   3924   3929   3932     1  0.0000000  0.6508444  3
   3925   3923   3924   3929     1  0.0000000  0.6508444  3
   3925   3923   3924   3927     1  0.0000000  0.6508444  3
   3925   3923   3924   3928     1  0.0000000  0.6508444  3
   3926   3923   3924   3929     1  0.0000000  0.6508444  3
   3926   3923   3924   3927     1  0.0000000  0.6508444  3
   3926   3923   3924   3928     1  0.0000000  0.6508444  3
   3927   3924   3929   3930     1  0.0000000  0.6508444  3
   3927   3924   3929   3931     1  0.0000000  0.6508444  3
   3927   3924   3929   3932     1  0.0000000  0.6508444  3
   3928   3924   3929   3930     1  0.0000000  0.6508444  3
   3928   3924   3929   3931     1  0.0000000  0.6508444  3
   3928   3924   3929   3932     1  0.0000000  0.6508444  3
   3933   3935   3936   3939     1  0.0000000  0.6508444  3
   3933   3935   3936   3940     1  0.0000000  0.6508444  3
   3934   3933   3935   3936     1  0.0000000  0.0000000  2
   3934   3933   3935   3937     1  0.0000000  0.0000000  2
   3934   3933   3935   3938     1  0.0000000  0.0000000  2
   3935   3936   3941   3942     1  0.0000000  0.6508444  3
   3935   3936   3941   3943     1  0.0000000  0.6508444  3
   3935   3936   3941   3944     1  0.0000000  0.6508444  3
   3937   3935   3936   3941     1  0.0000000  0.6508444  3
   3937   3935   3936   3939     1  0.0000000  0.6508444  3
   3937   3935   3936   3940     1  0.0000000  0.6508444  3
   3938   3935   3936   3941     1  0.0000000  0.6508444  3
   3938   3935   3936   3939     1  0.0000000  0.6508444  3
   3938   3935   3936   3940     1  0.0000000  0.6508444  3
   3939   3936   3941   3942     1  0.0000000  0.6508444  3
   3939   3936   3941   3943     1  0.0000000  0.6508444  3
   3939   3936   3941   3944     1  0.0000000  0.6508444  3
   3940   3936   3941   3942     1  0.0000000  0.6508444  3
   3940   3936   3941   3943     1  0.0000000  0.6508444  3
   3940   3936   3941   3944     1  0.0000000  0.6508444  3
   3945   3947   3948   3951     1  0.0000000  0.6508444  3
   3945   3947   3948   3952     1  0.0000000  0.6508444  3
   3946   3945   3947   3948     1  0.0000000  0.0000000  2
   3946   3945   3947   3949     1  0.0000000  0.0000000  2
   3946   3945   3947   3950     1  0.0000000  0.0000000  2
   3947   3948   3953   3954     1  0.0000000  0.6508444  3
   3947   3948   3953   3955     1  0.0000000  0.6508444  3
   3947   3948   3953   3956     1  0.0000000  0.6508444  3
   3949   3947   3948   3953     1  0.0000000  0.6508444  3
   3949   3947   3948   3951     1  0.0000000  0.6508444  3
   3949   3947   3948   3952     1  0.0000000  0.6508444  3
   3950   3947   3948   3953     1  0.0000000  0.6508444  3
   3950   3947   3948   3951     1  0.0000000  0.6508444  3
   3950   3947   3948   3952     1  0.0000000  0.6508444  3
   3951   3948   3953   3954     1  0.0000000  0.6508444  3
   3951   3948   3953   3955     1  0.0000000  0.6508444  3
   3951   3948   3953   3956     1  0.0000000  0.6508444  3
   3952   3948   3953   3954     1  0.0000000  0.6508444  3
   3952   3948   3953   3955     1  0.0000000  0.6508444  3
   3952   3948   3953   3956     1  0.0000000  0.6508444  3
   3957   3959   3960   3963     1  0.0000000  0.6508444  3
   3957   3959   3960   3964     1  0.0000000  0.6508444  3
   3958   3957   3959   3960     1  0.0000000  0.0000000  2
   3958   3957   3959   3961     1  0.0000000  0.0000000  2
   3958   3957   3959   3962     1  0.0000000  0.0000000  2
   3959   3960   3965   3966     1  0.0000000  0.6508444  3
   3959   3960   3965   3967     1  0.0000000  0.6508444  3
   3959   3960   3965   3968     1  0.0000000  0.6508444  3
   3961   3959   3960   3965     1  0.0000000  0.6508444  3
   3961   3959   3960   3963     1  0.0000000  0.6508444  3
   3961   3959   3960   3964     1  0.0000000  0.6508444  3
   3962   3959   3960   3965     1  0.0000000  0.6508444  3
   3962   3959   3960   3963     1  0.0000000  0.6508444  3
   3962   3959   3960   3964     1  0.0000000  0.6508444  3
   3963   3960   3965   3966     1  0.0000000  0.6508444  3
   3963   3960   3965   3967     1  0.0000000  0.6508444  3
   3963   3960   3965   3968     1  0.0000000  0.6508444  3
   3964   3960   3965   3966     1  0.0000000  0.6508444  3
   3964   3960   3965   3967     1  0.0000000  0.6508444  3
   3964   3960   3965   3968     1  0.0000000  0.6508444  3
   3969   3971   3972   3975     1  0.0000000  0.6508444  3
   3969   3971   3972   3976     1  0.0000000  0.6508444  3
   3970   3969   3971   3972     1  0.0000000  0.0000000  2
   3970   3969   3971   3973     1  0.0000000  0.0000000  2
   3970   3969   3971   3974     1  0.0000000  0.0000000  2
   3971   3972   3977   3978     1  0.0000000  0.6508444  3
   3971   3972   3977   3979     1  0.0000000  0.6508444  3
   3971   3972   3977   3980     1  0.0000000  0.6508444  3
   3973   3971   3972   3977     1  0.0000000  0.6508444  3
   3973   3971   3972   3975     1  0.0000000  0.6508444  3
   3973   3971   3972   3976     1  0.0000000  0.6508444  3
   3974   3971   3972   3977     1  0.0000000  0.6508444  3
   3974   3971   3972   3975     1  0.0000000  0.6508444  3
   3974   3971   3972   3976     1  0.0000000  0.6508444  3
   3975   3972   3977   3978     1  0.0000000  0.6508444  3
   3975   3972   3977   3979     1  0.0000000  0.6508444  3
   3975   3972   3977   3980     1  0.0000000  0.6508444  3
   3976   3972   3977   3978     1  0.0000000  0.6508444  3
   3976   3972   3977   3979     1  0.0000000  0.6508444  3
   3976   3972   3977   3980     1  0.0000000  0.6508444  3
   3981   3983   3984   3987     1  0.0000000  0.6508444  3
   3981   3983   3984   3988     1  0.0000000  0.6508444  3
   3982   3981   3983   3984     1  0.0000000  0.0000000  2
   3982   3981   3983   3985     1  0.0000000  0.0000000  2
   3982   3981   3983   3986     1  0.0000000  0.0000000  2
   3983   3984   3989   3990     1  0.0000000  0.6508444  3
   3983   3984   3989   3991     1  0.0000000  0.6508444  3
   3983   3984   3989   3992     1  0.0000000  0.6508444  3
   3985   3983   3984   3989     1  0.0000000  0.6508444  3
   3985   3983   3984   3987     1  0.0000000  0.6508444  3
   3985   3983   3984   3988     1  0.0000000  0.6508444  3
   3986   3983   3984   3989     1  0.0000000  0.6508444  3
   3986   3983   3984   3987     1  0.0000000  0.6508444  3
   3986   3983   3984   3988     1  0.0000000  0.6508444  3
   3987   3984   3989   3990     1  0.0000000  0.6508444  3
   3987   3984   3989   3991     1  0.0000000  0.6508444  3
   3987   3984   3989   3992     1  0.0000000  0.6508444  3
   3988   3984   3989   3990     1  0.0000000  0.6508444  3
   3988   3984   3989   3991     1  0.0000000  0.6508444  3
   3988   3984   3989   3992     1  0.0000000  0.6508444  3
   3993   3995   3996   3999     1  0.0000000  0.6508444  3
   3993   3995   3996   4000     1  0.0000000  0.6508444  3
   3994   3993   3995   3996     1  0.0000000  0.0000000  2
   3994   3993   3995   3997     1  0.0000000  0.0000000  2
   3994   3993   3995   3998     1  0.0000000  0.0000000  2
   3995   3996   4001   4002     1  0.0000000  0.6508444  3
   3995   3996   4001   4003     1  0.0000000  0.6508444  3
   3995   3996   4001   4004     1  0.0000000  0.6508444  3
   3997   3995   3996   4001     1  0.0000000  0.6508444  3
   3997   3995   3996   3999     1  0.0000000  0.6508444  3
   3997   3995   3996   4000     1  0.0000000  0.6508444  3
   3998   3995   3996   4001     1  0.0000000  0.6508444  3
   3998   3995   3996   3999     1  0.0000000  0.6508444  3
   3998   3995   3996   4000     1  0.0000000  0.6508444  3
   3999   3996   4001   4002     1  0.0000000  0.6508444  3
   3999   3996   4001   4003     1  0.0000000  0.6508444  3
   3999   3996   4001   4004     1  0.0000000  0.6508444  3
   4000   3996   4001   4002     1  0.0000000  0.6508444  3
   4000   3996   4001   4003     1  0.0000000  0.6508444  3
   4000   3996   4001   4004     1  0.0000000  0.6508444  3
   4005   4007   4008   4011     1  0.0000000  0.6508444  3
   4005   4007   4008   4012     1  0.0000000  0.6508444  3
   4006   4005   4007   4008     1  0.0000000  0.0000000  2
   4006   4005   4007   4009     1  0.0000000  0.0000000  2
   4006   4005   4007   4010     1  0.0000000  0.0000000  2
   4007   4008   4013   4014     1  0.0000000  0.6508444  3
   4007   4008   4013   4015     1  0.0000000  0.6508444  3
   4007   4008   4013   4016     1  0.0000000  0.6508444  3
   4009   4007   4008   4013     1  0.0000000  0.6508444  3
   4009   4007   4008   4011     1  0.0000000  0.6508444  3
   4009   4007   4008   4012     1  0.0000000  0.6508444  3
   4010   4007   4008   4013     1  0.0000000  0.6508444  3
   4010   4007   4008   4011     1  0.0000000  0.6508444  3
   4010   4007   4008   4012     1  0.0000000  0.6508444  3
   4011   4008   4013   4014     1  0.0000000  0.6508444  3
   4011   4008   4013   4015     1  0.0000000  0.6508444  3
   4011   4008   4013   4016     1  0.0000000  0.6508444  3
   4012   4008   4013   4014     1  0.0000000  0.6508444  3
   4012   4008   4013   4015     1  0.0000000  0.6508444  3
   4012   4008   4013   4016     1  0.0000000  0.6508444  3
   4017   4019   4020   4023     1  0.0000000  0.6508444  3
   4017   4019   4020   4024     1  0.0000000  0.6508444  3
   4018   4017   4019   4020     1  0.0000000  0.0000000  2
   4018   4017   4019   4021     1  0.0000000  0.0000000  2
   4018   4017   4019   4022     1  0.0000000  0.0000000  2
   4019   4020   4025   4026     1  0.0000000  0.6508444  3
   4019   4020   4025   4027     1  0.0000000  0.6508444  3
   4019   4020   4025   4028     1  0.0000000  0.6508444  3
   4021   4019   4020   4025     1  0.0000000  0.6508444  3
   4021   4019   4020   4023     1  0.0000000  0.6508444  3
   4021   4019   4020   4024     1  0.0000000  0.6508444  3
   4022   4019   4020   4025     1  0.0000000  0.6508444  3
   4022   4019   4020   4023     1  0.0000000  0.6508444  3
   4022   4019   4020   4024     1  0.0000000  0.6508444  3
   4023   4020   4025   4026     1  0.0000000  0.6508444  3
   4023   4020   4025   4027     1  0.0000000  0.6508444  3
   4023   4020   4025   4028     1  0.0000000  0.6508444  3
   4024   4020   4025   4026     1  0.0000000  0.6508444  3
   4024   4020   4025   4027     1  0.0000000  0.6508444  3
   4024   4020   4025   4028     1  0.0000000  0.6508444  3
   4029   4031   4032   4035     1  0.0000000  0.6508444  3
   4029   4031   4032   4036     1  0.0000000  0.6508444  3
   4030   4029   4031   4032     1  0.0000000  0.0000000  2
   4030   4029   4031   4033     1  0.0000000  0.0000000  2
   4030   4029   4031   4034     1  0.0000000  0.0000000  2
   4031   4032   4037   4038     1  0.0000000  0.6508444  3
   4031   4032   4037   4039     1  0.0000000  0.6508444  3
   4031   4032   4037   4040     1  0.0000000  0.6508444  3
   4033   4031   4032   4037     1  0.0000000  0.6508444  3
   4033   4031   4032   4035     1  0.0000000  0.6508444  3
   4033   4031   4032   4036     1  0.0000000  0.6508444  3
   4034   4031   4032   4037     1  0.0000000  0.6508444  3
   4034   4031   4032   4035     1  0.0000000  0.6508444  3
   4034   4031   4032   4036     1  0.0000000  0.6508444  3
   4035   4032   4037   4038     1  0.0000000  0.6508444  3
   4035   4032   4037   4039     1  0.0000000  0.6508444  3
   4035   4032   4037   4040     1  0.0000000  0.6508444  3
   4036   4032   4037   4038     1  0.0000000  0.6508444  3
   4036   4032   4037   4039     1  0.0000000  0.6508444  3
   4036   4032   4037   4040     1  0.0000000  0.6508444  3
   4041   4043   4044   4047     1  0.0000000  0.6508444  3
   4041   4043   4044   4048     1  0.0000000  0.6508444  3
   4042   4041   4043   4044     1  0.0000000  0.0000000  2
   4042   4041   4043   4045     1  0.0000000  0.0000000  2
   4042   4041   4043   4046     1  0.0000000  0.0000000  2
   4043   4044   4049   4050     1  0.0000000  0.6508444  3
   4043   4044   4049   4051     1  0.0000000  0.6508444  3
   4043   4044   4049   4052     1  0.0000000  0.6508444  3
   4045   4043   4044   4049     1  0.0000000  0.6508444  3
   4045   4043   4044   4047     1  0.0000000  0.6508444  3
   4045   4043   4044   4048     1  0.0000000  0.6508444  3
   4046   4043   4044   4049     1  0.0000000  0.6508444  3
   4046   4043   4044   4047     1  0.0000000  0.6508444  3
   4046   4043   4044   4048     1  0.0000000  0.6508444  3
   4047   4044   4049   4050     1  0.0000000  0.6508444  3
   4047   4044   4049   4051     1  0.0000000  0.6508444  3
   4047   4044   4049   4052     1  0.0000000  0.6508444  3
   4048   4044   4049   4050     1  0.0000000  0.6508444  3
   4048   4044   4049   4051     1  0.0000000  0.6508444  3
   4048   4044   4049   4052     1  0.0000000  0.6508444  3
   4053   4055   4056   4059     1  0.0000000  0.6508444  3
   4053   4055   4056   4060     1  0.0000000  0.6508444  3
   4054   4053   4055   4056     1  0.0000000  0.0000000  2
   4054   4053   4055   4057     1  0.0000000  0.0000000  2
   4054   4053   4055   4058     1  0.0000000  0.0000000  2
   4055   4056   4061   4062     1  0.0000000  0.6508444  3
   4055   4056   4061   4063     1  0.0000000  0.6508444  3
   4055   4056   4061   4064     1  0.0000000  0.6508444  3
   4057   4055   4056   4061     1  0.0000000  0.6508444  3
   4057   4055   4056   4059     1  0.0000000  0.6508444  3
   4057   4055   4056   4060     1  0.0000000  0.6508444  3
   4058   4055   4056   4061     1  0.0000000  0.6508444  3
   4058   4055   4056   4059     1  0.0000000  0.6508444  3
   4058   4055   4056   4060     1  0.0000000  0.6508444  3
   4059   4056   4061   4062     1  0.0000000  0.6508444  3
   4059   4056   4061   4063     1  0.0000000  0.6508444  3
   4059   4056   4061   4064     1  0.0000000  0.6508444  3
   4060   4056   4061   4062     1  0.0000000  0.6508444  3
   4060   4056   4061   4063     1  0.0000000  0.6508444  3
   4060   4056   4061   4064     1  0.0000000  0.6508444  3
   4065   4067   4068   4071     1  0.0000000  0.6508444  3
   4065   4067   4068   4072     1  0.0000000  0.6508444  3
   4066   4065   4067   4068     1  0.0000000  0.0000000  2
   4066   4065   4067   4069     1  0.0000000  0.0000000  2
   4066   4065   4067   4070     1  0.0000000  0.0000000  2
   4067   4068   4073   4074     1  0.0000000  0.6508444  3
   4067   4068   4073   4075     1  0.0000000  0.6508444  3
   4067   4068   4073   4076     1  0.0000000  0.6508444  3
   4069   4067   4068   4073     1  0.0000000  0.6508444  3
   4069   4067   4068   4071     1  0.0000000  0.6508444  3
   4069   4067   4068   4072     1  0.0000000  0.6508444  3
   4070   4067   4068   4073     1  0.0000000  0.6508444  3
   4070   4067   4068   4071     1  0.0000000  0.6508444  3
   4070   4067   4068   4072     1  0.0000000  0.6508444  3
   4071   4068   4073   4074     1  0.0000000  0.6508444  3
   4071   4068   4073   4075     1  0.0000000  0.6508444  3
   4071   4068   4073   4076     1  0.0000000  0.6508444  3
   4072   4068   4073   4074     1  0.0000000  0.6508444  3
   4072   4068   4073   4075     1  0.0000000  0.6508444  3
   4072   4068   4073   4076     1  0.0000000  0.6508444  3
   4077   4079   4080   4083     1  0.0000000  0.6508444  3
   4077   4079   4080   4084     1  0.0000000  0.6508444  3
   4078   4077   4079   4080     1  0.0000000  0.0000000  2
   4078   4077   4079   4081     1  0.0000000  0.0000000  2
   4078   4077   4079   4082     1  0.0000000  0.0000000  2
   4079   4080   4085   4086     1  0.0000000  0.6508444  3
   4079   4080   4085   4087     1  0.0000000  0.6508444  3
   4079   4080   4085   4088     1  0.0000000  0.6508444  3
   4081   4079   4080   4085     1  0.0000000  0.6508444  3
   4081   4079   4080   4083     1  0.0000000  0.6508444  3
   4081   4079   4080   4084     1  0.0000000  0.6508444  3
   4082   4079   4080   4085     1  0.0000000  0.6508444  3
   4082   4079   4080   4083     1  0.0000000  0.6508444  3
   4082   4079   4080   4084     1  0.0000000  0.6508444  3
   4083   4080   4085   4086     1  0.0000000  0.6508444  3
   4083   4080   4085   4087     1  0.0000000  0.6508444  3
   4083   4080   4085   4088     1  0.0000000  0.6508444  3
   4084   4080   4085   4086     1  0.0000000  0.6508444  3
   4084   4080   4085   4087     1  0.0000000  0.6508444  3
   4084   4080   4085   4088     1  0.0000000  0.6508444  3
   4089   4091   4092   4095     1  0.0000000  0.6508444  3
   4089   4091   4092   4096     1  0.0000000  0.6508444  3
   4090   4089   4091   4092     1  0.0000000  0.0000000  2
   4090   4089   4091   4093     1  0.0000000  0.0000000  2
   4090   4089   4091   4094     1  0.0000000  0.0000000  2
   4091   4092   4097   4098     1  0.0000000  0.6508444  3
   4091   4092   4097   4099     1  0.0000000  0.6508444  3
   4091   4092   4097   4100     1  0.0000000  0.6508444  3
   4093   4091   4092   4097     1  0.0000000  0.6508444  3
   4093   4091   4092   4095     1  0.0000000  0.6508444  3
   4093   4091   4092   4096     1  0.0000000  0.6508444  3
   4094   4091   4092   4097     1  0.0000000  0.6508444  3
   4094   4091   4092   4095     1  0.0000000  0.6508444  3
   4094   4091   4092   4096     1  0.0000000  0.6508444  3
   4095   4092   4097   4098     1  0.0000000  0.6508444  3
   4095   4092   4097   4099     1  0.0000000  0.6508444  3
   4095   4092   4097   4100     1  0.0000000  0.6508444  3
   4096   4092   4097   4098     1  0.0000000  0.6508444  3
   4096   4092   4097   4099     1  0.0000000  0.6508444  3
   4096   4092   4097   4100     1  0.0000000  0.6508444  3
   4101   4103   4104   4107     1  0.0000000  0.6508444  3
   4101   4103   4104   4108     1  0.0000000  0.6508444  3
   4102   4101   4103   4104     1  0.0000000  0.0000000  2
   4102   4101   4103   4105     1  0.0000000  0.0000000  2
   4102   4101   4103   4106     1  0.0000000  0.0000000  2
   4103   4104   4109   4110     1  0.0000000  0.6508444  3
   4103   4104   4109   4111     1  0.0000000  0.6508444  3
   4103   4104   4109   4112     1  0.0000000  0.6508444  3
   4105   4103   4104   4109     1  0.0000000  0.6508444  3
   4105   4103   4104   4107     1  0.0000000  0.6508444  3
   4105   4103   4104   4108     1  0.0000000  0.6508444  3
   4106   4103   4104   4109     1  0.0000000  0.6508444  3
   4106   4103   4104   4107     1  0.0000000  0.6508444  3
   4106   4103   4104   4108     1  0.0000000  0.6508444  3
   4107   4104   4109   4110     1  0.0000000  0.6508444  3
   4107   4104   4109   4111     1  0.0000000  0.6508444  3
   4107   4104   4109   4112     1  0.0000000  0.6508444  3
   4108   4104   4109   4110     1  0.0000000  0.6508444  3
   4108   4104   4109   4111     1  0.0000000  0.6508444  3
   4108   4104   4109   4112     1  0.0000000  0.6508444  3
   4113   4115   4116   4119     1  0.0000000  0.6508444  3
   4113   4115   4116   4120     1  0.0000000  0.6508444  3
   4114   4113   4115   4116     1  0.0000000  0.0000000  2
   4114   4113   4115   4117     1  0.0000000  0.0000000  2
   4114   4113   4115   4118     1  0.0000000  0.0000000  2
   4115   4116   4121   4122     1  0.0000000  0.6508444  3
   4115   4116   4121   4123     1  0.0000000  0.6508444  3
   4115   4116   4121   4124     1  0.0000000  0.6508444  3
   4117   4115   4116   4121     1  0.0000000  0.6508444  3
   4117   4115   4116   4119     1  0.0000000  0.6508444  3
   4117   4115   4116   4120     1  0.0000000  0.6508444  3
   4118   4115   4116   4121     1  0.0000000  0.6508444  3
   4118   4115   4116   4119     1  0.0000000  0.6508444  3
   4118   4115   4116   4120     1  0.0000000  0.6508444  3
   4119   4116   4121   4122     1  0.0000000  0.6508444  3
   4119   4116   4121   4123     1  0.0000000  0.6508444  3
   4119   4116   4121   4124     1  0.0000000  0.6508444  3
   4120   4116   4121   4122     1  0.0000000  0.6508444  3
   4120   4116   4121   4123     1  0.0000000  0.6508444  3
   4120   4116   4121   4124     1  0.0000000  0.6508444  3
   4125   4127   4128   4131     1  0.0000000  0.6508444  3
   4125   4127   4128   4132     1  0.0000000  0.6508444  3
   4126   4125   4127   4128     1  0.0000000  0.0000000  2
   4126   4125   4127   4129     1  0.0000000  0.0000000  2
   4126   4125   4127   4130     1  0.0000000  0.0000000  2
   4127   4128   4133   4134     1  0.0000000  0.6508444  3
   4127   4128   4133   4135     1  0.0000000  0.6508444  3
   4127   4128   4133   4136     1  0.0000000  0.6508444  3
   4129   4127   4128   4133     1  0.0000000  0.6508444  3
   4129   4127   4128   4131     1  0.0000000  0.6508444  3
   4129   4127   4128   4132     1  0.0000000  0.6508444  3
   4130   4127   4128   4133     1  0.0000000  0.6508444  3
   4130   4127   4128   4131     1  0.0000000  0.6508444  3
   4130   4127   4128   4132     1  0.0000000  0.6508444  3
   4131   4128   4133   4134     1  0.0000000  0.6508444  3
   4131   4128   4133   4135     1  0.0000000  0.6508444  3
   4131   4128   4133   4136     1  0.0000000  0.6508444  3
   4132   4128   4133   4134     1  0.0000000  0.6508444  3
   4132   4128   4133   4135     1  0.0000000  0.6508444  3
   4132   4128   4133   4136     1  0.0000000  0.6508444  3
   4137   4139   4140   4143     1  0.0000000  0.6508444  3
   4137   4139   4140   4144     1  0.0000000  0.6508444  3
   4138   4137   4139   4140     1  0.0000000  0.0000000  2
   4138   4137   4139   4141     1  0.0000000  0.0000000  2
   4138   4137   4139   4142     1  0.0000000  0.0000000  2
   4139   4140   4145   4146     1  0.0000000  0.6508444  3
   4139   4140   4145   4147     1  0.0000000  0.6508444  3
   4139   4140   4145   4148     1  0.0000000  0.6508444  3
   4141   4139   4140   4145     1  0.0000000  0.6508444  3
   4141   4139   4140   4143     1  0.0000000  0.6508444  3
   4141   4139   4140   4144     1  0.0000000  0.6508444  3
   4142   4139   4140   4145     1  0.0000000  0.6508444  3
   4142   4139   4140   4143     1  0.0000000  0.6508444  3
   4142   4139   4140   4144     1  0.0000000  0.6508444  3
   4143   4140   4145   4146     1  0.0000000  0.6508444  3
   4143   4140   4145   4147     1  0.0000000  0.6508444  3
   4143   4140   4145   4148     1  0.0000000  0.6508444  3
   4144   4140   4145   4146     1  0.0000000  0.6508444  3
   4144   4140   4145   4147     1  0.0000000  0.6508444  3
   4144   4140   4145   4148     1  0.0000000  0.6508444  3
   4149   4151   4152   4155     1  0.0000000  0.6508444  3
   4149   4151   4152   4156     1  0.0000000  0.6508444  3
   4150   4149   4151   4152     1  0.0000000  0.0000000  2
   4150   4149   4151   4153     1  0.0000000  0.0000000  2
   4150   4149   4151   4154     1  0.0000000  0.0000000  2
   4151   4152   4157   4158     1  0.0000000  0.6508444  3
   4151   4152   4157   4159     1  0.0000000  0.6508444  3
   4151   4152   4157   4160     1  0.0000000  0.6508444  3
   4153   4151   4152   4157     1  0.0000000  0.6508444  3
   4153   4151   4152   4155     1  0.0000000  0.6508444  3
   4153   4151   4152   4156     1  0.0000000  0.6508444  3
   4154   4151   4152   4157     1  0.0000000  0.6508444  3
   4154   4151   4152   4155     1  0.0000000  0.6508444  3
   4154   4151   4152   4156     1  0.0000000  0.6508444  3
   4155   4152   4157   4158     1  0.0000000  0.6508444  3
   4155   4152   4157   4159     1  0.0000000  0.6508444  3
   4155   4152   4157   4160     1  0.0000000  0.6508444  3
   4156   4152   4157   4158     1  0.0000000  0.6508444  3
   4156   4152   4157   4159     1  0.0000000  0.6508444  3
   4156   4152   4157   4160     1  0.0000000  0.6508444  3
   4161   4163   4164   4167     1  0.0000000  0.6508444  3
   4161   4163   4164   4168     1  0.0000000  0.6508444  3
   4162   4161   4163   4164     1  0.0000000  0.0000000  2
   4162   4161   4163   4165     1  0.0000000  0.0000000  2
   4162   4161   4163   4166     1  0.0000000  0.0000000  2
   4163   4164   4169   4170     1  0.0000000  0.6508444  3
   4163   4164   4169   4171     1  0.0000000  0.6508444  3
   4163   4164   4169   4172     1  0.0000000  0.6508444  3
   4165   4163   4164   4169     1  0.0000000  0.6508444  3
   4165   4163   4164   4167     1  0.0000000  0.6508444  3
   4165   4163   4164   4168     1  0.0000000  0.6508444  3
   4166   4163   4164   4169     1  0.0000000  0.6508444  3
   4166   4163   4164   4167     1  0.0000000  0.6508444  3
   4166   4163   4164   4168     1  0.0000000  0.6508444  3
   4167   4164   4169   4170     1  0.0000000  0.6508444  3
   4167   4164   4169   4171     1  0.0000000  0.6508444  3
   4167   4164   4169   4172     1  0.0000000  0.6508444  3
   4168   4164   4169   4170     1  0.0000000  0.6508444  3
   4168   4164   4169   4171     1  0.0000000  0.6508444  3
   4168   4164   4169   4172     1  0.0000000  0.6508444  3
   4173   4175   4176   4179     1  0.0000000  0.6508444  3
   4173   4175   4176   4180     1  0.0000000  0.6508444  3
   4174   4173   4175   4176     1  0.0000000  0.0000000  2
   4174   4173   4175   4177     1  0.0000000  0.0000000  2
   4174   4173   4175   4178     1  0.0000000  0.0000000  2
   4175   4176   4181   4182     1  0.0000000  0.6508444  3
   4175   4176   4181   4183     1  0.0000000  0.6508444  3
   4175   4176   4181   4184     1  0.0000000  0.6508444  3
   4177   4175   4176   4181     1  0.0000000  0.6508444  3
   4177   4175   4176   4179     1  0.0000000  0.6508444  3
   4177   4175   4176   4180     1  0.0000000  0.6508444  3
   4178   4175   4176   4181     1  0.0000000  0.6508444  3
   4178   4175   4176   4179     1  0.0000000  0.6508444  3
   4178   4175   4176   4180     1  0.0000000  0.6508444  3
   4179   4176   4181   4182     1  0.0000000  0.6508444  3
   4179   4176   4181   4183     1  0.0000000  0.6508444  3
   4179   4176   4181   4184     1  0.0000000  0.6508444  3
   4180   4176   4181   4182     1  0.0000000  0.6508444  3
   4180   4176   4181   4183     1  0.0000000  0.6508444  3
   4180   4176   4181   4184     1  0.0000000  0.6508444  3
   4185   4187   4188   4191     1  0.0000000  0.6508444  3
   4185   4187   4188   4192     1  0.0000000  0.6508444  3
   4186   4185   4187   4188     1  0.0000000  0.0000000  2
   4186   4185   4187   4189     1  0.0000000  0.0000000  2
   4186   4185   4187   4190     1  0.0000000  0.0000000  2
   4187   4188   4193   4194     1  0.0000000  0.6508444  3
   4187   4188   4193   4195     1  0.0000000  0.6508444  3
   4187   4188   4193   4196     1  0.0000000  0.6508444  3
   4189   4187   4188   4193     1  0.0000000  0.6508444  3
   4189   4187   4188   4191     1  0.0000000  0.6508444  3
   4189   4187   4188   4192     1  0.0000000  0.6508444  3
   4190   4187   4188   4193     1  0.0000000  0.6508444  3
   4190   4187   4188   4191     1  0.0000000  0.6508444  3
   4190   4187   4188   4192     1  0.0000000  0.6508444  3
   4191   4188   4193   4194     1  0.0000000  0.6508444  3
   4191   4188   4193   4195     1  0.0000000  0.6508444  3
   4191   4188   4193   4196     1  0.0000000  0.6508444  3
   4192   4188   4193   4194     1  0.0000000  0.6508444  3
   4192   4188   4193   4195     1  0.0000000  0.6508444  3
   4192   4188   4193   4196     1  0.0000000  0.6508444  3
   4197   4199   4200   4203     1  0.0000000  0.6508444  3
   4197   4199   4200   4204     1  0.0000000  0.6508444  3
   4198   4197   4199   4200     1  0.0000000  0.0000000  2
   4198   4197   4199   4201     1  0.0000000  0.0000000  2
   4198   4197   4199   4202     1  0.0000000  0.0000000  2
   4199   4200   4205   4206     1  0.0000000  0.6508444  3
   4199   4200   4205   4207     1  0.0000000  0.6508444  3
   4199   4200   4205   4208     1  0.0000000  0.6508444  3
   4201   4199   4200   4205     1  0.0000000  0.6508444  3
   4201   4199   4200   4203     1  0.0000000  0.6508444  3
   4201   4199   4200   4204     1  0.0000000  0.6508444  3
   4202   4199   4200   4205     1  0.0000000  0.6508444  3
   4202   4199   4200   4203     1  0.0000000  0.6508444  3
   4202   4199   4200   4204     1  0.0000000  0.6508444  3
   4203   4200   4205   4206     1  0.0000000  0.6508444  3
   4203   4200   4205   4207     1  0.0000000  0.6508444  3
   4203   4200   4205   4208     1  0.0000000  0.6508444  3
   4204   4200   4205   4206     1  0.0000000  0.6508444  3
   4204   4200   4205   4207     1  0.0000000  0.6508444  3
   4204   4200   4205   4208     1  0.0000000  0.6508444  3
   4209   4211   4212   4215     1  0.0000000  0.6508444  3
   4209   4211   4212   4216     1  0.0000000  0.6508444  3
   4210   4209   4211   4212     1  0.0000000  0.0000000  2
   4210   4209   4211   4213     1  0.0000000  0.0000000  2
   4210   4209   4211   4214     1  0.0000000  0.0000000  2
   4211   4212   4217   4218     1  0.0000000  0.6508444  3
   4211   4212   4217   4219     1  0.0000000  0.6508444  3
   4211   4212   4217   4220     1  0.0000000  0.6508444  3
   4213   4211   4212   4217     1  0.0000000  0.6508444  3
   4213   4211   4212   4215     1  0.0000000  0.6508444  3
   4213   4211   4212   4216     1  0.0000000  0.6508444  3
   4214   4211   4212   4217     1  0.0000000  0.6508444  3
   4214   4211   4212   4215     1  0.0000000  0.6508444  3
   4214   4211   4212   4216     1  0.0000000  0.6508444  3
   4215   4212   4217   4218     1  0.0000000  0.6508444  3
   4215   4212   4217   4219     1  0.0000000  0.6508444  3
   4215   4212   4217   4220     1  0.0000000  0.6508444  3
   4216   4212   4217   4218     1  0.0000000  0.6508444  3
   4216   4212   4217   4219     1  0.0000000  0.6508444  3
   4216   4212   4217   4220     1  0.0000000  0.6508444  3
   4221   4223   4224   4227     1  0.0000000  0.6508444  3
   4221   4223   4224   4228     1  0.0000000  0.6508444  3
   4222   4221   4223   4224     1  0.0000000  0.0000000  2
   4222   4221   4223   4225     1  0.0000000  0.0000000  2
   4222   4221   4223   4226     1  0.0000000  0.0000000  2
   4223   4224   4229   4230     1  0.0000000  0.6508444  3
   4223   4224   4229   4231     1  0.0000000  0.6508444  3
   4223   4224   4229   4232     1  0.0000000  0.6508444  3
   4225   4223   4224   4229     1  0.0000000  0.6508444  3
   4225   4223   4224   4227     1  0.0000000  0.6508444  3
   4225   4223   4224   4228     1  0.0000000  0.6508444  3
   4226   4223   4224   4229     1  0.0000000  0.6508444  3
   4226   4223   4224   4227     1  0.0000000  0.6508444  3
   4226   4223   4224   4228     1  0.0000000  0.6508444  3
   4227   4224   4229   4230     1  0.0000000  0.6508444  3
   4227   4224   4229   4231     1  0.0000000  0.6508444  3
   4227   4224   4229   4232     1  0.0000000  0.6508444  3
   4228   4224   4229   4230     1  0.0000000  0.6508444  3
   4228   4224   4229   4231     1  0.0000000  0.6508444  3
   4228   4224   4229   4232     1  0.0000000  0.6508444  3
   4233   4235   4236   4239     1  0.0000000  0.6508444  3
   4233   4235   4236   4240     1  0.0000000  0.6508444  3
   4234   4233   4235   4236     1  0.0000000  0.0000000  2
   4234   4233   4235   4237     1  0.0000000  0.0000000  2
   4234   4233   4235   4238     1  0.0000000  0.0000000  2
   4235   4236   4241   4242     1  0.0000000  0.6508444  3
   4235   4236   4241   4243     1  0.0000000  0.6508444  3
   4235   4236   4241   4244     1  0.0000000  0.6508444  3
   4237   4235   4236   4241     1  0.0000000  0.6508444  3
   4237   4235   4236   4239     1  0.0000000  0.6508444  3
   4237   4235   4236   4240     1  0.0000000  0.6508444  3
   4238   4235   4236   4241     1  0.0000000  0.6508444  3
   4238   4235   4236   4239     1  0.0000000  0.6508444  3
   4238   4235   4236   4240     1  0.0000000  0.6508444  3
   4239   4236   4241   4242     1  0.0000000  0.6508444  3
   4239   4236   4241   4243     1  0.0000000  0.6508444  3
   4239   4236   4241   4244     1  0.0000000  0.6508444  3
   4240   4236   4241   4242     1  0.0000000  0.6508444  3
   4240   4236   4241   4243     1  0.0000000  0.6508444  3
   4240   4236   4241   4244     1  0.0000000  0.6508444  3
   4245   4247   4248   4251     1  0.0000000  0.6508444  3
   4245   4247   4248   4252     1  0.0000000  0.6508444  3
   4246   4245   4247   4248     1  0.0000000  0.0000000  2
   4246   4245   4247   4249     1  0.0000000  0.0000000  2
   4246   4245   4247   4250     1  0.0000000  0.0000000  2
   4247   4248   4253   4254     1  0.0000000  0.6508444  3
   4247   4248   4253   4255     1  0.0000000  0.6508444  3
   4247   4248   4253   4256     1  0.0000000  0.6508444  3
   4249   4247   4248   4253     1  0.0000000  0.6508444  3
   4249   4247   4248   4251     1  0.0000000  0.6508444  3
   4249   4247   4248   4252     1  0.0000000  0.6508444  3
   4250   4247   4248   4253     1  0.0000000  0.6508444  3
   4250   4247   4248   4251     1  0.0000000  0.6508444  3
   4250   4247   4248   4252     1  0.0000000  0.6508444  3
   4251   4248   4253   4254     1  0.0000000  0.6508444  3
   4251   4248   4253   4255     1  0.0000000  0.6508444  3
   4251   4248   4253   4256     1  0.0000000  0.6508444  3
   4252   4248   4253   4254     1  0.0000000  0.6508444  3
   4252   4248   4253   4255     1  0.0000000  0.6508444  3
   4252   4248   4253   4256     1  0.0000000  0.6508444  3
   4257   4259   4260   4263     1  0.0000000  0.6508444  3
   4257   4259   4260   4264     1  0.0000000  0.6508444  3
   4258   4257   4259   4260     1  0.0000000  0.0000000  2
   4258   4257   4259   4261     1  0.0000000  0.0000000  2
   4258   4257   4259   4262     1  0.0000000  0.0000000  2
   4259   4260   4265   4266     1  0.0000000  0.6508444  3
   4259   4260   4265   4267     1  0.0000000  0.6508444  3
   4259   4260   4265   4268     1  0.0000000  0.6508444  3
   4261   4259   4260   4265     1  0.0000000  0.6508444  3
   4261   4259   4260   4263     1  0.0000000  0.6508444  3
   4261   4259   4260   4264     1  0.0000000  0.6508444  3
   4262   4259   4260   4265     1  0.0000000  0.6508444  3
   4262   4259   4260   4263     1  0.0000000  0.6508444  3
   4262   4259   4260   4264     1  0.0000000  0.6508444  3
   4263   4260   4265   4266     1  0.0000000  0.6508444  3
   4263   4260   4265   4267     1  0.0000000  0.6508444  3
   4263   4260   4265   4268     1  0.0000000  0.6508444  3
   4264   4260   4265   4266     1  0.0000000  0.6508444  3
   4264   4260   4265   4267     1  0.0000000  0.6508444  3
   4264   4260   4265   4268     1  0.0000000  0.6508444  3
   4269   4271   4272   4275     1  0.0000000  0.6508444  3
   4269   4271   4272   4276     1  0.0000000  0.6508444  3
   4270   4269   4271   4272     1  0.0000000  0.0000000  2
   4270   4269   4271   4273     1  0.0000000  0.0000000  2
   4270   4269   4271   4274     1  0.0000000  0.0000000  2
   4271   4272   4277   4278     1  0.0000000  0.6508444  3
   4271   4272   4277   4279     1  0.0000000  0.6508444  3
   4271   4272   4277   4280     1  0.0000000  0.6508444  3
   4273   4271   4272   4277     1  0.0000000  0.6508444  3
   4273   4271   4272   4275     1  0.0000000  0.6508444  3
   4273   4271   4272   4276     1  0.0000000  0.6508444  3
   4274   4271   4272   4277     1  0.0000000  0.6508444  3
   4274   4271   4272   4275     1  0.0000000  0.6508444  3
   4274   4271   4272   4276     1  0.0000000  0.6508444  3
   4275   4272   4277   4278     1  0.0000000  0.6508444  3
   4275   4272   4277   4279     1  0.0000000  0.6508444  3
   4275   4272   4277   4280     1  0.0000000  0.6508444  3
   4276   4272   4277   4278     1  0.0000000  0.6508444  3
   4276   4272   4277   4279     1  0.0000000  0.6508444  3
   4276   4272   4277   4280     1  0.0000000  0.6508444  3
   4281   4283   4284   4287     1  0.0000000  0.6508444  3
   4281   4283   4284   4288     1  0.0000000  0.6508444  3
   4282   4281   4283   4284     1  0.0000000  0.0000000  2
   4282   4281   4283   4285     1  0.0000000  0.0000000  2
   4282   4281   4283   4286     1  0.0000000  0.0000000  2
   4283   4284   4289   4290     1  0.0000000  0.6508444  3
   4283   4284   4289   4291     1  0.0000000  0.6508444  3
   4283   4284   4289   4292     1  0.0000000  0.6508444  3
   4285   4283   4284   4289     1  0.0000000  0.6508444  3
   4285   4283   4284   4287     1  0.0000000  0.6508444  3
   4285   4283   4284   4288     1  0.0000000  0.6508444  3
   4286   4283   4284   4289     1  0.0000000  0.6508444  3
   4286   4283   4284   4287     1  0.0000000  0.6508444  3
   4286   4283   4284   4288     1  0.0000000  0.6508444  3
   4287   4284   4289   4290     1  0.0000000  0.6508444  3
   4287   4284   4289   4291     1  0.0000000  0.6508444  3
   4287   4284   4289   4292     1  0.0000000  0.6508444  3
   4288   4284   4289   4290     1  0.0000000  0.6508444  3
   4288   4284   4289   4291     1  0.0000000  0.6508444  3
   4288   4284   4289   4292     1  0.0000000  0.6508444  3
   4293   4295   4296   4299     1  0.0000000  0.6508444  3
   4293   4295   4296   4300     1  0.0000000  0.6508444  3
   4294   4293   4295   4296     1  0.0000000  0.0000000  2
   4294   4293   4295   4297     1  0.0000000  0.0000000  2
   4294   4293   4295   4298     1  0.0000000  0.0000000  2
   4295   4296   4301   4302     1  0.0000000  0.6508444  3
   4295   4296   4301   4303     1  0.0000000  0.6508444  3
   4295   4296   4301   4304     1  0.0000000  0.6508444  3
   4297   4295   4296   4301     1  0.0000000  0.6508444  3
   4297   4295   4296   4299     1  0.0000000  0.6508444  3
   4297   4295   4296   4300     1  0.0000000  0.6508444  3
   4298   4295   4296   4301     1  0.0000000  0.6508444  3
   4298   4295   4296   4299     1  0.0000000  0.6508444  3
   4298   4295   4296   4300     1  0.0000000  0.6508444  3
   4299   4296   4301   4302     1  0.0000000  0.6508444  3
   4299   4296   4301   4303     1  0.0000000  0.6508444  3
   4299   4296   4301   4304     1  0.0000000  0.6508444  3
   4300   4296   4301   4302     1  0.0000000  0.6508444  3
   4300   4296   4301   4303     1  0.0000000  0.6508444  3
   4300   4296   4301   4304     1  0.0000000  0.6508444  3
   4305   4307   4308   4311     1  0.0000000  0.6508444  3
   4305   4307   4308   4312     1  0.0000000  0.6508444  3
   4306   4305   4307   4308     1  0.0000000  0.0000000  2
   4306   4305   4307   4309     1  0.0000000  0.0000000  2
   4306   4305   4307   4310     1  0.0000000  0.0000000  2
   4307   4308   4313   4314     1  0.0000000  0.6508444  3
   4307   4308   4313   4315     1  0.0000000  0.6508444  3
   4307   4308   4313   4316     1  0.0000000  0.6508444  3
   4309   4307   4308   4313     1  0.0000000  0.6508444  3
   4309   4307   4308   4311     1  0.0000000  0.6508444  3
   4309   4307   4308   4312     1  0.0000000  0.6508444  3
   4310   4307   4308   4313     1  0.0000000  0.6508444  3
   4310   4307   4308   4311     1  0.0000000  0.6508444  3
   4310   4307   4308   4312     1  0.0000000  0.6508444  3
   4311   4308   4313   4314     1  0.0000000  0.6508444  3
   4311   4308   4313   4315     1  0.0000000  0.6508444  3
   4311   4308   4313   4316     1  0.0000000  0.6508444  3
   4312   4308   4313   4314     1  0.0000000  0.6508444  3
   4312   4308   4313   4315     1  0.0000000  0.6508444  3
   4312   4308   4313   4316     1  0.0000000  0.6508444  3
   4317   4319   4320   4323     1  0.0000000  0.6508444  3
   4317   4319   4320   4324     1  0.0000000  0.6508444  3
   4318   4317   4319   4320     1  0.0000000  0.0000000  2
   4318   4317   4319   4321     1  0.0000000  0.0000000  2
   4318   4317   4319   4322     1  0.0000000  0.0000000  2
   4319   4320   4325   4326     1  0.0000000  0.6508444  3
   4319   4320   4325   4327     1  0.0000000  0.6508444  3
   4319   4320   4325   4328     1  0.0000000  0.6508444  3
   4321   4319   4320   4325     1  0.0000000  0.6508444  3
   4321   4319   4320   4323     1  0.0000000  0.6508444  3
   4321   4319   4320   4324     1  0.0000000  0.6508444  3
   4322   4319   4320   4325     1  0.0000000  0.6508444  3
   4322   4319   4320   4323     1  0.0000000  0.6508444  3
   4322   4319   4320   4324     1  0.0000000  0.6508444  3
   4323   4320   4325   4326     1  0.0000000  0.6508444  3
   4323   4320   4325   4327     1  0.0000000  0.6508444  3
   4323   4320   4325   4328     1  0.0000000  0.6508444  3
   4324   4320   4325   4326     1  0.0000000  0.6508444  3
   4324   4320   4325   4327     1  0.0000000  0.6508444  3
   4324   4320   4325   4328     1  0.0000000  0.6508444  3
   4329   4331   4332   4335     1  0.0000000  0.6508444  3
   4329   4331   4332   4336     1  0.0000000  0.6508444  3
   4330   4329   4331   4332     1  0.0000000  0.0000000  2
   4330   4329   4331   4333     1  0.0000000  0.0000000  2
   4330   4329   4331   4334     1  0.0000000  0.0000000  2
   4331   4332   4337   4338     1  0.0000000  0.6508444  3
   4331   4332   4337   4339     1  0.0000000  0.6508444  3
   4331   4332   4337   4340     1  0.0000000  0.6508444  3
   4333   4331   4332   4337     1  0.0000000  0.6508444  3
   4333   4331   4332   4335     1  0.0000000  0.6508444  3
   4333   4331   4332   4336     1  0.0000000  0.6508444  3
   4334   4331   4332   4337     1  0.0000000  0.6508444  3
   4334   4331   4332   4335     1  0.0000000  0.6508444  3
   4334   4331   4332   4336     1  0.0000000  0.6508444  3
   4335   4332   4337   4338     1  0.0000000  0.6508444  3
   4335   4332   4337   4339     1  0.0000000  0.6508444  3
   4335   4332   4337   4340     1  0.0000000  0.6508444  3
   4336   4332   4337   4338     1  0.0000000  0.6508444  3
   4336   4332   4337   4339     1  0.0000000  0.6508444  3
   4336   4332   4337   4340     1  0.0000000  0.6508444  3
   4341   4343   4344   4347     1  0.0000000  0.6508444  3
   4341   4343   4344   4348     1  0.0000000  0.6508444  3
   4342   4341   4343   4344     1  0.0000000  0.0000000  2
   4342   4341   4343   4345     1  0.0000000  0.0000000  2
   4342   4341   4343   4346     1  0.0000000  0.0000000  2
   4343   4344   4349   4350     1  0.0000000  0.6508444  3
   4343   4344   4349   4351     1  0.0000000  0.6508444  3
   4343   4344   4349   4352     1  0.0000000  0.6508444  3
   4345   4343   4344   4349     1  0.0000000  0.6508444  3
   4345   4343   4344   4347     1  0.0000000  0.6508444  3
   4345   4343   4344   4348     1  0.0000000  0.6508444  3
   4346   4343   4344   4349     1  0.0000000  0.6508444  3
   4346   4343   4344   4347     1  0.0000000  0.6508444  3
   4346   4343   4344   4348     1  0.0000000  0.6508444  3
   4347   4344   4349   4350     1  0.0000000  0.6508444  3
   4347   4344   4349   4351     1  0.0000000  0.6508444  3
   4347   4344   4349   4352     1  0.0000000  0.6508444  3
   4348   4344   4349   4350     1  0.0000000  0.6508444  3
   4348   4344   4349   4351     1  0.0000000  0.6508444  3
   4348   4344   4349   4352     1  0.0000000  0.6508444  3
   4353   4355   4356   4359     1  0.0000000  0.6508444  3
   4353   4355   4356   4360     1  0.0000000  0.6508444  3
   4354   4353   4355   4356     1  0.0000000  0.0000000  2
   4354   4353   4355   4357     1  0.0000000  0.0000000  2
   4354   4353   4355   4358     1  0.0000000  0.0000000  2
   4355   4356   4361   4362     1  0.0000000  0.6508444  3
   4355   4356   4361   4363     1  0.0000000  0.6508444  3
   4355   4356   4361   4364     1  0.0000000  0.6508444  3
   4357   4355   4356   4361     1  0.0000000  0.6508444  3
   4357   4355   4356   4359     1  0.0000000  0.6508444  3
   4357   4355   4356   4360     1  0.0000000  0.6508444  3
   4358   4355   4356   4361     1  0.0000000  0.6508444  3
   4358   4355   4356   4359     1  0.0000000  0.6508444  3
   4358   4355   4356   4360     1  0.0000000  0.6508444  3
   4359   4356   4361   4362     1  0.0000000  0.6508444  3
   4359   4356   4361   4363     1  0.0000000  0.6508444  3
   4359   4356   4361   4364     1  0.0000000  0.6508444  3
   4360   4356   4361   4362     1  0.0000000  0.6508444  3
   4360   4356   4361   4363     1  0.0000000  0.6508444  3
   4360   4356   4361   4364     1  0.0000000  0.6508444  3
   4365   4367   4368   4371     1  0.0000000  0.6508444  3
   4365   4367   4368   4372     1  0.0000000  0.6508444  3
   4366   4365   4367   4368     1  0.0000000  0.0000000  2
   4366   4365   4367   4369     1  0.0000000  0.0000000  2
   4366   4365   4367   4370     1  0.0000000  0.0000000  2
   4367   4368   4373   4374     1  0.0000000  0.6508444  3
   4367   4368   4373   4375     1  0.0000000  0.6508444  3
   4367   4368   4373   4376     1  0.0000000  0.6508444  3
   4369   4367   4368   4373     1  0.0000000  0.6508444  3
   4369   4367   4368   4371     1  0.0000000  0.6508444  3
   4369   4367   4368   4372     1  0.0000000  0.6508444  3
   4370   4367   4368   4373     1  0.0000000  0.6508444  3
   4370   4367   4368   4371     1  0.0000000  0.6508444  3
   4370   4367   4368   4372     1  0.0000000  0.6508444  3
   4371   4368   4373   4374     1  0.0000000  0.6508444  3
   4371   4368   4373   4375     1  0.0000000  0.6508444  3
   4371   4368   4373   4376     1  0.0000000  0.6508444  3
   4372   4368   4373   4374     1  0.0000000  0.6508444  3
   4372   4368   4373   4375     1  0.0000000  0.6508444  3
   4372   4368   4373   4376     1  0.0000000  0.6508444  3
   4377   4379   4380   4383     1  0.0000000  0.6508444  3
   4377   4379   4380   4384     1  0.0000000  0.6508444  3
   4378   4377   4379   4380     1  0.0000000  0.0000000  2
   4378   4377   4379   4381     1  0.0000000  0.0000000  2
   4378   4377   4379   4382     1  0.0000000  0.0000000  2
   4379   4380   4385   4386     1  0.0000000  0.6508444  3
   4379   4380   4385   4387     1  0.0000000  0.6508444  3
   4379   4380   4385   4388     1  0.0000000  0.6508444  3
   4381   4379   4380   4385     1  0.0000000  0.6508444  3
   4381   4379   4380   4383     1  0.0000000  0.6508444  3
   4381   4379   4380   4384     1  0.0000000  0.6508444  3
   4382   4379   4380   4385     1  0.0000000  0.6508444  3
   4382   4379   4380   4383     1  0.0000000  0.6508444  3
   4382   4379   4380   4384     1  0.0000000  0.6508444  3
   4383   4380   4385   4386     1  0.0000000  0.6508444  3
   4383   4380   4385   4387     1  0.0000000  0.6508444  3
   4383   4380   4385   4388     1  0.0000000  0.6508444  3
   4384   4380   4385   4386     1  0.0000000  0.6508444  3
   4384   4380   4385   4387     1  0.0000000  0.6508444  3
   4384   4380   4385   4388     1  0.0000000  0.6508444  3
   4389   4391   4392   4395     1  0.0000000  0.6508444  3
   4389   4391   4392   4396     1  0.0000000  0.6508444  3
   4390   4389   4391   4392     1  0.0000000  0.0000000  2
   4390   4389   4391   4393     1  0.0000000  0.0000000  2
   4390   4389   4391   4394     1  0.0000000  0.0000000  2
   4391   4392   4397   4398     1  0.0000000  0.6508444  3
   4391   4392   4397   4399     1  0.0000000  0.6508444  3
   4391   4392   4397   4400     1  0.0000000  0.6508444  3
   4393   4391   4392   4397     1  0.0000000  0.6508444  3
   4393   4391   4392   4395     1  0.0000000  0.6508444  3
   4393   4391   4392   4396     1  0.0000000  0.6508444  3
   4394   4391   4392   4397     1  0.0000000  0.6508444  3
   4394   4391   4392   4395     1  0.0000000  0.6508444  3
   4394   4391   4392   4396     1  0.0000000  0.6508444  3
   4395   4392   4397   4398     1  0.0000000  0.6508444  3
   4395   4392   4397   4399     1  0.0000000  0.6508444  3
   4395   4392   4397   4400     1  0.0000000  0.6508444  3
   4396   4392   4397   4398     1  0.0000000  0.6508444  3
   4396   4392   4397   4399     1  0.0000000  0.6508444  3
   4396   4392   4397   4400     1  0.0000000  0.6508444  3
   4401   4403   4404   4407     1  0.0000000  0.6508444  3
   4401   4403   4404   4408     1  0.0000000  0.6508444  3
   4402   4401   4403   4404     1  0.0000000  0.0000000  2
   4402   4401   4403   4405     1  0.0000000  0.0000000  2
   4402   4401   4403   4406     1  0.0000000  0.0000000  2
   4403   4404   4409   4410     1  0.0000000  0.6508444  3
   4403   4404   4409   4411     1  0.0000000  0.6508444  3
   4403   4404   4409   4412     1  0.0000000  0.6508444  3
   4405   4403   4404   4409     1  0.0000000  0.6508444  3
   4405   4403   4404   4407     1  0.0000000  0.6508444  3
   4405   4403   4404   4408     1  0.0000000  0.6508444  3
   4406   4403   4404   4409     1  0.0000000  0.6508444  3
   4406   4403   4404   4407     1  0.0000000  0.6508444  3
   4406   4403   4404   4408     1  0.0000000  0.6508444  3
   4407   4404   4409   4410     1  0.0000000  0.6508444  3
   4407   4404   4409   4411     1  0.0000000  0.6508444  3
   4407   4404   4409   4412     1  0.0000000  0.6508444  3
   4408   4404   4409   4410     1  0.0000000  0.6508444  3
   4408   4404   4409   4411     1  0.0000000  0.6508444  3
   4408   4404   4409   4412     1  0.0000000  0.6508444  3
   4413   4415   4416   4419     1  0.0000000  0.6508444  3
   4413   4415   4416   4420     1  0.0000000  0.6508444  3
   4414   4413   4415   4416     1  0.0000000  0.0000000  2
   4414   4413   4415   4417     1  0.0000000  0.0000000  2
   4414   4413   4415   4418     1  0.0000000  0.0000000  2
   4415   4416   4421   4422     1  0.0000000  0.6508444  3
   4415   4416   4421   4423     1  0.0000000  0.6508444  3
   4415   4416   4421   4424     1  0.0000000  0.6508444  3
   4417   4415   4416   4421     1  0.0000000  0.6508444  3
   4417   4415   4416   4419     1  0.0000000  0.6508444  3
   4417   4415   4416   4420     1  0.0000000  0.6508444  3
   4418   4415   4416   4421     1  0.0000000  0.6508444  3
   4418   4415   4416   4419     1  0.0000000  0.6508444  3
   4418   4415   4416   4420     1  0.0000000  0.6508444  3
   4419   4416   4421   4422     1  0.0000000  0.6508444  3
   4419   4416   4421   4423     1  0.0000000  0.6508444  3
   4419   4416   4421   4424     1  0.0000000  0.6508444  3
   4420   4416   4421   4422     1  0.0000000  0.6508444  3
   4420   4416   4421   4423     1  0.0000000  0.6508444  3
   4420   4416   4421   4424     1  0.0000000  0.6508444  3
   4425   4427   4428   4431     1  0.0000000  0.6508444  3
   4425   4427   4428   4432     1  0.0000000  0.6508444  3
   4426   4425   4427   4428     1  0.0000000  0.0000000  2
   4426   4425   4427   4429     1  0.0000000  0.0000000  2
   4426   4425   4427   4430     1  0.0000000  0.0000000  2
   4427   4428   4433   4434     1  0.0000000  0.6508444  3
   4427   4428   4433   4435     1  0.0000000  0.6508444  3
   4427   4428   4433   4436     1  0.0000000  0.6508444  3
   4429   4427   4428   4433     1  0.0000000  0.6508444  3
   4429   4427   4428   4431     1  0.0000000  0.6508444  3
   4429   4427   4428   4432     1  0.0000000  0.6508444  3
   4430   4427   4428   4433     1  0.0000000  0.6508444  3
   4430   4427   4428   4431     1  0.0000000  0.6508444  3
   4430   4427   4428   4432     1  0.0000000  0.6508444  3
   4431   4428   4433   4434     1  0.0000000  0.6508444  3
   4431   4428   4433   4435     1  0.0000000  0.6508444  3
   4431   4428   4433   4436     1  0.0000000  0.6508444  3
   4432   4428   4433   4434     1  0.0000000  0.6508444  3
   4432   4428   4433   4435     1  0.0000000  0.6508444  3
   4432   4428   4433   4436     1  0.0000000  0.6508444  3
   4437   4439   4440   4443     1  0.0000000  0.6508444  3
   4437   4439   4440   4444     1  0.0000000  0.6508444  3
   4438   4437   4439   4440     1  0.0000000  0.0000000  2
   4438   4437   4439   4441     1  0.0000000  0.0000000  2
   4438   4437   4439   4442     1  0.0000000  0.0000000  2
   4439   4440   4445   4446     1  0.0000000  0.6508444  3
   4439   4440   4445   4447     1  0.0000000  0.6508444  3
   4439   4440   4445   4448     1  0.0000000  0.6508444  3
   4441   4439   4440   4445     1  0.0000000  0.6508444  3
   4441   4439   4440   4443     1  0.0000000  0.6508444  3
   4441   4439   4440   4444     1  0.0000000  0.6508444  3
   4442   4439   4440   4445     1  0.0000000  0.6508444  3
   4442   4439   4440   4443     1  0.0000000  0.6508444  3
   4442   4439   4440   4444     1  0.0000000  0.6508444  3
   4443   4440   4445   4446     1  0.0000000  0.6508444  3
   4443   4440   4445   4447     1  0.0000000  0.6508444  3
   4443   4440   4445   4448     1  0.0000000  0.6508444  3
   4444   4440   4445   4446     1  0.0000000  0.6508444  3
   4444   4440   4445   4447     1  0.0000000  0.6508444  3
   4444   4440   4445   4448     1  0.0000000  0.6508444  3
   4449   4451   4452   4455     1  0.0000000  0.6508444  3
   4449   4451   4452   4456     1  0.0000000  0.6508444  3
   4450   4449   4451   4452     1  0.0000000  0.0000000  2
   4450   4449   4451   4453     1  0.0000000  0.0000000  2
   4450   4449   4451   4454     1  0.0000000  0.0000000  2
   4451   4452   4457   4458     1  0.0000000  0.6508444  3
   4451   4452   4457   4459     1  0.0000000  0.6508444  3
   4451   4452   4457   4460     1  0.0000000  0.6508444  3
   4453   4451   4452   4457     1  0.0000000  0.6508444  3
   4453   4451   4452   4455     1  0.0000000  0.6508444  3
   4453   4451   4452   4456     1  0.0000000  0.6508444  3
   4454   4451   4452   4457     1  0.0000000  0.6508444  3
   4454   4451   4452   4455     1  0.0000000  0.6508444  3
   4454   4451   4452   4456     1  0.0000000  0.6508444  3
   4455   4452   4457   4458     1  0.0000000  0.6508444  3
   4455   4452   4457   4459     1  0.0000000  0.6508444  3
   4455   4452   4457   4460     1  0.0000000  0.6508444  3
   4456   4452   4457   4458     1  0.0000000  0.6508444  3
   4456   4452   4457   4459     1  0.0000000  0.6508444  3
   4456   4452   4457   4460     1  0.0000000  0.6508444  3
   4461   4463   4464   4467     1  0.0000000  0.6508444  3
   4461   4463   4464   4468     1  0.0000000  0.6508444  3
   4462   4461   4463   4464     1  0.0000000  0.0000000  2
   4462   4461   4463   4465     1  0.0000000  0.0000000  2
   4462   4461   4463   4466     1  0.0000000  0.0000000  2
   4463   4464   4469   4470     1  0.0000000  0.6508444  3
   4463   4464   4469   4471     1  0.0000000  0.6508444  3
   4463   4464   4469   4472     1  0.0000000  0.6508444  3
   4465   4463   4464   4469     1  0.0000000  0.6508444  3
   4465   4463   4464   4467     1  0.0000000  0.6508444  3
   4465   4463   4464   4468     1  0.0000000  0.6508444  3
   4466   4463   4464   4469     1  0.0000000  0.6508444  3
   4466   4463   4464   4467     1  0.0000000  0.6508444  3
   4466   4463   4464   4468     1  0.0000000  0.6508444  3
   4467   4464   4469   4470     1  0.0000000  0.6508444  3
   4467   4464   4469   4471     1  0.0000000  0.6508444  3
   4467   4464   4469   4472     1  0.0000000  0.6508444  3
   4468   4464   4469   4470     1  0.0000000  0.6508444  3
   4468   4464   4469   4471     1  0.0000000  0.6508444  3
   4468   4464   4469   4472     1  0.0000000  0.6508444  3
   4473   4475   4476   4479     1  0.0000000  0.6508444  3
   4473   4475   4476   4480     1  0.0000000  0.6508444  3
   4474   4473   4475   4476     1  0.0000000  0.0000000  2
   4474   4473   4475   4477     1  0.0000000  0.0000000  2
   4474   4473   4475   4478     1  0.0000000  0.0000000  2
   4475   4476   4481   4482     1  0.0000000  0.6508444  3
   4475   4476   4481   4483     1  0.0000000  0.6508444  3
   4475   4476   4481   4484     1  0.0000000  0.6508444  3
   4477   4475   4476   4481     1  0.0000000  0.6508444  3
   4477   4475   4476   4479     1  0.0000000  0.6508444  3
   4477   4475   4476   4480     1  0.0000000  0.6508444  3
   4478   4475   4476   4481     1  0.0000000  0.6508444  3
   4478   4475   4476   4479     1  0.0000000  0.6508444  3
   4478   4475   4476   4480     1  0.0000000  0.6508444  3
   4479   4476   4481   4482     1  0.0000000  0.6508444  3
   4479   4476   4481   4483     1  0.0000000  0.6508444  3
   4479   4476   4481   4484     1  0.0000000  0.6508444  3
   4480   4476   4481   4482     1  0.0000000  0.6508444  3
   4480   4476   4481   4483     1  0.0000000  0.6508444  3
   4480   4476   4481   4484     1  0.0000000  0.6508444  3
   4485   4487   4488   4491     1  0.0000000  0.6508444  3
   4485   4487   4488   4492     1  0.0000000  0.6508444  3
   4486   4485   4487   4488     1  0.0000000  0.0000000  2
   4486   4485   4487   4489     1  0.0000000  0.0000000  2
   4486   4485   4487   4490     1  0.0000000  0.0000000  2
   4487   4488   4493   4494     1  0.0000000  0.6508444  3
   4487   4488   4493   4495     1  0.0000000  0.6508444  3
   4487   4488   4493   4496     1  0.0000000  0.6508444  3
   4489   4487   4488   4493     1  0.0000000  0.6508444  3
   4489   4487   4488   4491     1  0.0000000  0.6508444  3
   4489   4487   4488   4492     1  0.0000000  0.6508444  3
   4490   4487   4488   4493     1  0.0000000  0.6508444  3
   4490   4487   4488   4491     1  0.0000000  0.6508444  3
   4490   4487   4488   4492     1  0.0000000  0.6508444  3
   4491   4488   4493   4494     1  0.0000000  0.6508444  3
   4491   4488   4493   4495     1  0.0000000  0.6508444  3
   4491   4488   4493   4496     1  0.0000000  0.6508444  3
   4492   4488   4493   4494     1  0.0000000  0.6508444  3
   4492   4488   4493   4495     1  0.0000000  0.6508444  3
   4492   4488   4493   4496     1  0.0000000  0.6508444  3
   4497   4499   4500   4503     1  0.0000000  0.6508444  3
   4497   4499   4500   4504     1  0.0000000  0.6508444  3
   4498   4497   4499   4500     1  0.0000000  0.0000000  2
   4498   4497   4499   4501     1  0.0000000  0.0000000  2
   4498   4497   4499   4502     1  0.0000000  0.0000000  2
   4499   4500   4505   4506     1  0.0000000  0.6508444  3
   4499   4500   4505   4507     1  0.0000000  0.6508444  3
   4499   4500   4505   4508     1  0.0000000  0.6508444  3
   4501   4499   4500   4505     1  0.0000000  0.6508444  3
   4501   4499   4500   4503     1  0.0000000  0.6508444  3
   4501   4499   4500   4504     1  0.0000000  0.6508444  3
   4502   4499   4500   4505     1  0.0000000  0.6508444  3
   4502   4499   4500   4503     1  0.0000000  0.6508444  3
   4502   4499   4500   4504     1  0.0000000  0.6508444  3
   4503   4500   4505   4506     1  0.0000000  0.6508444  3
   4503   4500   4505   4507     1  0.0000000  0.6508444  3
   4503   4500   4505   4508     1  0.0000000  0.6508444  3
   4504   4500   4505   4506     1  0.0000000  0.6508444  3
   4504   4500   4505   4507     1  0.0000000  0.6508444  3
   4504   4500   4505   4508     1  0.0000000  0.6508444  3
   4509   4511   4512   4515     1  0.0000000  0.6508444  3
   4509   4511   4512   4516     1  0.0000000  0.6508444  3
   4510   4509   4511   4512     1  0.0000000  0.0000000  2
   4510   4509   4511   4513     1  0.0000000  0.0000000  2
   4510   4509   4511   4514     1  0.0000000  0.0000000  2
   4511   4512   4517   4518     1  0.0000000  0.6508444  3
   4511   4512   4517   4519     1  0.0000000  0.6508444  3
   4511   4512   4517   4520     1  0.0000000  0.6508444  3
   4513   4511   4512   4517     1  0.0000000  0.6508444  3
   4513   4511   4512   4515     1  0.0000000  0.6508444  3
   4513   4511   4512   4516     1  0.0000000  0.6508444  3
   4514   4511   4512   4517     1  0.0000000  0.6508444  3
   4514   4511   4512   4515     1  0.0000000  0.6508444  3
   4514   4511   4512   4516     1  0.0000000  0.6508444  3
   4515   4512   4517   4518     1  0.0000000  0.6508444  3
   4515   4512   4517   4519     1  0.0000000  0.6508444  3
   4515   4512   4517   4520     1  0.0000000  0.6508444  3
   4516   4512   4517   4518     1  0.0000000  0.6508444  3
   4516   4512   4517   4519     1  0.0000000  0.6508444  3
   4516   4512   4517   4520     1  0.0000000  0.6508444  3
   4521   4523   4524   4527     1  0.0000000  0.6508444  3
   4521   4523   4524   4528     1  0.0000000  0.6508444  3
   4522   4521   4523   4524     1  0.0000000  0.0000000  2
   4522   4521   4523   4525     1  0.0000000  0.0000000  2
   4522   4521   4523   4526     1  0.0000000  0.0000000  2
   4523   4524   4529   4530     1  0.0000000  0.6508444  3
   4523   4524   4529   4531     1  0.0000000  0.6508444  3
   4523   4524   4529   4532     1  0.0000000  0.6508444  3
   4525   4523   4524   4529     1  0.0000000  0.6508444  3
   4525   4523   4524   4527     1  0.0000000  0.6508444  3
   4525   4523   4524   4528     1  0.0000000  0.6508444  3
   4526   4523   4524   4529     1  0.0000000  0.6508444  3
   4526   4523   4524   4527     1  0.0000000  0.6508444  3
   4526   4523   4524   4528     1  0.0000000  0.6508444  3
   4527   4524   4529   4530     1  0.0000000  0.6508444  3
   4527   4524   4529   4531     1  0.0000000  0.6508444  3
   4527   4524   4529   4532     1  0.0000000  0.6508444  3
   4528   4524   4529   4530     1  0.0000000  0.6508444  3
   4528   4524   4529   4531     1  0.0000000  0.6508444  3
   4528   4524   4529   4532     1  0.0000000  0.6508444  3
   4533   4535   4536   4539     1  0.0000000  0.6508444  3
   4533   4535   4536   4540     1  0.0000000  0.6508444  3
   4534   4533   4535   4536     1  0.0000000  0.0000000  2
   4534   4533   4535   4537     1  0.0000000  0.0000000  2
   4534   4533   4535   4538     1  0.0000000  0.0000000  2
   4535   4536   4541   4542     1  0.0000000  0.6508444  3
   4535   4536   4541   4543     1  0.0000000  0.6508444  3
   4535   4536   4541   4544     1  0.0000000  0.6508444  3
   4537   4535   4536   4541     1  0.0000000  0.6508444  3
   4537   4535   4536   4539     1  0.0000000  0.6508444  3
   4537   4535   4536   4540     1  0.0000000  0.6508444  3
   4538   4535   4536   4541     1  0.0000000  0.6508444  3
   4538   4535   4536   4539     1  0.0000000  0.6508444  3
   4538   4535   4536   4540     1  0.0000000  0.6508444  3
   4539   4536   4541   4542     1  0.0000000  0.6508444  3
   4539   4536   4541   4543     1  0.0000000  0.6508444  3
   4539   4536   4541   4544     1  0.0000000  0.6508444  3
   4540   4536   4541   4542     1  0.0000000  0.6508444  3
   4540   4536   4541   4543     1  0.0000000  0.6508444  3
   4540   4536   4541   4544     1  0.0000000  0.6508444  3
   4545   4547   4548   4551     1  0.0000000  0.6508444  3
   4545   4547   4548   4552     1  0.0000000  0.6508444  3
   4546   4545   4547   4548     1  0.0000000  0.0000000  2
   4546   4545   4547   4549     1  0.0000000  0.0000000  2
   4546   4545   4547   4550     1  0.0000000  0.0000000  2
   4547   4548   4553   4554     1  0.0000000  0.6508444  3
   4547   4548   4553   4555     1  0.0000000  0.6508444  3
   4547   4548   4553   4556     1  0.0000000  0.6508444  3
   4549   4547   4548   4553     1  0.0000000  0.6508444  3
   4549   4547   4548   4551     1  0.0000000  0.6508444  3
   4549   4547   4548   4552     1  0.0000000  0.6508444  3
   4550   4547   4548   4553     1  0.0000000  0.6508444  3
   4550   4547   4548   4551     1  0.0000000  0.6508444  3
   4550   4547   4548   4552     1  0.0000000  0.6508444  3
   4551   4548   4553   4554     1  0.0000000  0.6508444  3
   4551   4548   4553   4555     1  0.0000000  0.6508444  3
   4551   4548   4553   4556     1  0.0000000  0.6508444  3
   4552   4548   4553   4554     1  0.0000000  0.6508444  3
   4552   4548   4553   4555     1  0.0000000  0.6508444  3
   4552   4548   4553   4556     1  0.0000000  0.6508444  3
   4557   4559   4560   4563     1  0.0000000  0.6508444  3
   4557   4559   4560   4564     1  0.0000000  0.6508444  3
   4558   4557   4559   4560     1  0.0000000  0.0000000  2
   4558   4557   4559   4561     1  0.0000000  0.0000000  2
   4558   4557   4559   4562     1  0.0000000  0.0000000  2
   4559   4560   4565   4566     1  0.0000000  0.6508444  3
   4559   4560   4565   4567     1  0.0000000  0.6508444  3
   4559   4560   4565   4568     1  0.0000000  0.6508444  3
   4561   4559   4560   4565     1  0.0000000  0.6508444  3
   4561   4559   4560   4563     1  0.0000000  0.6508444  3
   4561   4559   4560   4564     1  0.0000000  0.6508444  3
   4562   4559   4560   4565     1  0.0000000  0.6508444  3
   4562   4559   4560   4563     1  0.0000000  0.6508444  3
   4562   4559   4560   4564     1  0.0000000  0.6508444  3
   4563   4560   4565   4566     1  0.0000000  0.6508444  3
   4563   4560   4565   4567     1  0.0000000  0.6508444  3
   4563   4560   4565   4568     1  0.0000000  0.6508444  3
   4564   4560   4565   4566     1  0.0000000  0.6508444  3
   4564   4560   4565   4567     1  0.0000000  0.6508444  3
   4564   4560   4565   4568     1  0.0000000  0.6508444  3
   4569   4571   4572   4575     1  0.0000000  0.6508444  3
   4569   4571   4572   4576     1  0.0000000  0.6508444  3
   4570   4569   4571   4572     1  0.0000000  0.0000000  2
   4570   4569   4571   4573     1  0.0000000  0.0000000  2
   4570   4569   4571   4574     1  0.0000000  0.0000000  2
   4571   4572   4577   4578     1  0.0000000  0.6508444  3
   4571   4572   4577   4579     1  0.0000000  0.6508444  3
   4571   4572   4577   4580     1  0.0000000  0.6508444  3
   4573   4571   4572   4577     1  0.0000000  0.6508444  3
   4573   4571   4572   4575     1  0.0000000  0.6508444  3
   4573   4571   4572   4576     1  0.0000000  0.6508444  3
   4574   4571   4572   4577     1  0.0000000  0.6508444  3
   4574   4571   4572   4575     1  0.0000000  0.6508444  3
   4574   4571   4572   4576     1  0.0000000  0.6508444  3
   4575   4572   4577   4578     1  0.0000000  0.6508444  3
   4575   4572   4577   4579     1  0.0000000  0.6508444  3
   4575   4572   4577   4580     1  0.0000000  0.6508444  3
   4576   4572   4577   4578     1  0.0000000  0.6508444  3
   4576   4572   4577   4579     1  0.0000000  0.6508444  3
   4576   4572   4577   4580     1  0.0000000  0.6508444  3
   4581   4583   4584   4587     1  0.0000000  0.6508444  3
   4581   4583   4584   4588     1  0.0000000  0.6508444  3
   4582   4581   4583   4584     1  0.0000000  0.0000000  2
   4582   4581   4583   4585     1  0.0000000  0.0000000  2
   4582   4581   4583   4586     1  0.0000000  0.0000000  2
   4583   4584   4589   4590     1  0.0000000  0.6508444  3
   4583   4584   4589   4591     1  0.0000000  0.6508444  3
   4583   4584   4589   4592     1  0.0000000  0.6508444  3
   4585   4583   4584   4589     1  0.0000000  0.6508444  3
   4585   4583   4584   4587     1  0.0000000  0.6508444  3
   4585   4583   4584   4588     1  0.0000000  0.6508444  3
   4586   4583   4584   4589     1  0.0000000  0.6508444  3
   4586   4583   4584   4587     1  0.0000000  0.6508444  3
   4586   4583   4584   4588     1  0.0000000  0.6508444  3
   4587   4584   4589   4590     1  0.0000000  0.6508444  3
   4587   4584   4589   4591     1  0.0000000  0.6508444  3
   4587   4584   4589   4592     1  0.0000000  0.6508444  3
   4588   4584   4589   4590     1  0.0000000  0.6508444  3
   4588   4584   4589   4591     1  0.0000000  0.6508444  3
   4588   4584   4589   4592     1  0.0000000  0.6508444  3
   4593   4595   4596   4599     1  0.0000000  0.6508444  3
   4593   4595   4596   4600     1  0.0000000  0.6508444  3
   4594   4593   4595   4596     1  0.0000000  0.0000000  2
   4594   4593   4595   4597     1  0.0000000  0.0000000  2
   4594   4593   4595   4598     1  0.0000000  0.0000000  2
   4595   4596   4601   4602     1  0.0000000  0.6508444  3
   4595   4596   4601   4603     1  0.0000000  0.6508444  3
   4595   4596   4601   4604     1  0.0000000  0.6508444  3
   4597   4595   4596   4601     1  0.0000000  0.6508444  3
   4597   4595   4596   4599     1  0.0000000  0.6508444  3
   4597   4595   4596   4600     1  0.0000000  0.6508444  3
   4598   4595   4596   4601     1  0.0000000  0.6508444  3
   4598   4595   4596   4599     1  0.0000000  0.6508444  3
   4598   4595   4596   4600     1  0.0000000  0.6508444  3
   4599   4596   4601   4602     1  0.0000000  0.6508444  3
   4599   4596   4601   4603     1  0.0000000  0.6508444  3
   4599   4596   4601   4604     1  0.0000000  0.6508444  3
   4600   4596   4601   4602     1  0.0000000  0.6508444  3
   4600   4596   4601   4603     1  0.0000000  0.6508444  3
   4600   4596   4601   4604     1  0.0000000  0.6508444  3
   4605   4607   4608   4611     1  0.0000000  0.6508444  3
   4605   4607   4608   4612     1  0.0000000  0.6508444  3
   4606   4605   4607   4608     1  0.0000000  0.0000000  2
   4606   4605   4607   4609     1  0.0000000  0.0000000  2
   4606   4605   4607   4610     1  0.0000000  0.0000000  2
   4607   4608   4613   4614     1  0.0000000  0.6508444  3
   4607   4608   4613   4615     1  0.0000000  0.6508444  3
   4607   4608   4613   4616     1  0.0000000  0.6508444  3
   4609   4607   4608   4613     1  0.0000000  0.6508444  3
   4609   4607   4608   4611     1  0.0000000  0.6508444  3
   4609   4607   4608   4612     1  0.0000000  0.6508444  3
   4610   4607   4608   4613     1  0.0000000  0.6508444  3
   4610   4607   4608   4611     1  0.0000000  0.6508444  3
   4610   4607   4608   4612     1  0.0000000  0.6508444  3
   4611   4608   4613   4614     1  0.0000000  0.6508444  3
   4611   4608   4613   4615     1  0.0000000  0.6508444  3
   4611   4608   4613   4616     1  0.0000000  0.6508444  3
   4612   4608   4613   4614     1  0.0000000  0.6508444  3
   4612   4608   4613   4615     1  0.0000000  0.6508444  3
   4612   4608   4613   4616     1  0.0000000  0.6508444  3
   4617   4619   4620   4623     1  0.0000000  0.6508444  3
   4617   4619   4620   4624     1  0.0000000  0.6508444  3
   4618   4617   4619   4620     1  0.0000000  0.0000000  2
   4618   4617   4619   4621     1  0.0000000  0.0000000  2
   4618   4617   4619   4622     1  0.0000000  0.0000000  2
   4619   4620   4625   4626     1  0.0000000  0.6508444  3
   4619   4620   4625   4627     1  0.0000000  0.6508444  3
   4619   4620   4625   4628     1  0.0000000  0.6508444  3
   4621   4619   4620   4625     1  0.0000000  0.6508444  3
   4621   4619   4620   4623     1  0.0000000  0.6508444  3
   4621   4619   4620   4624     1  0.0000000  0.6508444  3
   4622   4619   4620   4625     1  0.0000000  0.6508444  3
   4622   4619   4620   4623     1  0.0000000  0.6508444  3
   4622   4619   4620   4624     1  0.0000000  0.6508444  3
   4623   4620   4625   4626     1  0.0000000  0.6508444  3
   4623   4620   4625   4627     1  0.0000000  0.6508444  3
   4623   4620   4625   4628     1  0.0000000  0.6508444  3
   4624   4620   4625   4626     1  0.0000000  0.6508444  3
   4624   4620   4625   4627     1  0.0000000  0.6508444  3
   4624   4620   4625   4628     1  0.0000000  0.6508444  3
   4629   4631   4632   4635     1  0.0000000  0.6508444  3
   4629   4631   4632   4636     1  0.0000000  0.6508444  3
   4630   4629   4631   4632     1  0.0000000  0.0000000  2
   4630   4629   4631   4633     1  0.0000000  0.0000000  2
   4630   4629   4631   4634     1  0.0000000  0.0000000  2
   4631   4632   4637   4638     1  0.0000000  0.6508444  3
   4631   4632   4637   4639     1  0.0000000  0.6508444  3
   4631   4632   4637   4640     1  0.0000000  0.6508444  3
   4633   4631   4632   4637     1  0.0000000  0.6508444  3
   4633   4631   4632   4635     1  0.0000000  0.6508444  3
   4633   4631   4632   4636     1  0.0000000  0.6508444  3
   4634   4631   4632   4637     1  0.0000000  0.6508444  3
   4634   4631   4632   4635     1  0.0000000  0.6508444  3
   4634   4631   4632   4636     1  0.0000000  0.6508444  3
   4635   4632   4637   4638     1  0.0000000  0.6508444  3
   4635   4632   4637   4639     1  0.0000000  0.6508444  3
   4635   4632   4637   4640     1  0.0000000  0.6508444  3
   4636   4632   4637   4638     1  0.0000000  0.6508444  3
   4636   4632   4637   4639     1  0.0000000  0.6508444  3
   4636   4632   4637   4640     1  0.0000000  0.6508444  3
   4641   4643   4644   4647     1  0.0000000  0.6508444  3
   4641   4643   4644   4648     1  0.0000000  0.6508444  3
   4642   4641   4643   4644     1  0.0000000  0.0000000  2
   4642   4641   4643   4645     1  0.0000000  0.0000000  2
   4642   4641   4643   4646     1  0.0000000  0.0000000  2
   4643   4644   4649   4650     1  0.0000000  0.6508444  3
   4643   4644   4649   4651     1  0.0000000  0.6508444  3
   4643   4644   4649   4652     1  0.0000000  0.6508444  3
   4645   4643   4644   4649     1  0.0000000  0.6508444  3
   4645   4643   4644   4647     1  0.0000000  0.6508444  3
   4645   4643   4644   4648     1  0.0000000  0.6508444  3
   4646   4643   4644   4649     1  0.0000000  0.6508444  3
   4646   4643   4644   4647     1  0.0000000  0.6508444  3
   4646   4643   4644   4648     1  0.0000000  0.6508444  3
   4647   4644   4649   4650     1  0.0000000  0.6508444  3
   4647   4644   4649   4651     1  0.0000000  0.6508444  3
   4647   4644   4649   4652     1  0.0000000  0.6508444  3
   4648   4644   4649   4650     1  0.0000000  0.6508444  3
   4648   4644   4649   4651     1  0.0000000  0.6508444  3
   4648   4644   4649   4652     1  0.0000000  0.6508444  3
   4653   4655   4656   4659     1  0.0000000  0.6508444  3
   4653   4655   4656   4660     1  0.0000000  0.6508444  3
   4654   4653   4655   4656     1  0.0000000  0.0000000  2
   4654   4653   4655   4657     1  0.0000000  0.0000000  2
   4654   4653   4655   4658     1  0.0000000  0.0000000  2
   4655   4656   4661   4662     1  0.0000000  0.6508444  3
   4655   4656   4661   4663     1  0.0000000  0.6508444  3
   4655   4656   4661   4664     1  0.0000000  0.6508444  3
   4657   4655   4656   4661     1  0.0000000  0.6508444  3
   4657   4655   4656   4659     1  0.0000000  0.6508444  3
   4657   4655   4656   4660     1  0.0000000  0.6508444  3
   4658   4655   4656   4661     1  0.0000000  0.6508444  3
   4658   4655   4656   4659     1  0.0000000  0.6508444  3
   4658   4655   4656   4660     1  0.0000000  0.6508444  3
   4659   4656   4661   4662     1  0.0000000  0.6508444  3
   4659   4656   4661   4663     1  0.0000000  0.6508444  3
   4659   4656   4661   4664     1  0.0000000  0.6508444  3
   4660   4656   4661   4662     1  0.0000000  0.6508444  3
   4660   4656   4661   4663     1  0.0000000  0.6508444  3
   4660   4656   4661   4664     1  0.0000000  0.6508444  3
   4665   4667   4668   4671     1  0.0000000  0.6508444  3
   4665   4667   4668   4672     1  0.0000000  0.6508444  3
   4666   4665   4667   4668     1  0.0000000  0.0000000  2
   4666   4665   4667   4669     1  0.0000000  0.0000000  2
   4666   4665   4667   4670     1  0.0000000  0.0000000  2
   4667   4668   4673   4674     1  0.0000000  0.6508444  3
   4667   4668   4673   4675     1  0.0000000  0.6508444  3
   4667   4668   4673   4676     1  0.0000000  0.6508444  3
   4669   4667   4668   4673     1  0.0000000  0.6508444  3
   4669   4667   4668   4671     1  0.0000000  0.6508444  3
   4669   4667   4668   4672     1  0.0000000  0.6508444  3
   4670   4667   4668   4673     1  0.0000000  0.6508444  3
   4670   4667   4668   4671     1  0.0000000  0.6508444  3
   4670   4667   4668   4672     1  0.0000000  0.6508444  3
   4671   4668   4673   4674     1  0.0000000  0.6508444  3
   4671   4668   4673   4675     1  0.0000000  0.6508444  3
   4671   4668   4673   4676     1  0.0000000  0.6508444  3
   4672   4668   4673   4674     1  0.0000000  0.6508444  3
   4672   4668   4673   4675     1  0.0000000  0.6508444  3
   4672   4668   4673   4676     1  0.0000000  0.6508444  3
     33     44     64     65     4  180.0000771  4.6024000  2
     34     69     89     90     4  180.0000771  4.6024000  2
     35     94    114    115     4  180.0000771  4.6024000  2
     36    119    139    140     4  180.0000771  4.6024000  2
     60    144    164    165     4  180.0000771  4.6024000  2
     61    169    189    190     4  180.0000771  4.6024000  2
     85    194    214    215     4  180.0000771  4.6024000  2
     86    219    239    240     4  180.0000771  4.6024000  2
    110    244    264    265     4  180.0000771  4.6024000  2
    111    269    289    290     4  180.0000771  4.6024000  2
    135    294    314    315     4  180.0000771  4.6024000  2
    136    319    339    340     4  180.0000771  4.6024000  2
    160    344    364    365     4  180.0000771  4.6024000  2
    161    369    389    390     4  180.0000771  4.6024000  2
    185    394    414    415     4  180.0000771  4.6024000  2
    186    419    439    440     4  180.0000771  4.6024000  2
    210    444    464    465     4  180.0000771  4.6024000  2
    211    469    489    490     4  180.0000771  4.6024000  2
    235    494    514    515     4  180.0000771  4.6024000  2
    236    519    539    540     4  180.0000771  4.6024000  2
    260    544    564    565     4  180.0000771  4.6024000  2
    261    569    589    590     4  180.0000771  4.6024000  2
    285    594    614    615     4  180.0000771  4.6024000  2
    286    619    639    640     4  180.0000771  4.6024000  2
    310    644    664    665     4  180.0000771  4.6024000  2
    311    669    689    690     4  180.0000771  4.6024000  2
    335    694    714    715     4  180.0000771  4.6024000  2
    336    719    739    740     4  180.0000771  4.6024000  2
    360    744    764    765     4  180.0000771  4.6024000  2
    361    769    789    790     4  180.0000771  4.6024000  2
    385    794    814    815     4  180.0000771  4.6024000  2
    386    819    839    840     4  180.0000771  4.6024000  2
    410    844    864    865     4  180.0000771  4.6024000  2
    411    869    889    890     4  180.0000771  4.6024000  2
    435    894    914    915     4  180.0000771  4.6024000  2
    436    919    939    940     4  180.0000771  4.6024000  2
    460    944    964    965     4  180.0000771  4.6024000  2
    461    969    989    990     4  180.0000771  4.6024000  2
    485    994   1014   1015     4  180.0000771  4.6024000  2
    486   1019   1039   1040     4  180.0000771  4.6024000  2
    510   1044   1064   1065     4  180.0000771  4.6024000  2
    511   1069   1089   1090     4  180.0000771  4.6024000  2
    535   1094   1114   1115     4  180.0000771  4.6024000  2
    536   1119   1139   1140     4  180.0000771  4.6024000  2
    560   1144   1164   1165     4  180.0000771  4.6024000  2
    561   1169   1189   1190     4  180.0000771  4.6024000  2
    585   1194   1214   1215     4  180.0000771  4.6024000  2
    586   1219   1239   1240     4  180.0000771  4.6024000  2
    610   1244   1264   1265     4  180.0000771  4.6024000  2
    611   1269   1289   1290     4  180.0000771  4.6024000  2
    635   1294   1314   1315     4  180.0000771  4.6024000  2
    636   1319   1339   1340     4  180.0000771  4.6024000  2
    660   1344   1364   1365     4  180.0000771  4.6024000  2
    661   1369   1389   1390     4  180.0000771  4.6024000  2
    685   1394   1414   1415     4  180.0000771  4.6024000  2
    686   1419   1439   1440     4  180.0000771  4.6024000  2
    710   1444   1464   1465     4  180.0000771  4.6024000  2
    711   1469   1489   1490     4  180.0000771  4.6024000  2
    735   1494   1514   1515     4  180.0000771  4.6024000  2
    736   1519   1539   1540     4  180.0000771  4.6024000  2
    760   1544   1564   1565     4  180.0000771  4.6024000  2
    761   1569   1589   1590     4  180.0000771  4.6024000  2
    785   1594   1614   1615     4  180.0000771  4.6024000  2
    786   1619   1639   1640     4  180.0000771  4.6024000  2
    810   1644   1664   1665     4  180.0000771  4.6024000  2
    811   1669   1689   1690     4  180.0000771  4.6024000  2
    835   1694   1714   1715     4  180.0000771  4.6024000  2
    836   1719   1739   1740     4  180.0000771  4.6024000  2
    860   1744   1764   1765     4  180.0000771  4.6024000  2
    861   1769   1789   1790     4  180.0000771  4.6024000  2
    885   1794   1814   1815     4  180.0000771  4.6024000  2
    886   1819   1839   1840     4  180.0000771  4.6024000  2
    910   1844   1864   1865     4  180.0000771  4.6024000  2
    911   1869   1889   1890     4  180.0000771  4.6024000  2
    935   1894   1914   1915     4  180.0000771  4.6024000  2
    936   1919   1939   1940     4  180.0000771  4.6024000  2
    960   1944   1964   1965     4  180.0000771  4.6024000  2
    961   1969   1989   1990     4  180.0000771  4.6024000  2
    985   1994   2014   2015     4  180.0000771  4.6024000  2
    986   2019   2039   2040     4  180.0000771  4.6024000  2
   1010   2044   2064   2065     4  180.0000771  4.6024000  2
   1011   2069   2089   2090     4  180.0000771  4.6024000  2
   1035   2094   2114   2115     4  180.0000771  4.6024000  2
   1036   2119   2139   2140     4  180.0000771  4.6024000  2
   1060   2144   2164   2165     4  180.0000771  4.6024000  2
   1061   2169   2189   2190     4  180.0000771  4.6024000  2
   1085   2194   2214   2215     4  180.0000771  4.6024000  2
   1086   2219   2239   2240     4  180.0000771  4.6024000  2
   1110   2244   2264   2265     4  180.0000771  4.6024000  2
   1111   2269   2289   2290     4  180.0000771  4.6024000  2
   1135   2294   2314   2315     4  180.0000771  4.6024000  2
   1136   2319   2339   2340     4  180.0000771  4.6024000  2
   1160   2344   2364   2365     4  180.0000771  4.6024000  2
   1161   2369   2389   2390     4  180.0000771  4.6024000  2
   1185   2394   2414   2415     4  180.0000771  4.6024000  2
   1186   2419   2439   2440     4  180.0000771  4.6024000  2
   1210   2444   2464   2465     4  180.0000771  4.6024000  2
   1211   2469   2489   2490     4  180.0000771  4.6024000  2
   1235   2494   2514   2515     4  180.0000771  4.6024000  2
   1236   2519   2539   2540     4  180.0000771  4.6024000  2
   1260   2544   2564   2565     4  180.0000771  4.6024000  2
   1261   2569   2589   2590     4  180.0000771  4.6024000  2
   1285   2594   2614   2615     4  180.0000771  4.6024000  2
   1286   2619   2639   2640     4  180.0000771  4.6024000  2
   1310   2644   2664   2665     4  180.0000771  4.6024000  2
   1311   2669   2689   2690     4  180.0000771  4.6024000  2
   1335   2694   2714   2715     4  180.0000771  4.6024000  2
   1336   2719   2739   2740     4  180.0000771  4.6024000  2
   1360   2744   2764   2765     4  180.0000771  4.6024000  2
   1361   2769   2789   2790     4  180.0000771  4.6024000  2
   1385   2794   2814   2815     4  180.0000771  4.6024000  2
   1386   2819   2839   2840     4  180.0000771  4.6024000  2
   1410   2844   2864   2865     4  180.0000771  4.6024000  2
   1411   2869   2889   2890     4  180.0000771  4.6024000  2
   1435   2894   2914   2915     4  180.0000771  4.6024000  2
   1436   2919   2939   2940     4  180.0000771  4.6024000  2
   1460   2944   2964   2965     4  180.0000771  4.6024000  2
   1461   2969   2989   2990     4  180.0000771  4.6024000  2
   1485   2994   3014   3015     4  180.0000771  4.6024000  2
   1486   3019   3039   3040     4  180.0000771  4.6024000  2
   1510   3044   3064   3065     4  180.0000771  4.6024000  2
   1511   3069   3089   3090     4  180.0000771  4.6024000  2
   1535   3094   3114   3115     4  180.0000771  4.6024000  2
   1536   3119   3139   3140     4  180.0000771  4.6024000  2
   1560   3143   3141   3142     4  180.0000771  4.6024000  2
   1561   3155   3153   3154     4  180.0000771  4.6024000  2
   1585   3167   3165   3166     4  180.0000771  4.6024000  2
   1586   3179   3177   3178     4  180.0000771  4.6024000  2
   1610   3191   3189   3190     4  180.0000771  4.6024000  2
   1611   3203   3201   3202     4  180.0000771  4.6024000  2
   1635   3215   3213   3214     4  180.0000771  4.6024000  2
   1636   3227   3225   3226     4  180.0000771  4.6024000  2
   1660   3239   3237   3238     4  180.0000771  4.6024000  2
   1661   3251   3249   3250     4  180.0000771  4.6024000  2
   1685   3263   3261   3262     4  180.0000771  4.6024000  2
   1686   3275   3273   3274     4  180.0000771  4.6024000  2
   1710   3287   3285   3286     4  180.0000771  4.6024000  2
   1711   3299   3297   3298     4  180.0000771  4.6024000  2
   1735   3311   3309   3310     4  180.0000771  4.6024000  2
   1736   3323   3321   3322     4  180.0000771  4.6024000  2
   1760   3335   3333   3334     4  180.0000771  4.6024000  2
   1761   3347   3345   3346     4  180.0000771  4.6024000  2
   1785   3359   3357   3358     4  180.0000771  4.6024000  2
   1786   3371   3369   3370     4  180.0000771  4.6024000  2
   1810   3383   3381   3382     4  180.0000771  4.6024000  2
   1811   3395   3393   3394     4  180.0000771  4.6024000  2
   1835   3407   3405   3406     4  180.0000771  4.6024000  2
   1836   3419   3417   3418     4  180.0000771  4.6024000  2
   1860   3431   3429   3430     4  180.0000771  4.6024000  2
   1861   3443   3441   3442     4  180.0000771  4.6024000  2
   1885   3455   3453   3454     4  180.0000771  4.6024000  2
   1886   3467   3465   3466     4  180.0000771  4.6024000  2
   1910   3479   3477   3478     4  180.0000771  4.6024000  2
   1911   3491   3489   3490     4  180.0000771  4.6024000  2
   1935   3503   3501   3502     4  180.0000771  4.6024000  2
   1936   3515   3513   3514     4  180.0000771  4.6024000  2
   1960   3527   3525   3526     4  180.0000771  4.6024000  2
   1961   3539   3537   3538     4  180.0000771  4.6024000  2
   1985   3551   3549   3550     4  180.0000771  4.6024000  2
   1986   3563   3561   3562     4  180.0000771  4.6024000  2
   2010   3575   3573   3574     4  180.0000771  4.6024000  2
   2011   3587   3585   3586     4  180.0000771  4.6024000  2
   2035   3599   3597   3598     4  180.0000771  4.6024000  2
   2036   3611   3609   3610     4  180.0000771  4.6024000  2
   2060   3623   3621   3622     4  180.0000771  4.6024000  2
   2061   3635   3633   3634     4  180.0000771  4.6024000  2
   2085   3647   3645   3646     4  180.0000771  4.6024000  2
   2086   3659   3657   3658     4  180.0000771  4.6024000  2
   2110   3671   3669   3670     4  180.0000771  4.6024000  2
   2111   3683   3681   3682     4  180.0000771  4.6024000  2
   2135   3695   3693   3694     4  180.0000771  4.6024000  2
   2136   3707   3705   3706     4  180.0000771  4.6024000  2
   2160   3719   3717   3718     4  180.0000771  4.6024000  2
   2161   3731   3729   3730     4  180.0000771  4.6024000  2
   2185   3743   3741   3742     4  180.0000771  4.6024000  2
   2186   3755   3753   3754     4  180.0000771  4.6024000  2
   2210   3767   3765   3766     4  180.0000771  4.6024000  2
   2211   3779   3777   3778     4  180.0000771  4.6024000  2
   2235   3791   3789   3790     4  180.0000771  4.6024000  2
   2236   3803   3801   3802     4  180.0000771  4.6024000  2
   2260   3815   3813   3814     4  180.0000771  4.6024000  2
   2261   3827   3825   3826     4  180.0000771  4.6024000  2
   2285   3839   3837   3838     4  180.0000771  4.6024000  2
   2286   3851   3849   3850     4  180.0000771  4.6024000  2
   2310   3863   3861   3862     4  180.0000771  4.6024000  2
   2311   3875   3873   3874     4  180.0000771  4.6024000  2
   2335   3887   3885   3886     4  180.0000771  4.6024000  2
   2336   3899   3897   3898     4  180.0000771  4.6024000  2
   2360   3911   3909   3910     4  180.0000771  4.6024000  2
   2361   3923   3921   3922     4  180.0000771  4.6024000  2
   2385   3935   3933   3934     4  180.0000771  4.6024000  2
   2386   3947   3945   3946     4  180.0000771  4.6024000  2
   2410   3959   3957   3958     4  180.0000771  4.6024000  2
   2411   3971   3969   3970     4  180.0000771  4.6024000  2
   2435   3983   3981   3982     4  180.0000771  4.6024000  2
   2436   3995   3993   3994     4  180.0000771  4.6024000  2
   2460   4007   4005   4006     4  180.0000771  4.6024000  2
   2461   4019   4017   4018     4  180.0000771  4.6024000  2
   2485   4031   4029   4030     4  180.0000771  4.6024000  2
   2486   4043   4041   4042     4  180.0000771  4.6024000  2
   2510   4055   4053   4054     4  180.0000771  4.6024000  2
   2511   4067   4065   4066     4  180.0000771  4.6024000  2
   2535   4079   4077   4078     4  180.0000771  4.6024000  2
   2536   4091   4089   4090     4  180.0000771  4.6024000  2
   2560   4103   4101   4102     4  180.0000771  4.6024000  2
   2561   4115   4113   4114     4  180.0000771  4.6024000  2
   2585   4127   4125   4126     4  180.0000771  4.6024000  2
   2586   4139   4137   4138     4  180.0000771  4.6024000  2
   2610   4151   4149   4150     4  180.0000771  4.6024000  2
   2611   4163   4161   4162     4  180.0000771  4.6024000  2
   2635   4175   4173   4174     4  180.0000771  4.6024000  2
   2636   4187   4185   4186     4  180.0000771  4.6024000  2
   2660   4199   4197   4198     4  180.0000771  4.6024000  2
   2661   4211   4209   4210     4  180.0000771  4.6024000  2
   2685   4223   4221   4222     4  180.0000771  4.6024000  2
   2686   4235   4233   4234     4  180.0000771  4.6024000  2
   2710   4247   4245   4246     4  180.0000771  4.6024000  2
   2711   4259   4257   4258     4  180.0000771  4.6024000  2
   2735   4271   4269   4270     4  180.0000771  4.6024000  2
   2736   4283   4281   4282     4  180.0000771  4.6024000  2
   2760   4295   4293   4294     4  180.0000771  4.6024000  2
   2761   4307   4305   4306     4  180.0000771  4.6024000  2
   2785   4319   4317   4318     4  180.0000771  4.6024000  2
   2786   4331   4329   4330     4  180.0000771  4.6024000  2
   2810   4343   4341   4342     4  180.0000771  4.6024000  2
   2811   4355   4353   4354     4  180.0000771  4.6024000  2
   2835   4367   4365   4366     4  180.0000771  4.6024000  2
   2836   4379   4377   4378     4  180.0000771  4.6024000  2
   2860   4391   4389   4390     4  180.0000771  4.6024000  2
   2861   4403   4401   4402     4  180.0000771  4.6024000  2
   2885   4415   4413   4414     4  180.0000771  4.6024000  2
   2886   4427   4425   4426     4  180.0000771  4.6024000  2
   2910   4439   4437   4438     4  180.0000771  4.6024000  2
   2911   4451   4449   4450     4  180.0000771  4.6024000  2
   2935   4463   4461   4462     4  180.0000771  4.6024000  2
   2936   4475   4473   4474     4  180.0000771  4.6024000  2
   2960   4487   4485   4486     4  180.0000771  4.6024000  2
   2961   4499   4497   4498     4  180.0000771  4.6024000  2
   2985   4511   4509   4510     4  180.0000771  4.6024000  2
   2986   4523   4521   4522     4  180.0000771  4.6024000  2
   3010   4535   4533   4534     4  180.0000771  4.6024000  2
   3011   4547   4545   4546     4  180.0000771  4.6024000  2
   3035   4559   4557   4558     4  180.0000771  4.6024000  2
   3036   4571   4569   4570     4  180.0000771  4.6024000  2
   3060   4583   4581   4582     4  180.0000771  4.6024000  2
   3061   4595   4593   4594     4  180.0000771  4.6024000  2
   3085   4607   4605   4606     4  180.0000771  4.6024000  2
   3086   4619   4617   4618     4  180.0000771  4.6024000  2
   3110   4631   4629   4630     4  180.0000771  4.6024000  2
   3111   4643   4641   4642     4  180.0000771  4.6024000  2
   3135   4655   4653   4654     4  180.0000771  4.6024000  2
   3136   4667   4665   4666     4  180.0000771  4.6024000  2

;[ system ]
;; Name
;Generic title
;
;[ molecules ]
;; Compound       #mols
;g5p_pamam          1
